GROningen MAchine for Chemical Simulation
95940
    1G5    HO5'    1   2.756   5.484   5.335
    1G5     O5'    2   2.700   5.560   5.353
    1G5     C5'    3   2.768   5.663   5.276
    1G5     H5'    4   2.733   5.660   5.173
    1G5    H5''    5   2.874   5.638   5.274
    1G5     C4'    6   2.760   5.809   5.333
    1G5     H4'    7   2.822   5.879   5.275
    1G5     O4'    8   2.625   5.861   5.323
    1G5     C1'    9   2.579   5.892   5.453
    1G5     H1'   10   2.527   5.988   5.441
    1G5      N9   11   2.484   5.793   5.512
    1G5      C8   12   2.429   5.682   5.454
    1G5      H8   13   2.461   5.662   5.353
    1G5      N7   14   2.350   5.605   5.525
    1G5      C5   15   2.360   5.670   5.652
    1G5      C6   16   2.295   5.649   5.780
    1G5      O6   17   2.212   5.562   5.813
    1G5      N1   18   2.341   5.730   5.879
    1G5      H1   19   2.296   5.711   5.968
    1G5      C2   20   2.415   5.839   5.862
    1G5      N2   21   2.460   5.896   5.969
    1G5     H21   22   2.415   5.891   6.059
    1G5     H22   23   2.528   5.970   5.957
    1G5      N3   24   2.469   5.869   5.749
    1G5      C4   25   2.442   5.786   5.647
    1G5     C3'   26   2.797   5.815   5.477
    1G5     H3'   27   2.771   5.723   5.529
    1G5     C2'   28   2.706   5.911   5.546
    1G5     H2'   29   2.689   5.881   5.650
    1G5     O2'   30   2.755   6.040   5.536
    1G5    HO2'   31   2.843   6.032   5.573
    1G5     O3'   32   2.934   5.846   5.518
    2G        P   33   3.019   5.746   5.608
    2G      OP1   34   3.157   5.794   5.623
    2G      OP2   35   2.991   5.607   5.571
    2G      O5'   36   2.949   5.756   5.747
    2G      C5'   37   2.969   5.857   5.838
    2G      H5'   38   2.934   5.952   5.796
    2G     H5''   39   3.075   5.866   5.859
    2G      C4'   40   2.909   5.832   5.982
    2G      H4'   41   2.941   5.916   6.044
    2G      O4'   42   2.766   5.830   5.974
    2G      C1'   43   2.719   5.728   6.064
    2G      H1'   44   2.651   5.757   6.144
    2G       N9   45   2.649   5.625   5.985
    2G       C8   46   2.646   5.604   5.848
    2G       H8   47   2.700   5.666   5.778
    2G       N7   48   2.571   5.504   5.818
    2G       C5   49   2.519   5.459   5.939
    2G       C6   50   2.423   5.352   5.971
    2G       O6   51   2.360   5.281   5.889
    2G       N1   52   2.412   5.319   6.106
    2G       H1   53   2.365   5.233   6.130
    2G       C2   54   2.482   5.391   6.199
    2G       N2   55   2.488   5.355   6.328
    2G      H21   56   2.426   5.280   6.357
    2G      H22   57   2.545   5.408   6.392
    2G       N3   58   2.559   5.497   6.176
    2G       C4   59   2.575   5.528   6.047
    2G      C3'   60   2.959   5.702   6.043
    2G      H3'   61   2.961   5.629   5.962
    2G      C2'   62   2.846   5.676   6.138
    2G      H2'   63   2.840   5.567   6.147
    2G      O2'   64   2.862   5.743   6.260
    2G     HO2'   65   2.957   5.740   6.276
    2G      O3'   66   3.094   5.710   6.104
    3G        P   67   3.201   5.591   6.118
    3G      OP1   68   3.301   5.625   6.218
    3G      OP2   69   3.248   5.549   5.988
    3G      O5'   70   3.117   5.465   6.172
    3G      C5'   71   3.095   5.441   6.310
    3G      H5'   72   3.056   5.536   6.346
    3G     H5''   73   3.187   5.412   6.362
    3G      C4'   74   2.989   5.334   6.327
    3G      H4'   75   2.965   5.321   6.433
    3G      O4'   76   2.864   5.353   6.261
    3G      C1'   77   2.816   5.220   6.227
    3G      H1'   78   2.715   5.193   6.260
    3G       N9   79   2.809   5.227   6.075
    3G       C8   80   2.880   5.300   5.982
    3G       H8   81   2.970   5.357   5.999
    3G       N7   82   2.833   5.285   5.860
    3G       C5   83   2.727   5.188   5.877
    3G       C6   84   2.651   5.111   5.783
    3G       O6   85   2.636   5.127   5.662
    3G       N1   86   2.581   5.008   5.829
    3G       H1   87   2.521   4.952   5.771
    3G       C2   88   2.577   4.987   5.958
    3G       N2   89   2.501   4.884   5.996
    3G      H21   90   2.424   4.855   5.937
    3G      H22   91   2.509   4.842   6.087
    3G       N3   92   2.646   5.047   6.054
    3G       C4   93   2.726   5.152   6.008
    3G      C3'   94   3.043   5.197   6.286
    3G      H3'   95   3.087   5.206   6.187
    3G      C2'   96   2.918   5.113   6.276
    3G      H2'   97   2.930   5.033   6.202
    3G      O2'   98   2.875   5.066   6.399
    3G     HO2'   99   2.952   5.056   6.456
    3G      O3'  100   3.141   5.140   6.375
    4U        P  101   3.250   5.039   6.317
    4U      OP1  102   3.351   5.004   6.429
    4U      OP2  103   3.304   5.092   6.188
    4U      O5'  104   3.156   4.919   6.273
    4U      C5'  105   3.112   4.836   6.375
    4U      H5'  106   3.048   4.892   6.443
    4U     H5''  107   3.196   4.798   6.434
    4U      C4'  108   3.028   4.717   6.316
    4U      H4'  109   2.973   4.667   6.395
    4U      O4'  110   2.933   4.760   6.221
    4U      C1'  111   2.918   4.670   6.112
    4U      H1'  112   2.818   4.628   6.114
    4U       N1  113   2.941   4.740   5.974
    4U       C6  114   2.992   4.866   5.976
    4U       H6  115   3.047   4.894   6.065
    4U       C5  116   2.999   4.943   5.865
    4U       H5  117   3.057   5.033   5.875
    4U       C4  118   2.924   4.906   5.745
    4U       O4  119   2.922   4.971   5.642
    4U       N3  120   2.869   4.783   5.745
    4U       H3  121   2.816   4.758   5.663
    4U       C2  122   2.873   4.694   5.857
    4U       O2  123   2.814   4.585   5.850
    4U      C3'  124   3.112   4.624   6.229
    4U      H3'  125   3.175   4.680   6.160
    4U      C2'  126   3.014   4.553   6.137
    4U      H2'  127   3.048   4.516   6.040
    4U      O2'  128   2.940   4.450   6.199
    4U     HO2'  129   2.891   4.397   6.136
    4U      O3'  130   3.198   4.543   6.302
    5U        P  131   3.345   4.507   6.249
    5U      OP1  132   3.417   4.439   6.363
    5U      OP2  133   3.398   4.631   6.187
    5U      O5'  134   3.341   4.393   6.131
    5U      C5'  135   3.298   4.262   6.161
    5U      H5'  136   3.222   4.275   6.238
    5U     H5''  137   3.385   4.217   6.209
    5U      C4'  138   3.250   4.195   6.021
    5U      H4'  139   3.241   4.087   6.033
    5U      O4'  140   3.129   4.253   5.979
    5U      C1'  141   3.133   4.255   5.840
    5U      H1'  142   3.056   4.197   5.789
    5U       N1  143   3.118   4.393   5.787
    5U       C6  144   3.202   4.492   5.836
    5U       H6  145   3.263   4.461   5.920
    5U       C5  146   3.218   4.609   5.767
    5U       H5  147   3.275   4.689   5.811
    5U       C4  148   3.139   4.638   5.655
    5U       O4  149   3.162   4.737   5.586
    5U       N3  150   3.058   4.536   5.613
    5U       H3  151   3.017   4.554   5.522
    5U       C2  152   3.046   4.416   5.667
    5U       O2  153   2.970   4.335   5.615
    5U      C3'  154   3.352   4.214   5.907
    5U      H3'  155   3.385   4.318   5.906
    5U      C2'  156   3.256   4.181   5.788
    5U      H2'  157   3.292   4.226   5.695
    5U      O2'  158   3.223   4.046   5.768
    5U     HO2'  159   3.301   3.990   5.773
    5U      O3'  160   3.467   4.127   5.911
    6A        P  161   3.616   4.195   5.885
    6A      OP1  162   3.723   4.092   5.868
    6A      OP2  163   3.645   4.306   5.975
    6A      O5'  164   3.599   4.268   5.743
    6A      C5'  165   3.564   4.209   5.617
    6A      H5'  166   3.496   4.130   5.650
    6A     H5''  167   3.652   4.160   5.576
    6A      C4'  168   3.505   4.304   5.509
    6A      H4'  169   3.451   4.240   5.440
    6A      O4'  170   3.415   4.404   5.554
    6A      C1'  171   3.435   4.526   5.478
    6A      H1'  172   3.340   4.557   5.433
    6A       N9  173   3.480   4.648   5.564
    6A       C8  174   3.537   4.649   5.688
    6A       H8  175   3.538   4.559   5.748
    6A       N7  176   3.588   4.763   5.721
    6A       C5  177   3.545   4.846   5.614
    6A       C6  178   3.576   4.976   5.581
    6A       N6  179   3.634   5.054   5.668
    6A      H61  180   3.670   5.145   5.645
    6A      H62  181   3.655   5.006   5.754
    6A       N1  182   3.522   5.027   5.469
    6A       C2  183   3.452   4.947   5.390
    6A       H2  184   3.429   4.992   5.294
    6A       N3  185   3.412   4.820   5.412
    6A       C4  186   3.468   4.773   5.527
    6A      C3'  187   3.611   4.385   5.435
    6A      H3'  188   3.677   4.421   5.514
    6A      C2'  189   3.531   4.499   5.360
    6A      H2'  190   3.594   4.584   5.333
    6A      O2'  191   3.448   4.469   5.250
    6A     HO2'  192   3.390   4.540   5.222
    6A      O3'  193   3.664   4.305   5.341
    7G        P  194   3.815   4.336   5.289
    7G      OP1  195   3.838   4.247   5.177
    7G      OP2  196   3.908   4.334   5.404
    7G      O5'  197   3.818   4.479   5.224
    7G      C5'  198   3.755   4.512   5.098
    7G      H5'  199   3.653   4.473   5.099
    7G     H5''  200   3.807   4.461   5.017
    7G      C4'  201   3.763   4.661   5.082
    7G      H4'  202   3.721   4.690   4.986
    7G      O4'  203   3.698   4.729   5.181
    7G      C1'  204   3.761   4.843   5.208
    7G      H1'  205   3.691   4.926   5.192
    7G       N9  206   3.810   4.858   5.343
    7G       C8  207   3.841   4.757   5.437
    7G       H8  208   3.807   4.656   5.422
    7G       N7  209   3.905   4.795   5.545
    7G       C5  210   3.920   4.937   5.531
    7G       C6  211   3.968   5.042   5.614
    7G       O6  212   4.017   5.027   5.726
    7G       N1  213   3.961   5.165   5.563
    7G       H1  214   4.006   5.238   5.615
    7G       C2  215   3.937   5.182   5.435
    7G       N2  216   3.954   5.304   5.389
    7G      H21  217   3.989   5.381   5.444
    7G      H22  218   3.905   5.327   5.304
    7G       N3  219   3.879   5.096   5.348
    7G       C4  220   3.869   4.974   5.401
    7G      C3'  221   3.907   4.715   5.088
    7G      H3'  222   3.955   4.672   5.176
    7G      C2'  223   3.874   4.859   5.098
    7G      H2'  224   3.968   4.912   5.113
    7G      O2'  225   3.813   4.909   4.982
    7G     HO2'  226   3.881   4.924   4.915
    7G      O3'  227   3.994   4.704   4.975
    8G        P  228   4.150   4.703   4.988
    8G      OP1  229   4.202   4.658   4.853
    8G      OP2  230   4.192   4.621   5.102
    8G      O5'  231   4.203   4.849   5.015
    8G      C5'  232   4.197   4.947   4.913
    8G      H5'  233   4.095   4.958   4.876
    8G     H5''  234   4.275   4.918   4.842
    8G      C4'  235   4.224   5.079   4.981
    8G      H4'  236   4.211   5.165   4.916
    8G      O4'  237   4.138   5.105   5.095
    8G      C1'  238   4.216   5.170   5.195
    8G      H1'  239   4.175   5.266   5.227
    8G       N9  240   4.226   5.078   5.320
    8G       C8  241   4.199   4.942   5.335
    8G       H8  242   4.163   4.883   5.251
    8G       N7  243   4.223   4.891   5.451
    8G       C5  244   4.269   5.001   5.522
    8G       C6  245   4.320   5.010   5.657
    8G       O6  246   4.327   4.923   5.746
    8G       N1  247   4.360   5.134   5.696
    8G       H1  248   4.388   5.155   5.790
    8G       C2  249   4.347   5.243   5.613
    8G       N2  250   4.365   5.368   5.660
    8G      H21  251   4.378   5.377   5.760
    8G      H22  252   4.347   5.446   5.598
    8G       N3  253   4.293   5.241   5.495
    8G       C4  254   4.266   5.115   5.447
    8G      C3'  255   4.370   5.095   5.034
    8G      H3'  256   4.395   4.992   5.062
    8G      C2'  257   4.357   5.196   5.138
    8G      H2'  258   4.438   5.178   5.209
    8G      O2'  259   4.369   5.327   5.089
    8G     HO2'  260   4.403   5.313   5.000
    8G      O3'  261   4.451   5.141   4.927
    9G        P  262   4.571   5.051   4.889
    9G      OP1  263   4.643   5.106   4.773
    9G      OP2  264   4.517   4.916   4.879
    9G      O5'  265   4.666   5.061   5.022
    9G      C5'  266   4.724   5.188   5.053
    9G      H5'  267   4.643   5.259   5.037
    9G     H5''  268   4.808   5.211   4.988
    9G      C4'  269   4.776   5.193   5.198
    9G      H4'  270   4.826   5.288   5.217
    9G      O4'  271   4.667   5.199   5.288
    9G      C1'  272   4.705   5.132   5.404
    9G      H1'  273   4.681   5.190   5.493
    9G       N9  274   4.625   5.002   5.408
    9G       C8  275   4.554   4.938   5.307
    9G       H8  276   4.540   4.975   5.206
    9G       N7  277   4.500   4.821   5.338
    9G       C5  278   4.532   4.812   5.477
    9G       C6  279   4.493   4.715   5.572
    9G       O6  280   4.424   4.611   5.552
    9G       N1  281   4.556   4.726   5.695
    9G       H1  282   4.531   4.675   5.778
    9G       C2  283   4.651   4.819   5.720
    9G       N2  284   4.710   4.815   5.840
    9G      H21  285   4.688   4.741   5.905
    9G      H22  286   4.775   4.889   5.864
    9G       N3  287   4.682   4.916   5.637
    9G       C4  288   4.616   4.912   5.517
    9G      C3'  289   4.878   5.088   5.243
    9G      H3'  290   4.871   4.986   5.205
    9G      C2'  291   4.858   5.103   5.392
    9G      H2'  292   4.887   5.011   5.442
    9G      O2'  293   4.939   5.207   5.449
    9G     HO2'  294   5.010   5.228   5.389
    9G      O3'  295   5.009   5.134   5.215
   10U        P  296   5.130   5.037   5.200
   10U      OP1  297   5.254   5.119   5.190
   10U      OP2  298   5.096   4.948   5.085
   10U      O5'  299   5.133   4.952   5.340
   10U      C5'  300   5.186   5.003   5.458
   10U      H5'  301   5.148   5.103   5.482
   10U     H5''  302   5.293   5.009   5.443
   10U      C4'  303   5.163   4.909   5.573
   10U      H4'  304   5.218   4.937   5.663
   10U      O4'  305   5.025   4.890   5.602
   10U      C1'  306   5.001   4.762   5.658
   10U      H1'  307   4.954   4.752   5.755
   10U       N1  308   4.910   4.681   5.573
   10U       C6  309   4.885   4.711   5.439
   10U       H6  310   4.933   4.796   5.393
   10U       C5  311   4.800   4.633   5.367
   10U       H5  312   4.780   4.659   5.264
   10U       C4  313   4.731   4.520   5.427
   10U       O4  314   4.644   4.457   5.371
   10U       N3  315   4.763   4.501   5.553
   10U       H3  316   4.710   4.432   5.604
   10U       C2  317   4.849   4.570   5.631
   10U       O2  318   4.844   4.546   5.751
   10U      C3'  319   5.210   4.766   5.545
   10U      H3'  320   5.184   4.739   5.442
   10U      C2'  321   5.137   4.688   5.652
   10U      H2'  322   5.125   4.583   5.628
   10U      O2'  323   5.195   4.711   5.783
   10U     HO2'  324   5.289   4.722   5.767
   10U      O3'  325   5.346   4.746   5.560
   11U        P  326   5.436   4.637   5.478
   11U      OP1  327   5.575   4.630   5.527
   11U      OP2  328   5.409   4.662   5.340
   11U      O5'  329   5.371   4.500   5.524
   11U      C5'  330   5.392   4.442   5.651
   11U      H5'  331   5.375   4.522   5.724
   11U     H5''  332   5.494   4.403   5.649
   11U      C4'  333   5.309   4.321   5.678
   11U      H4'  334   5.344   4.292   5.777
   11U      O4'  335   5.164   4.343   5.675
   11U      C1'  336   5.106   4.220   5.630
   11U      H1'  337   5.046   4.188   5.714
   11U       N1  338   5.014   4.231   5.517
   11U       C6  339   5.042   4.322   5.421
   11U       H6  340   5.115   4.398   5.443
   11U       C5  341   4.957   4.330   5.315
   11U       H5  342   4.968   4.413   5.245
   11U       C4  343   4.851   4.232   5.293
   11U       O4  344   4.772   4.243   5.203
   11U       N3  345   4.847   4.130   5.384
   11U       H3  346   4.763   4.074   5.388
   11U       C2  347   4.927   4.122   5.491
   11U       O2  348   4.920   4.026   5.561
   11U      C3'  349   5.333   4.213   5.574
   11U      H3'  350   5.320   4.256   5.475
   11U      C2'  351   5.219   4.121   5.602
   11U      H2'  352   5.196   4.059   5.514
   11U      O2'  353   5.242   4.045   5.718
   11U     HO2'  354   5.336   4.038   5.733
   11U      O3'  355   5.455   4.142   5.582
   12A        P  356   5.526   4.089   5.459
   12A      OP1  357   5.636   4.010   5.505
   12A      OP2  358   5.559   4.197   5.363
   12A      O5'  359   5.417   3.995   5.391
   12A      C5'  360   5.384   3.871   5.462
   12A      H5'  361   5.367   3.893   5.568
   12A     H5''  362   5.470   3.804   5.463
   12A      C4'  363   5.272   3.789   5.392
   12A      H4'  364   5.266   3.690   5.439
   12A      O4'  365   5.148   3.862   5.386
   12A      C1'  366   5.082   3.845   5.259
   12A      H1'  367   4.980   3.807   5.266
   12A       N9  368   5.081   3.960   5.171
   12A       C8  369   5.159   4.070   5.174
   12A       H8  370   5.233   4.076   5.253
   12A       N7  371   5.105   4.168   5.103
   12A       C5  372   5.000   4.112   5.035
   12A       C6  373   4.903   4.158   4.947
   12A       N6  374   4.882   4.277   4.895
   12A      H61  375   4.802   4.291   4.834
   12A      H62  376   4.933   4.357   4.929
   12A       N1  377   4.819   4.071   4.892
   12A       C2  378   4.818   3.944   4.929
   12A       H2  379   4.756   3.880   4.869
   12A       N3  380   4.898   3.885   5.022
   12A       C4  381   4.985   3.981   5.071
   12A      C3'  382   5.296   3.752   5.250
   12A      H3'  383   5.345   3.836   5.201
   12A      C2'  384   5.157   3.734   5.190
   12A      H2'  385   5.148   3.750   5.083
   12A      O2'  386   5.097   3.612   5.223
   12A     HO2'  387   5.167   3.547   5.229
   12A      O3'  388   5.392   3.646   5.228
   13G        P  389   5.462   3.632   5.085
   13G      OP1  390   5.523   3.503   5.074
   13G      OP2  391   5.559   3.744   5.067
   13G      O5'  392   5.358   3.651   4.962
   13G      C5'  393   5.285   3.539   4.917
   13G      H5'  394   5.248   3.480   5.001
   13G     H5''  395   5.358   3.471   4.873
   13G      C4'  396   5.182   3.586   4.803
   13G      H4'  397   5.120   3.501   4.776
   13G      O4'  398   5.109   3.695   4.860
   13G      C1'  399   5.077   3.782   4.761
   13G      H1'  400   4.971   3.803   4.747
   13G       N9  401   5.145   3.911   4.787
   13G       C8  402   5.248   3.946   4.864
   13G       H8  403   5.288   3.867   4.926
   13G       N7  404   5.289   4.067   4.854
   13G       C5  405   5.199   4.125   4.764
   13G       C6  406   5.192   4.255   4.701
   13G       O6  407   5.269   4.349   4.710
   13G       N1  408   5.087   4.270   4.607
   13G       H1  409   5.085   4.359   4.558
   13G       C2  410   5.000   4.166   4.577
   13G       N2  411   4.936   4.173   4.468
   13G      H21  412   4.922   4.268   4.436
   13G      H22  413   4.888   4.089   4.440
   13G       N3  414   5.010   4.043   4.629
   13G       C4  415   5.112   4.028   4.720
   13G      C3'  416   5.255   3.648   4.683
   13G      H3'  417   5.342   3.707   4.711
   13G      C2'  418   5.138   3.726   4.630
   13G      H2'  419   5.177   3.807   4.568
   13G      O2'  420   5.033   3.648   4.575
   13G     HO2'  421   5.068   3.580   4.517
   13G      O3'  422   5.303   3.564   4.587
   14G        P  423   5.437   3.581   4.493
   14G      OP1  424   5.473   3.459   4.420
   14G      OP2  425   5.545   3.637   4.581
   14G      O5'  426   5.400   3.690   4.386
   14G      C5'  427   5.294   3.660   4.289
   14G      H5'  428   5.206   3.605   4.325
   14G     H5''  429   5.330   3.589   4.215
   14G      C4'  430   5.234   3.787   4.221
   14G      H4'  431   5.159   3.750   4.151
   14G      O4'  432   5.186   3.880   4.315
   14G      C1'  433   5.213   4.013   4.265
   14G      H1'  434   5.126   4.078   4.262
   14G       N9  435   5.324   4.072   4.353
   14G       C8  436   5.399   4.018   4.458
   14G       H8  437   5.392   3.913   4.484
   14G       N7  438   5.472   4.107   4.532
   14G       C5  439   5.453   4.218   4.456
   14G       C6  440   5.507   4.357   4.469
   14G       O6  441   5.581   4.395   4.563
   14G       N1  442   5.467   4.444   4.369
   14G       H1  443   5.498   4.539   4.383
   14G       C2  444   5.371   4.414   4.277
   14G       N2  445   5.361   4.506   4.191
   14G      H21  446   5.410   4.594   4.196
   14G      H22  447   5.289   4.488   4.122
   14G       N3  448   5.313   4.297   4.262
   14G       C4  449   5.357   4.200   4.355
   14G      C3'  450   5.339   3.861   4.130
   14G      H3'  451   5.429   3.876   4.190
   14G      C2'  452   5.280   3.997   4.128
   14G      H2'  453   5.357   4.067   4.097
   14G      O2'  454   5.179   4.020   4.033
   14G     HO2'  455   5.184   3.967   3.953
   14G      O3'  456   5.365   3.794   4.010
   15G        P  457   5.520   3.788   3.963
   15G      OP1  458   5.521   3.677   3.860
   15G      OP2  459   5.611   3.774   4.079
   15G      O5'  460   5.561   3.926   3.899
   15G      C5'  461   5.492   3.980   3.781
   15G      H5'  462   5.388   3.949   3.784
   15G     H5''  463   5.538   3.949   3.687
   15G      C4'  464   5.495   4.135   3.778
   15G      H4'  465   5.426   4.164   3.699
   15G      O4'  466   5.469   4.193   3.907
   15G      C1'  467   5.543   4.316   3.929
   15G      H1'  468   5.477   4.403   3.931
   15G       N9  469   5.615   4.293   4.056
   15G       C8  470   5.632   4.178   4.126
   15G       H8  471   5.583   4.084   4.104
   15G       N7  472   5.704   4.192   4.229
   15G       C5  473   5.739   4.325   4.223
   15G       C6  474   5.797   4.409   4.325
   15G       O6  475   5.839   4.387   4.434
   15G       N1  476   5.808   4.540   4.282
   15G       H1  477   5.860   4.593   4.351
   15G       C2  478   5.756   4.592   4.171
   15G       N2  479   5.770   4.719   4.155
   15G      H21  480   5.820   4.760   4.233
   15G      H22  481   5.749   4.769   4.070
   15G       N3  482   5.687   4.514   4.086
   15G       C4  483   5.693   4.383   4.110
   15G      C3'  484   5.642   4.180   3.747
   15G      H3'  485   5.719   4.117   3.793
   15G      C2'  486   5.640   4.322   3.808
   15G      H2'  487   5.737   4.344   3.852
   15G      O2'  488   5.591   4.419   3.715
   15G     HO2'  489   5.630   4.392   3.632
   15G      O3'  490   5.670   4.196   3.609
   16U        P  491   5.815   4.179   3.547
   16U      OP1  492   5.799   4.188   3.397
   16U      OP2  493   5.895   4.065   3.596
   16U      O5'  494   5.898   4.314   3.592
   16U      C5'  495   5.877   4.443   3.536
   16U      H5'  496   5.770   4.465   3.532
   16U     H5''  497   5.935   4.453   3.444
   16U      C4'  498   5.944   4.548   3.624
   16U      H4'  499   5.916   4.640   3.573
   16U      O4'  500   5.903   4.547   3.757
   16U      C1'  501   6.005   4.603   3.834
   16U      H1'  502   5.967   4.701   3.862
   16U       N1  503   6.057   4.525   3.950
   16U       C6  504   6.078   4.391   3.947
   16U       H6  505   6.068   4.342   3.851
   16U       C5  506   6.113   4.317   4.062
   16U       H5  507   6.106   4.209   4.062
   16U       C4  508   6.136   4.388   4.183
   16U       O4  509   6.153   4.336   4.291
   16U       N3  510   6.123   4.523   4.174
   16U       H3  511   6.171   4.577   4.244
   16U       C2  512   6.077   4.595   4.068
   16U       O2  513   6.070   4.714   4.072
   16U      C3'  514   6.094   4.534   3.625
   16U      H3'  515   6.121   4.434   3.658
   16U      C2'  516   6.124   4.632   3.745
   16U      H2'  517   6.218   4.612   3.796
   16U      O2'  518   6.132   4.764   3.709
   16U     HO2'  519   6.201   4.785   3.647
   16U      O3'  520   6.159   4.577   3.511
   17U        P  521   6.314   4.560   3.501
   17U      OP1  522   6.329   4.548   3.356
   17U      OP2  523   6.356   4.459   3.600
   17U      O5'  524   6.362   4.697   3.547
   17U      C5'  525   6.357   4.810   3.458
   17U      H5'  526   6.254   4.823   3.425
   17U     H5''  527   6.421   4.793   3.371
   17U      C4'  528   6.400   4.939   3.533
   17U      H4'  529   6.396   5.027   3.468
   17U      O4'  530   6.313   4.973   3.640
   17U      C1'  531   6.388   5.037   3.745
   17U      H1'  532   6.345   5.137   3.758
   17U       N1  533   6.379   4.962   3.873
   17U       C6  534   6.411   4.829   3.878
   17U       H6  535   6.444   4.775   3.791
   17U       C5  536   6.413   4.758   3.998
   17U       H5  537   6.452   4.658   3.996
   17U       C4  538   6.357   4.813   4.119
   17U       O4  539   6.351   4.762   4.235
   17U       N3  540   6.323   4.945   4.101
   17U       H3  541   6.268   4.989   4.174
   17U       C2  542   6.346   5.028   3.988
   17U       O2  543   6.330   5.149   3.999
   17U      C3'  544   6.541   4.934   3.588
   17U      H3'  545   6.563   4.839   3.637
   17U      C2'  546   6.530   5.041   3.691
   17U      H2'  547   6.604   5.023   3.769
   17U      O2'  548   6.560   5.172   3.642
   17U     HO2'  549   6.647   5.173   3.601
   17U      O3'  550   6.645   4.953   3.488
   18A        P  551   6.797   4.959   3.524
   18A      OP1  552   6.877   4.910   3.411
   18A      OP2  553   6.814   4.895   3.655
   18A      O5'  554   6.816   5.115   3.553
   18A      C5'  555   6.812   5.211   3.449
   18A      H5'  556   6.720   5.210   3.390
   18A     H5''  557   6.893   5.190   3.379
   18A      C4'  558   6.832   5.345   3.508
   18A      H4'  559   6.832   5.417   3.427
   18A      O4'  560   6.727   5.377   3.599
   18A      C1'  561   6.780   5.423   3.726
   18A      H1'  562   6.724   5.509   3.763
   18A       N9  563   6.757   5.323   3.829
   18A       C8  564   6.819   5.210   3.856
   18A       H8  565   6.905   5.170   3.804
   18A       N7  566   6.775   5.144   3.958
   18A       C5  567   6.672   5.232   4.011
   18A       C6  568   6.601   5.236   4.128
   18A       N6  569   6.609   5.147   4.225
   18A      H61  570   6.549   5.166   4.304
   18A      H62  571   6.650   5.056   4.212
   18A       N1  572   6.525   5.336   4.156
   18A       C2  573   6.523   5.437   4.071
   18A       H2  574   6.448   5.514   4.085
   18A       N3  575   6.583   5.449   3.953
   18A       C4  576   6.663   5.340   3.930
   18A      C3'  577   6.970   5.354   3.588
   18A      H3'  578   6.984   5.259   3.639
   18A      C2'  579   6.929   5.448   3.701
   18A      H2'  580   6.985   5.420   3.790
   18A      O2'  581   6.932   5.578   3.657
   18A     HO2'  582   7.016   5.590   3.610
   18A      O3'  583   7.078   5.401   3.504
   19G        P  584   7.226   5.434   3.572
   19G      OP1  585   7.333   5.432   3.472
   19G      OP2  586   7.258   5.360   3.693
   19G      O5'  587   7.223   5.587   3.606
   19G      C5'  588   7.235   5.691   3.507
   19G      H5'  589   7.174   5.658   3.424
   19G     H5''  590   7.336   5.699   3.467
   19G      C4'  591   7.208   5.831   3.566
   19G      H4'  592   7.221   5.902   3.484
   19G      O4'  593   7.076   5.847   3.617
   19G      C1'  594   7.085   5.891   3.752
   19G      H1'  595   7.018   5.974   3.772
   19G       N9  596   7.049   5.784   3.839
   19G       C8  597   7.131   5.684   3.883
   19G       H8  598   7.234   5.675   3.852
   19G       N7  599   7.075   5.603   3.969
   19G       C5  600   6.947   5.656   3.988
   19G       C6  601   6.842   5.615   4.082
   19G       O6  602   6.835   5.524   4.159
   19G       N1  603   6.738   5.708   4.087
   19G       H1  604   6.660   5.694   4.150
   19G       C2  605   6.738   5.816   4.000
   19G       N2  606   6.640   5.901   4.006
   19G      H21  607   6.564   5.888   4.070
   19G      H22  608   6.648   5.988   3.956
   19G       N3  609   6.825   5.845   3.900
   19G       C4  610   6.927   5.765   3.905
   19G      C3'  611   7.307   5.849   3.679
   19G      H3'  612   7.347   5.762   3.732
   19G      C2'  613   7.229   5.939   3.777
   19G      H2'  614   7.262   5.922   3.879
   19G      O2'  615   7.238   6.072   3.743
   19G     HO2'  616   7.334   6.072   3.744
   19G      O3'  617   7.412   5.914   3.615
   20G        P  618   7.563   5.904   3.660
   20G      OP1  619   7.656   5.963   3.563
   20G      OP2  620   7.595   5.764   3.707
   20G      O5'  621   7.551   5.998   3.790
   20G      C5'  622   7.589   6.125   3.778
   20G      H5'  623   7.542   6.173   3.693
   20G     H5''  624   7.697   6.123   3.762
   20G      C4'  625   7.554   6.200   3.906
   20G      H4'  626   7.594   6.301   3.903
   20G      O4'  627   7.408   6.202   3.922
   20G      C1'  628   7.380   6.220   4.061
   20G      H1'  629   7.322   6.309   4.085
   20G       N9  630   7.299   6.098   4.110
   20G       C8  631   7.340   5.967   4.140
   20G       H8  632   7.440   5.926   4.135
   20G       N7  633   7.253   5.888   4.195
   20G       C5  634   7.139   5.973   4.199
   20G       C6  635   7.011   5.947   4.250
   20G       O6  636   6.968   5.836   4.287
   20G       N1  637   6.923   6.050   4.240
   20G       H1  638   6.828   6.028   4.264
   20G       C2  639   6.964   6.175   4.207
   20G       N2  640   6.865   6.261   4.189
   20G      H21  641   6.772   6.229   4.215
   20G      H22  642   6.891   6.348   4.147
   20G       N3  643   7.086   6.213   4.170
   20G       C4  644   7.167   6.101   4.160
   20G      C3'  645   7.608   6.148   4.040
   20G      H3'  646   7.601   6.039   4.035
   20G      C2'  647   7.511   6.215   4.137
   20G      H2'  648   7.507   6.154   4.227
   20G      O2'  649   7.535   6.357   4.172
   20G     HO2'  650   7.624   6.373   4.204
   20G      O3'  651   7.741   6.191   4.055
   21G3       P  652   7.828   6.129   4.164
   21G3     OP1  653   7.971   6.154   4.123
   21G3     OP2  654   7.781   5.987   4.185
   21G3     O5'  655   7.796   6.207   4.289
   21G3     C5'  656   7.869   6.328   4.324
   21G3     H5'  657   7.846   6.399   4.245
   21G3    H5''  658   7.977   6.313   4.330
   21G3     C4'  659   7.807   6.381   4.455
   21G3     H4'  660   7.865   6.469   4.482
   21G3     O4'  661   7.672   6.408   4.420
   21G3     C1'  662   7.581   6.368   4.526
   21G3     H1'  663   7.521   6.453   4.560
   21G3      N9  664   7.502   6.245   4.492
   21G3      C8  665   7.544   6.112   4.485
   21G3      H8  666   7.646   6.078   4.476
   21G3      N7  667   7.446   6.025   4.472
   21G3      C5  668   7.331   6.104   4.481
   21G3      C6  669   7.196   6.064   4.500
   21G3      O6  670   7.147   5.951   4.509
   21G3      N1  671   7.108   6.169   4.525
   21G3      H1  672   7.009   6.156   4.543
   21G3      C2  673   7.145   6.300   4.532
   21G3      N2  674   7.053   6.385   4.554
   21G3     H21  675   6.957   6.361   4.577
   21G3     H22  676   7.091   6.479   4.550
   21G3      N3  677   7.280   6.337   4.527
   21G3      C4  678   7.368   6.240   4.502
   21G3     C3'  679   7.810   6.285   4.574
   21G3     H3'  680   7.806   6.180   4.542
   21G3     C2'  681   7.674   6.325   4.640
   21G3     H2'  682   7.637   6.247   4.707
   21G3     O2'  683   7.698   6.443   4.728
   21G3    HO2'  684   7.780   6.422   4.775
   21G3     O3'  685   7.921   6.294   4.664
   21G3    HO3'  686   7.912   6.222   4.727
   22Cl-    Cl-  687   1.379   5.223   5.095
   23Cl-    Cl-  688   0.868   5.483   4.757
   24Cl-    Cl-  689   9.167   2.339   1.944
   25Cl-    Cl-  690   4.825   2.189   7.067
   26Cl-    Cl-  691   5.537   6.406   6.833
   27Cl-    Cl-  692   0.086   7.815   8.990
   28Cl-    Cl-  693   8.624   2.859   5.503
   29Cl-    Cl-  694   6.892   6.980   7.887
   30Cl-    Cl-  695   9.522   9.516   6.252
   31Cl-    Cl-  696   8.794   9.191   9.432
   32Cl-    Cl-  697   2.795   3.004   2.382
   33Cl-    Cl-  698   2.054   9.394   4.537
   34Cl-    Cl-  699   4.135   7.534   0.839
   35Cl-    Cl-  700   5.013   0.607   2.375
   36Cl-    Cl-  701   5.532   2.952   9.141
   37Cl-    Cl-  702   5.732   4.038   8.702
   38Cl-    Cl-  703   4.545   6.487   2.512
   39Cl-    Cl-  704   1.264   2.363   3.187
   40Cl-    Cl-  705   5.493   2.554   9.450
   41Cl-    Cl-  706   0.160   0.103   7.485
   42Cl-    Cl-  707   4.549   0.114   0.453
   43Cl-    Cl-  708   8.971   9.411   3.810
   44Cl-    Cl-  709   1.708   5.458   7.850
   45Cl-    Cl-  710   6.513   8.788   0.013
   46Cl-    Cl-  711   1.664   4.097   1.974
   47Cl-    Cl-  712   6.547   9.169   9.420
   48Cl-    Cl-  713   0.649   7.789   0.734
   49Cl-    Cl-  714   4.819   5.968   8.042
   50Cl-    Cl-  715   6.133   7.530   0.134
   51Cl-    Cl-  716   7.890   0.392   7.496
   52Cl-    Cl-  717   9.155   8.466   2.181
   53Cl-    Cl-  718   3.996   4.525   3.593
   54Cl-    Cl-  719   6.257   5.821   2.466
   55Cl-    Cl-  720   1.738   4.440   6.041
   56Cl-    Cl-  721   4.015   1.459   4.730
   57Cl-    Cl-  722   4.820   3.646   1.125
   58Cl-    Cl-  723   2.677   0.346   1.369
   59Cl-    Cl-  724   0.186   4.500   5.062
   60Cl-    Cl-  725   0.102   8.455   3.756
   61Cl-    Cl-  726   6.802   5.802   1.509
   62Cl-    Cl-  727   2.514   5.439   8.069
   63Cl-    Cl-  728   0.408   0.472   9.519
   64Cl-    Cl-  729   8.967   7.113   4.036
   65Cl-    Cl-  730   1.209   2.184   5.582
   66Cl-    Cl-  731   7.791   2.929   2.006
   67Cl-    Cl-  732   3.653   7.831   2.871
   68Cl-    Cl-  733   9.698   5.565   1.154
   69Cl-    Cl-  734   3.759   6.955   1.245
   70Cl-    Cl-  735   8.819   2.048   6.219
   71Cl-    Cl-  736   1.009   1.723   7.430
   72Cl-    Cl-  737   2.384   0.531   8.489
   73Cl-    Cl-  738   4.736   4.977   1.396
   74Cl-    Cl-  739   0.186   6.976   7.350
   75Cl-    Cl-  740   4.472   4.059   4.165
   76Cl-    Cl-  741   6.764   2.666   5.482
   77Cl-    Cl-  742   0.135   5.983   7.459
   78Cl-    Cl-  743   1.690   2.105   6.597
   79Cl-    Cl-  744   7.293   6.137   9.516
   80Cl-    Cl-  745   5.544   7.258   8.167
   81Cl-    Cl-  746   3.481   3.455   9.059
   82Cl-    Cl-  747   1.887   7.270   7.300
   83Cl-    Cl-  748   4.926   9.254   5.033
   84Cl-    Cl-  749   5.143   5.690   3.050
   85Cl-    Cl-  750   9.631   6.622   7.686
   86Cl-    Cl-  751   0.853   9.110   7.214
   87Cl-    Cl-  752   8.549   7.225   2.103
   88Cl-    Cl-  753   2.086   2.053   0.384
   89Cl-    Cl-  754   5.488   5.011   5.965
   90Cl-    Cl-  755   5.318   8.240   4.030
   91Cl-    Cl-  756   5.339   8.743   1.624
   92Cl-    Cl-  757   0.682   1.046   3.310
   93Cl-    Cl-  758   9.802   2.363   9.734
   94Cl-    Cl-  759   4.386   9.155   9.191
   95Cl-    Cl-  760   2.709   3.848   7.682
   96Cl-    Cl-  761   6.383   2.792   1.202
   97Cl-    Cl-  762   4.190   4.650   8.204
   98Cl-    Cl-  763   5.992   3.895   7.189
   99Cl-    Cl-  764   4.992   1.530   9.129
  100Cl-    Cl-  765   9.515   0.608   6.026
  101Cl-    Cl-  766   5.052   0.859   6.214
  102Cl-    Cl-  767   1.559   1.555   7.103
  103Cl-    Cl-  768   9.500   4.142   8.956
  104Cl-    Cl-  769   3.074   6.217   0.428
  105Cl-    Cl-  770   2.430   9.482   6.395
  106Cl-    Cl-  771   4.218   9.643   2.498
  107K+      K+  772   7.610   7.254   3.270
  108K+      K+  773   3.373   5.194   5.723
  109K+      K+  774   4.371   4.391   5.389
  110K+      K+  775   5.576   4.114   4.821
  111K+      K+  776   2.716   3.411   5.215
  112K+      K+  777   2.544   5.363   5.584
  113K+      K+  778   7.894   5.870   3.480
  114K+      K+  779   4.909   2.632   5.145
  115K+      K+  780   1.172   1.791   8.185
  116K+      K+  781   6.823   6.672   3.410
  117K+      K+  782   4.660   4.480   5.096
  118K+      K+  783   6.007   2.210   8.973
  119K+      K+  784   9.286   0.211   6.185
  120K+      K+  785   4.761   0.979   9.004
  121K+      K+  786   6.133   5.566   7.183
  122K+      K+  787   5.502   5.924   6.470
  123K+      K+  788   2.939   3.975   7.183
  124K+      K+  789   4.354   5.315   2.211
  125K+      K+  790   6.875   7.888   3.333
  126K+      K+  791   0.910   1.083   7.077
  127K+      K+  792   4.555   4.024   7.177
  128K+      K+  793   5.382   8.886   2.196
  129K+      K+  794   4.706   7.163   1.391
  130K+      K+  795   2.742   2.548   4.955
  131K+      K+  796   5.736   9.116   0.049
  132K+      K+  797   6.408   5.634   2.078
  133K+      K+  798   5.371   6.454   8.390
  134K+      K+  799   1.360   6.657   9.352
  135K+      K+  800   2.894   6.054   9.827
  136K+      K+  801   5.731   9.630   5.957
  137K+      K+  802   1.701   8.390   7.214
  138K+      K+  803   0.319   1.821   6.793
  139K+      K+  804   4.598   8.821   1.705
  140K+      K+  805   5.784   4.330   5.392
  141K+      K+  806   9.269   6.787   9.598
  142K+      K+  807   6.497   9.325   6.714
  143K+      K+  808   9.328   9.596   7.971
  144K+      K+  809   6.337   5.906   7.849
  145K+      K+  810   6.130   7.799   0.670
  146K+      K+  811   3.363   2.817   2.408
  147K+      K+  812   6.074   4.236   8.267
  148K+      K+  813   7.999   5.086   3.237
  149K+      K+  814   5.966   4.164   6.736
  150K+      K+  815   8.878   0.078   0.899
  151K+      K+  816   0.486   3.362   5.107
  152K+      K+  817   7.923   1.043   1.477
  153K+      K+  818   4.241   6.315   2.455
  154K+      K+  819   5.844   1.787   2.808
  155K+      K+  820   4.041   5.553   2.035
  156K+      K+  821   7.342   5.776   4.437
  157K+      K+  822   2.506   7.385   6.897
  158K+      K+  823   7.663   1.627   6.614
  159K+      K+  824   8.815   0.584   7.188
  160K+      K+  825   2.761   0.411   8.951
  161K+      K+  826   1.340   3.624   9.771
  162K+      K+  827   0.709   8.602   4.964
  163K+      K+  828   5.581   3.223   3.891
  164K+      K+  829   9.763   2.282   0.771
  165K+      K+  830   0.524   5.195   6.424
  166K+      K+  831   5.039   6.620   2.616
  167K+      K+  832   0.046   5.678   2.224
  168K+      K+  833   6.074   1.504   8.496
  169K+      K+  834   5.017   5.410   5.640
  170K+      K+  835   1.241   7.956   5.091
  171K+      K+  836   6.506   3.780   4.256
  172K+      K+  837   1.063   8.164   6.482
  173K+      K+  838   1.421   7.465   7.825
  174K+      K+  839   5.176   7.622   0.080
  175K+      K+  840   9.748   6.898   8.203
  176K+      K+  841   5.683   2.334   6.438
  177K+      K+  842   4.135   9.220   7.949
  178K+      K+  843   6.579   3.414   3.941
  179K+      K+  844   3.462   0.793   5.854
  180K+      K+  845   9.401   9.810   5.498
  181K+      K+  846   5.377   5.610   3.520
  182K+      K+  847   1.037   0.111   0.921
  183K+      K+  848   5.443   8.812   4.044
  184K+      K+  849   3.260   3.799   9.806
  185K+      K+  850   6.888   0.962   9.082
  186K+      K+  851   3.449   4.834   4.590
  187K+      K+  852   5.296   6.059   8.151
  188K+      K+  853   0.214   1.487   5.565
  189K+      K+  854   7.727   4.929   4.858
  190K+      K+  855   2.880   7.227   3.521
  191K+      K+  856   1.928   2.100   5.029
  192K+      K+  857   4.676   4.088   4.643
  193K+      K+  858   2.298   5.116   2.774
  194K+      K+  859   1.937   6.721   7.443
  195K+      K+  860   3.119   5.610   1.155
  196K+      K+  861   2.074   5.711   7.903
  197K+      K+  862   0.191   0.044   7.143
  198K+      K+  863   4.166   4.698   5.609
  199K+      K+  864   8.246   8.966   0.913
  200K+      K+  865   0.950   4.100   9.843
  201K+      K+  866   3.523   7.487   0.864
  202K+      K+  867   4.760   0.904   4.471
  203K+      K+  868   9.533   9.483   3.661
  204K+      K+  869   6.140   5.362   1.082
  205K+      K+  870   5.100   2.908   7.795
  206K+      K+  871   0.478   0.201   7.923
  207K+      K+  872   3.278   5.062   8.761
  208K+      K+  873   7.967   7.591   2.248
  209K+      K+  874   2.003   2.639   2.631
  210K+      K+  875   9.207   3.156   9.315
  211K+      K+  876   1.568   9.549   0.616
  212WAT      O  877   2.965   8.603   6.666
  212WAT     H1  878   2.986   8.684   6.721
  212WAT     H2  879   2.927   8.631   6.578
  213WAT      O  880   0.072   9.375   3.932
  213WAT     H1  881   0.093   9.403   4.026
  213WAT     H2  882  -0.020   9.337   3.929
  214WAT      O  883   5.511   2.753   6.200
  214WAT     H1  884   5.420   2.793   6.209
  214WAT     H2  885   5.506   2.672   6.141
  215WAT      O  886   9.490   9.529   5.190
  215WAT     H1  887   9.398   9.525   5.152
  215WAT     H2  888   9.493   9.478   5.276
  216WAT      O  889   3.583   8.267   2.248
  216WAT     H1  890   3.548   8.301   2.161
  216WAT     H2  891   3.665   8.212   2.232
  217WAT      O  892   9.361   6.237   5.724
  217WAT     H1  893   9.360   6.156   5.665
  217WAT     H2  894   9.319   6.314   5.676
  218WAT      O  895   5.072   6.348   9.203
  218WAT     H1  896   5.056   6.406   9.282
  218WAT     H2  897   4.989   6.294   9.184
  219WAT      O  898   8.997   1.065   1.362
  219WAT     H1  899   9.066   1.022   1.420
  219WAT     H2  900   9.018   1.162   1.350
  220WAT      O  901   4.995   1.447   2.156
  220WAT     H1  902   4.921   1.447   2.089
  220WAT     H2  903   5.025   1.541   2.174
  221WAT      O  904   3.514   9.467   4.954
  221WAT     H1  905   3.533   9.557   4.995
  221WAT     H2  906   3.595   9.409   4.961
  222WAT      O  907   6.453   6.814   0.163
  222WAT     H1  908   6.357   6.817   0.134
  222WAT     H2  909   6.501   6.893   0.127
  223WAT      O  910   3.739   7.995   8.798
  223WAT     H1  911   3.815   8.005   8.863
  223WAT     H2  912   3.653   8.014   8.845
  224WAT      O  913   1.296   0.650   4.656
  224WAT     H1  914   1.216   0.684   4.705
  224WAT     H2  915   1.296   0.550   4.659
  225WAT      O  916   7.349   1.123   3.483
  225WAT     H1  917   7.322   1.031   3.453
  225WAT     H2  918   7.406   1.116   3.565
  226WAT      O  919   5.423   1.719   4.591
  226WAT     H1  920   5.380   1.797   4.636
  226WAT     H2  921   5.356   1.675   4.531
  227WAT      O  922   0.261   4.815   6.962
  227WAT     H1  923   0.359   4.804   6.977
  227WAT     H2  924   0.236   4.910   6.978
  228WAT      O  925   5.434   4.476   0.998
  228WAT     H1  926   5.392   4.393   1.034
  228WAT     H2  927   5.507   4.451   0.934
  229WAT      O  928   9.665   7.250   4.867
  229WAT     H1  929   9.732   7.325   4.861
  229WAT     H2  930   9.704   7.174   4.919
  230WAT      O  931   2.779   5.775   7.867
  230WAT     H1  932   2.730   5.773   7.954
  230WAT     H2  933   2.725   5.727   7.797
  231WAT      O  934   3.593   1.380   9.356
  231WAT     H1  935   3.643   1.338   9.432
  231WAT     H2  936   3.654   1.444   9.308
  232WAT      O  937   1.812   7.900   9.812
  232WAT     H1  938   1.715   7.890   9.836
  232WAT     H2  939   1.858   7.955   9.881
  233WAT      O  940   3.870   9.074   9.298
  233WAT     H1  941   3.939   9.081   9.226
  233WAT     H2  942   3.908   9.108   9.384
  234WAT      O  943   1.781   6.154   8.487
  234WAT     H1  944   1.790   6.101   8.403
  234WAT     H2  945   1.784   6.093   8.566
  235WAT      O  946   3.651   3.502   0.775
  235WAT     H1  947   3.618   3.413   0.807
  235WAT     H2  948   3.732   3.528   0.826
  236WAT      O  949   1.953   2.150   2.091
  236WAT     H1  950   1.974   2.246   2.107
  236WAT     H2  951   1.934   2.104   2.178
  237WAT      O  952   5.773   4.388   9.653
  237WAT     H1  953   5.813   4.452   9.588
  237WAT     H2  954   5.673   4.387   9.641
  238WAT      O  955   1.918   6.116   4.242
  238WAT     H1  956   1.849   6.151   4.179
  238WAT     H2  957   1.874   6.057   4.310
  239WAT      O  958   6.447   0.347   7.960
  239WAT     H1  959   6.392   0.429   7.945
  239WAT     H2  960   6.421   0.276   7.894
  240WAT      O  961   4.093   1.868   8.464
  240WAT     H1  962   4.001   1.884   8.428
  240WAT     H2  963   4.093   1.879   8.563
  241WAT      O  964   5.535   7.843   0.800
  241WAT     H1  965   5.599   7.837   0.723
  241WAT     H2  966   5.442   7.848   0.765
  242WAT      O  967   9.531   0.117   0.928
  242WAT     H1  968   9.531   0.138   1.026
  242WAT     H2  969   9.437   0.113   0.895
  243WAT      O  970   6.979   4.606   9.334
  243WAT     H1  971   7.042   4.537   9.369
  243WAT     H2  972   7.030   4.683   9.296
  244WAT      O  973   3.996   0.893   7.088
  244WAT     H1  974   3.949   0.965   7.037
  244WAT     H2  975   4.002   0.811   7.031
  245WAT      O  976   4.785   4.220   3.883
  245WAT     H1  977   4.743   4.134   3.911
  245WAT     H2  978   4.821   4.212   3.790
  246WAT      O  979   9.397   0.226   3.657
  246WAT     H1  980   9.433   0.319   3.646
  246WAT     H2  981   9.472   0.160   3.655
  247WAT      O  982   6.080   1.252   2.845
  247WAT     H1  983   5.991   1.275   2.883
  247WAT     H2  984   6.147   1.323   2.869
  248WAT      O  985   5.210   5.312   4.793
  248WAT     H1  986   5.118   5.273   4.798
  248WAT     H2  987   5.245   5.327   4.885
  249WAT      O  988   6.850   8.160   9.081
  249WAT     H1  989   6.926   8.159   9.016
  249WAT     H2  990   6.837   8.254   9.115
  250WAT      O  991   8.107   9.077   9.191
  250WAT     H1  992   8.197   9.074   9.233
  250WAT     H2  993   8.097   9.161   9.137
  251WAT      O  994   7.477   9.071   4.885
  251WAT     H1  995   7.426   9.051   4.801
  251WAT     H2  996   7.467   8.996   4.950
  252WAT      O  997   6.186   2.661   2.898
  252WAT     H1  998   6.217   2.753   2.919
  252WAT     H2  999   6.096   2.646   2.939
  253WAT      O 1000   5.101   8.740   4.383
  253WAT     H1 1001   5.056   8.826   4.409
  253WAT     H2 1002   5.073   8.716   4.290
  254WAT      O 1003   0.433   6.198   2.965
  254WAT     H1 1004   0.532   6.186   2.971
  254WAT     H2 1005   0.392   6.181   3.055
  255WAT      O 1006   8.410   4.190   3.788
  255WAT     H1 1007   8.432   4.246   3.868
  255WAT     H2 1008   8.313   4.167   3.790
  256WAT      O 1009   1.586   8.517   3.302
  256WAT     H1 1010   1.608   8.514   3.400
  256WAT     H2 1011   1.501   8.467   3.286
  257WAT      O 1012   3.720   5.754   4.978
  257WAT     H1 1013   3.763   5.843   4.992
  257WAT     H2 1014   3.620   5.764   4.982
  258WAT      O 1015   9.861   2.200   6.750
  258WAT     H1 1016   9.762   2.193   6.736
  258WAT     H2 1017   9.883   2.179   6.845
  259WAT      O 1018   7.219   2.864   6.935
  259WAT     H1 1019   7.227   2.853   6.836
  259WAT     H2 1020   7.256   2.952   6.962
  260WAT      O 1021   3.639   6.819   9.665
  260WAT     H1 1022   3.602   6.805   9.757
  260WAT     H2 1023   3.725   6.769   9.656
  261WAT      O 1024   2.131   3.057   0.076
  261WAT     H1 1025   2.042   3.102   0.072
  261WAT     H2 1026   2.142   3.013   0.165
  262WAT      O 1027   7.452   8.171   0.955
  262WAT     H1 1028   7.373   8.135   1.005
  262WAT     H2 1029   7.536   8.142   1.001
  263WAT      O 1030   0.063   5.297   3.161
  263WAT     H1 1031  -0.022   5.319   3.208
  263WAT     H2 1032   0.132   5.271   3.228
  264WAT      O 1033   7.825   1.613   1.637
  264WAT     H1 1034   7.849   1.691   1.695
  264WAT     H2 1035   7.878   1.533   1.666
  265WAT      O 1036   2.497   5.698   6.376
  265WAT     H1 1037   2.529   5.627   6.314
  265WAT     H2 1038   2.512   5.669   6.471
  266WAT      O 1039   3.444   7.475   5.726
  266WAT     H1 1040   3.411   7.383   5.709
  266WAT     H2 1041   3.468   7.519   5.640
  267WAT      O 1042   3.334   5.413   8.129
  267WAT     H1 1043   3.403   5.484   8.113
  267WAT     H2 1044   3.258   5.427   8.066
  268WAT      O 1045   9.384   5.292   4.242
  268WAT     H1 1046   9.445   5.353   4.191
  268WAT     H2 1047   9.424   5.201   4.247
  269WAT      O 1048   5.830   9.398   6.018
  269WAT     H1 1049   5.904   9.331   6.011
  269WAT     H2 1050   5.757   9.360   6.074
  270WAT      O 1051   0.484   5.545   1.266
  270WAT     H1 1052   0.552   5.479   1.235
  270WAT     H2 1053   0.424   5.502   1.334
  271WAT      O 1054   1.031   7.815   1.096
  271WAT     H1 1055   1.016   7.752   1.021
  271WAT     H2 1056   1.083   7.769   1.168
  272WAT      O 1057   8.435   3.509   1.461
  272WAT     H1 1058   8.439   3.559   1.548
  272WAT     H2 1059   8.379   3.427   1.473
  273WAT      O 1060   6.147   1.795   2.322
  273WAT     H1 1061   6.126   1.889   2.293
  273WAT     H2 1062   6.141   1.734   2.243
  274WAT      O 1063   6.905   4.956   8.643
  274WAT     H1 1064   6.829   5.011   8.679
  274WAT     H2 1065   6.989   5.009   8.646
  275WAT      O 1066   7.024   4.075   7.632
  275WAT     H1 1067   6.983   4.134   7.562
  275WAT     H2 1068   7.114   4.044   7.601
  276WAT      O 1069   2.946   8.967   8.212
  276WAT     H1 1070   3.004   8.897   8.253
  276WAT     H2 1071   2.941   9.046   8.273
  277WAT      O 1072   4.319   8.205   2.902
  277WAT     H1 1073   4.297   8.230   2.808
  277WAT     H2 1074   4.410   8.163   2.905
  278WAT      O 1075   6.854   7.808   7.205
  278WAT     H1 1076   6.768   7.759   7.214
  278WAT     H2 1077   6.889   7.832   7.295
  279WAT      O 1078   4.227   5.061   0.937
  279WAT     H1 1079   4.321   5.056   0.970
  279WAT     H2 1080   4.188   4.969   0.933
  280WAT      O 1081   3.849   9.275   4.164
  280WAT     H1 1082   3.902   9.191   4.169
  280WAT     H2 1083   3.896   9.342   4.107
  281WAT      O 1084   0.524   8.318   4.616
  281WAT     H1 1085   0.578   8.289   4.696
  281WAT     H2 1086   0.428   8.326   4.642
  282WAT      O 1087   2.058   8.832   6.635
  282WAT     H1 1088   2.115   8.751   6.622
  282WAT     H2 1089   2.110   8.914   6.612
  283WAT      O 1090   6.742   7.848   0.363
  283WAT     H1 1091   6.669   7.913   0.340
  283WAT     H2 1092   6.815   7.855   0.295
  284WAT      O 1093   9.363   1.603   5.981
  284WAT     H1 1094   9.395   1.513   6.013
  284WAT     H2 1095   9.339   1.659   6.060
  285WAT      O 1096   3.411   1.966   5.101
  285WAT     H1 1097   3.349   1.895   5.067
  285WAT     H2 1098   3.376   2.004   5.186
  286WAT      O 1099   7.022   2.450   9.539
  286WAT     H1 1100   7.063   2.519   9.600
  286WAT     H2 1101   7.003   2.367   9.591
  287WAT      O 1102   5.546   5.560   3.801
  287WAT     H1 1103   5.517   5.592   3.892
  287WAT     H2 1104   5.525   5.463   3.792
  288WAT      O 1105   1.658   2.055   2.930
  288WAT     H1 1106   1.609   2.122   2.985
  288WAT     H2 1107   1.606   1.970   2.927
  289WAT      O 1108   1.542   6.524   7.627
  289WAT     H1 1109   1.551   6.542   7.725
  289WAT     H2 1110   1.453   6.556   7.596
  290WAT      O 1111   5.286   2.593   7.080
  290WAT     H1 1112   5.292   2.499   7.115
  290WAT     H2 1113   5.373   2.640   7.095
  291WAT      O 1114   3.709   2.500   1.887
  291WAT     H1 1115   3.689   2.507   1.985
  291WAT     H2 1116   3.784   2.562   1.865
  292WAT      O 1117   3.501   8.084   0.746
  292WAT     H1 1118   3.508   8.181   0.766
  292WAT     H2 1119   3.513   8.032   0.831
  293WAT      O 1120   7.476   0.848   1.982
  293WAT     H1 1121   7.424   0.766   2.009
  293WAT     H2 1122   7.445   0.878   1.892
  294WAT      O 1123   0.778   2.574   1.908
  294WAT     H1 1124   0.736   2.649   1.960
  294WAT     H2 1125   0.877   2.581   1.914
  295WAT      O 1126   7.457   7.907   6.068
  295WAT     H1 1127   7.471   7.975   5.997
  295WAT     H2 1128   7.511   7.931   6.149
  296WAT      O 1129   2.248   1.300   9.771
  296WAT     H1 1130   2.341   1.305   9.737
  296WAT     H2 1131   2.193   1.374   9.734
  297WAT      O 1132   5.840   9.093   1.255
  297WAT     H1 1133   5.887   9.015   1.297
  297WAT     H2 1134   5.894   9.127   1.178
  298WAT      O 1135   1.645   2.939   6.015
  298WAT     H1 1136   1.651   2.850   6.059
  298WAT     H2 1137   1.663   2.929   5.917
  299WAT      O 1138   7.429   9.468   5.901
  299WAT     H1 1139   7.462   9.375   5.885
  299WAT     H2 1140   7.390   9.504   5.816
  300WAT      O 1141   9.559   9.610   7.323
  300WAT     H1 1142   9.506   9.549   7.382
  300WAT     H2 1143   9.565   9.701   7.365
  301WAT      O 1144   5.963   2.606   7.560
  301WAT     H1 1145   5.998   2.686   7.608
  301WAT     H2 1146   6.033   2.535   7.557
  302WAT      O 1147   4.524   0.766   8.837
  302WAT     H1 1148   4.523   0.865   8.825
  302WAT     H2 1149   4.596   0.740   8.901
  303WAT      O 1150   3.833   2.907   4.019
  303WAT     H1 1151   3.757   2.928   3.957
  303WAT     H2 1152   3.909   2.969   4.001
  304WAT      O 1153   0.223   5.118   2.746
  304WAT     H1 1154   0.148   5.061   2.713
  304WAT     H2 1155   0.188   5.182   2.815
  305WAT      O 1156   4.706   1.699   0.982
  305WAT     H1 1157   4.664   1.783   1.015
  305WAT     H2 1158   4.636   1.629   0.969
  306WAT      O 1159   5.303   1.674   5.226
  306WAT     H1 1160   5.231   1.655   5.158
  306WAT     H2 1161   5.386   1.626   5.200
  307WAT      O 1162   9.194   5.609   8.039
  307WAT     H1 1163   9.150   5.615   7.950
  307WAT     H2 1164   9.174   5.692   8.091
  308WAT      O 1165   0.810   7.968   2.169
  308WAT     H1 1166   0.876   7.895   2.187
  308WAT     H2 1167   0.718   7.930   2.166
  309WAT      O 1168   8.200   5.017   8.708
  309WAT     H1 1169   8.261   5.059   8.641
  309WAT     H2 1170   8.147   4.945   8.664
  310WAT      O 1171   9.651   5.294   6.980
  310WAT     H1 1172   9.666   5.319   7.075
  310WAT     H2 1173   9.558   5.261   6.968
  311WAT      O 1174   0.587   7.832   9.537
  311WAT     H1 1175   0.643   7.762   9.492
  311WAT     H2 1176   0.559   7.901   9.470
  312WAT      O 1177   9.313   6.266   5.041
  312WAT     H1 1178   9.288   6.199   4.971
  312WAT     H2 1179   9.385   6.326   5.005
  313WAT      O 1180   0.941   0.344   0.185
  313WAT     H1 1181   0.939   0.402   0.266
  313WAT     H2 1182   0.971   0.399   0.106
  314WAT      O 1183   7.772   8.906   5.844
  314WAT     H1 1184   7.823   8.854   5.775
  314WAT     H2 1185   7.812   8.891   5.934
  315WAT      O 1186   7.129   1.313   4.608
  315WAT     H1 1187   7.052   1.277   4.556
  315WAT     H2 1188   7.160   1.398   4.567
  316WAT      O 1189   5.656   2.145   8.379
  316WAT     H1 1190   5.745   2.148   8.423
  316WAT     H2 1191   5.601   2.223   8.410
  317WAT      O 1192   6.423   5.980   7.446
  317WAT     H1 1193   6.378   5.953   7.361
  317WAT     H2 1194   6.521   5.959   7.439
  318WAT      O 1195   5.376   7.852   6.231
  318WAT     H1 1196   5.298   7.913   6.245
  318WAT     H2 1197   5.408   7.858   6.137
  319WAT      O 1198   0.171   5.475   7.689
  319WAT     H1 1199   0.250   5.530   7.662
  319WAT     H2 1200   0.089   5.532   7.690
  320WAT      O 1201   0.522   1.304   6.180
  320WAT     H1 1202   0.535   1.243   6.102
  320WAT     H2 1203   0.468   1.257   6.250
  321WAT      O 1204   7.779   3.317   1.881
  321WAT     H1 1205   7.735   3.254   1.817
  321WAT     H2 1206   7.764   3.285   1.975
  322WAT      O 1207   7.882   2.935   1.044
  322WAT     H1 1208   7.809   2.950   1.111
  322WAT     H2 1209   7.872   2.999   0.968
  323WAT      O 1210   0.231   7.559   8.848
  323WAT     H1 1211   0.196   7.618   8.920
  323WAT     H2 1212   0.330   7.554   8.854
  324WAT      O 1213   6.908   2.341   7.252
  324WAT     H1 1214   6.977   2.270   7.267
  324WAT     H2 1215   6.855   2.354   7.336
  325WAT      O 1216   2.357   1.373   7.363
  325WAT     H1 1217   2.299   1.428   7.423
  325WAT     H2 1218   2.376   1.425   7.279
  326WAT      O 1219   7.871   9.152   0.838
  326WAT     H1 1220   7.861   9.122   0.743
  326WAT     H2 1221   7.924   9.237   0.841
  327WAT      O 1222   1.328   1.795   2.421
  327WAT     H1 1223   1.359   1.823   2.331
  327WAT     H2 1224   1.381   1.716   2.452
  328WAT      O 1225   7.783   4.379   7.142
  328WAT     H1 1226   7.817   4.290   7.173
  328WAT     H2 1227   7.728   4.366   7.060
  329WAT      O 1228   4.266   1.367   1.794
  329WAT     H1 1229   4.249   1.292   1.730
  329WAT     H2 1230   4.179   1.403   1.827
  330WAT      O 1231   1.597   0.638   7.794
  330WAT     H1 1232   1.525   0.581   7.833
  330WAT     H2 1233   1.636   0.594   7.713
  331WAT      O 1234   1.140   2.350   6.927
  331WAT     H1 1235   1.236   2.336   6.902
  331WAT     H2 1236   1.107   2.268   6.975
  332WAT      O 1237   5.565   6.821   3.723
  332WAT     H1 1238   5.635   6.891   3.711
  332WAT     H2 1239   5.576   6.778   3.812
  333WAT      O 1240   5.824   7.618   8.846
  333WAT     H1 1241   5.863   7.681   8.913
  333WAT     H2 1242   5.897   7.560   8.809
  334WAT      O 1243   4.672   0.307   0.076
  334WAT     H1 1244   4.588   0.253   0.070
  334WAT     H2 1245   4.671   0.378   0.006
  335WAT      O 1246   3.617   2.100   5.931
  335WAT     H1 1247   3.564   2.183   5.946
  335WAT     H2 1248   3.701   2.123   5.881
  336WAT      O 1249   9.679   6.067   4.613
  336WAT     H1 1250   9.722   6.032   4.529
  336WAT     H2 1251   9.617   6.142   4.590
  337WAT      O 1252   8.639   5.537   6.786
  337WAT     H1 1253   8.704   5.511   6.715
  337WAT     H2 1254   8.571   5.600   6.748
  338WAT      O 1255   0.472   0.002   7.039
  338WAT     H1 1256   0.469   0.078   7.104
  338WAT     H2 1257   0.504   0.035   6.950
  339WAT      O 1258   8.651   0.786   5.445
  339WAT     H1 1259   8.729   0.828   5.398
  339WAT     H2 1260   8.566   0.827   5.411
  340WAT      O 1261   0.715   3.037   3.687
  340WAT     H1 1262   0.709   2.977   3.767
  340WAT     H2 1263   0.727   2.982   3.604
  341WAT      O 1264   8.019   6.861   1.152
  341WAT     H1 1265   7.934   6.859   1.206
  341WAT     H2 1266   7.997   6.842   1.056
  342WAT      O 1267   2.336   4.576   5.207
  342WAT     H1 1268   2.299   4.640   5.275
  342WAT     H2 1269   2.267   4.558   5.138
  343WAT      O 1270   2.598   3.399   0.645
  343WAT     H1 1271   2.695   3.415   0.626
  343WAT     H2 1272   2.563   3.473   0.703
  344WAT      O 1273   3.552   3.801   2.734
  344WAT     H1 1274   3.544   3.772   2.829
  344WAT     H2 1275   3.621   3.874   2.727
  345WAT      O 1276   0.756   9.825   6.654
  345WAT     H1 1277   0.783   9.868   6.568
  345WAT     H2 1278   0.728   9.896   6.719
  346WAT      O 1279   9.615   3.867   7.172
  346WAT     H1 1280   9.644   3.918   7.091
  346WAT     H2 1281   9.561   3.788   7.144
  347WAT      O 1282   4.297   5.684   8.418
  347WAT     H1 1283   4.204   5.670   8.450
  347WAT     H2 1284   4.351   5.731   8.488
  348WAT      O 1285   7.728   8.676   2.343
  348WAT     H1 1286   7.727   8.628   2.255
  348WAT     H2 1287   7.637   8.671   2.384
  349WAT      O 1288   0.763   0.216   7.135
  349WAT     H1 1289   0.841   0.179   7.086
  349WAT     H2 1290   0.793   0.290   7.195
  350WAT      O 1291   2.830   6.514   1.235
  350WAT     H1 1292   2.918   6.514   1.283
  350WAT     H2 1293   2.843   6.549   1.142
  351WAT      O 1294   8.477   1.787   1.063
  351WAT     H1 1295   8.538   1.716   1.029
  351WAT     H2 1296   8.507   1.816   1.154
  352WAT      O 1297   8.419   3.099   9.166
  352WAT     H1 1298   8.465   3.100   9.255
  352WAT     H2 1299   8.414   3.006   9.132
  353WAT      O 1300   7.651   4.676   3.854
  353WAT     H1 1301   7.670   4.615   3.931
  353WAT     H2 1302   7.558   4.660   3.821
  354WAT      O 1303   4.164   7.715   9.870
  354WAT     H1 1304   4.091   7.666   9.917
  354WAT     H2 1305   4.250   7.701   9.920
  355WAT      O 1306   4.671   8.781   5.008
  355WAT     H1 1307   4.578   8.816   5.006
  355WAT     H2 1308   4.735   8.857   4.998
  356WAT      O 1309   4.787   3.211   1.634
  356WAT     H1 1310   4.855   3.224   1.706
  356WAT     H2 1311   4.807   3.127   1.583
  357WAT      O 1312   5.294   0.574   0.508
  357WAT     H1 1313   5.364   0.635   0.471
  357WAT     H2 1314   5.204   0.602   0.474
  358WAT      O 1315   5.419   3.709   6.748
  358WAT     H1 1316   5.470   3.639   6.799
  358WAT     H2 1317   5.324   3.680   6.737
  359WAT      O 1318   9.409   6.521   9.001
  359WAT     H1 1319   9.433   6.613   9.032
  359WAT     H2 1320   9.492   6.465   8.999
  360WAT      O 1321   3.759   7.675   5.555
  360WAT     H1 1322   3.823   7.697   5.482
  360WAT     H2 1323   3.787   7.591   5.601
  361WAT      O 1324   7.837   4.360   4.251
  361WAT     H1 1325   7.814   4.263   4.263
  361WAT     H2 1326   7.850   4.402   4.341
  362WAT      O 1327   0.621   0.944   0.772
  362WAT     H1 1328   0.602   1.035   0.736
  362WAT     H2 1329   0.607   0.876   0.699
  363WAT      O 1330   4.067   4.695   4.635
  363WAT     H1 1331   4.128   4.667   4.710
  363WAT     H2 1332   4.070   4.794   4.626
  364WAT      O 1333   7.461   1.985   5.394
  364WAT     H1 1334   7.510   2.011   5.478
  364WAT     H2 1335   7.509   2.021   5.315
  365WAT      O 1336   5.289   2.678   7.758
  365WAT     H1 1337   5.336   2.592   7.743
  365WAT     H2 1338   5.190   2.661   7.766
  366WAT      O 1339   6.868   7.342   6.899
  366WAT     H1 1340   6.955   7.362   6.945
  366WAT     H2 1341   6.881   7.346   6.800
  367WAT      O 1342   2.300   0.697   6.958
  367WAT     H1 1343   2.261   0.783   6.926
  367WAT     H2 1344   2.227   0.633   6.981
  368WAT      O 1345   6.765   8.294   0.309
  368WAT     H1 1346   6.671   8.321   0.326
  368WAT     H2 1347   6.770   8.195   0.294
  369WAT      O 1348   7.880   6.411   4.950
  369WAT     H1 1349   7.951   6.444   4.888
  369WAT     H2 1350   7.922   6.352   5.019
  370WAT      O 1351   4.445   4.732   7.144
  370WAT     H1 1352   4.516   4.720   7.213
  370WAT     H2 1353   4.486   4.772   7.061
  371WAT      O 1354   8.351   5.064   0.019
  371WAT     H1 1355   8.379   4.969   0.032
  371WAT     H2 1356   8.258   5.077   0.054
  372WAT      O 1357   9.258   7.559   8.815
  372WAT     H1 1358   9.173   7.612   8.805
  372WAT     H2 1359   9.326   7.592   8.750
  373WAT      O 1360   8.070   5.968   7.975
  373WAT     H1 1361   8.070   5.885   8.030
  373WAT     H2 1362   8.153   5.972   7.920
  374WAT      O 1363   7.319   9.563   9.404
  374WAT     H1 1364   7.363   9.644   9.441
  374WAT     H2 1365   7.263   9.519   9.474
  375WAT      O 1366   1.944   1.498   2.143
  375WAT     H1 1367   1.850   1.468   2.128
  375WAT     H2 1368   1.948   1.598   2.139
  376WAT      O 1369   1.762   3.099   4.706
  376WAT     H1 1370   1.827   3.143   4.644
  376WAT     H2 1371   1.740   3.007   4.672
  377WAT      O 1372   4.911   4.938   0.838
  377WAT     H1 1373   4.913   5.037   0.824
  377WAT     H2 1374   4.853   4.916   0.916
  378WAT      O 1375   2.686   4.633   9.483
  378WAT     H1 1376   2.734   4.702   9.428
  378WAT     H2 1377   2.587   4.649   9.476
  379WAT      O 1378   8.435   3.514   2.078
  379WAT     H1 1379   8.357   3.576   2.074
  379WAT     H2 1380   8.434   3.454   1.998
  380WAT      O 1381   5.492   0.346   8.572
  380WAT     H1 1382   5.516   0.427   8.518
  380WAT     H2 1383   5.572   0.316   8.624
  381WAT      O 1384   3.037   6.515   5.309
  381WAT     H1 1385   2.993   6.428   5.287
  381WAT     H2 1386   3.135   6.509   5.288
  382WAT      O 1387   2.729   2.823   4.067
  382WAT     H1 1388   2.759   2.792   4.157
  382WAT     H2 1389   2.791   2.788   3.997
  383WAT      O 1390   5.061   9.358   2.963
  383WAT     H1 1391   4.985   9.360   2.898
  383WAT     H2 1392   5.039   9.296   3.038
  384WAT      O 1393   9.417   3.063   4.625
  384WAT     H1 1394   9.328   3.101   4.601
  384WAT     H2 1395   9.444   3.096   4.715
  385WAT      O 1396   8.454   5.455   2.316
  385WAT     H1 1397   8.358   5.447   2.290
  385WAT     H2 1398   8.512   5.423   2.242
  386WAT      O 1399   5.035   9.279   4.759
  386WAT     H1 1400   4.999   9.265   4.851
  386WAT     H2 1401   4.960   9.284   4.694
  387WAT      O 1402   3.556   0.076   7.693
  387WAT     H1 1403   3.522   0.135   7.620
  387WAT     H2 1404   3.615   0.129   7.754
  388WAT      O 1405   6.169   0.743   0.319
  388WAT     H1 1406   6.145   0.650   0.348
  388WAT     H2 1407   6.222   0.739   0.235
  389WAT      O 1408   8.450   6.102   3.207
  389WAT     H1 1409   8.448   6.117   3.305
  389WAT     H2 1410   8.384   6.031   3.182
  390WAT      O 1411   0.314   4.003   4.619
  390WAT     H1 1412   0.358   3.914   4.609
  390WAT     H2 1413   0.234   4.008   4.560
  391WAT      O 1414   5.559   1.880   0.434
  391WAT     H1 1415   5.551   1.809   0.365
  391WAT     H2 1416   5.615   1.955   0.398
  392WAT      O 1417   0.271   9.384   9.266
  392WAT     H1 1418   0.193   9.442   9.290
  392WAT     H2 1419   0.333   9.376   9.344
  393WAT      O 1420   5.968   0.541   1.211
  393WAT     H1 1421   5.996   0.469   1.275
  393WAT     H2 1422   5.996   0.630   1.246
  394WAT      O 1423   3.854   0.278   3.059
  394WAT     H1 1424   3.911   0.202   3.028
  394WAT     H2 1425   3.911   0.344   3.108
  395WAT      O 1426   8.108   9.124   3.295
  395WAT     H1 1427   8.137   9.208   3.340
  395WAT     H2 1428   8.055   9.146   3.213
  396WAT      O 1429   2.822   6.588   2.726
  396WAT     H1 1430   2.827   6.684   2.755
  396WAT     H2 1431   2.831   6.584   2.626
  397WAT      O 1432   9.561   2.609   9.268
  397WAT     H1 1433   9.634   2.633   9.332
  397WAT     H2 1434   9.601   2.589   9.178
  398WAT      O 1435   1.790   7.048   3.542
  398WAT     H1 1436   1.799   7.146   3.560
  398WAT     H2 1437   1.695   7.020   3.554
  399WAT      O 1438   5.658   4.401   4.816
  399WAT     H1 1439   5.581   4.444   4.863
  399WAT     H2 1440   5.641   4.401   4.718
  400WAT      O 1441   2.198   4.300   0.941
  400WAT     H1 1442   2.105   4.323   0.911
  400WAT     H2 1443   2.242   4.381   0.979
  401WAT      O 1444   3.437   8.438   2.092
  401WAT     H1 1445   3.498   8.500   2.142
  401WAT     H2 1446   3.343   8.450   2.125
  402WAT      O 1447   1.486   1.806   7.261
  402WAT     H1 1448   1.571   1.855   7.239
  402WAT     H2 1449   1.490   1.715   7.220
  403WAT      O 1450   6.485   6.957   8.069
  403WAT     H1 1451   6.550   6.898   8.118
  403WAT     H2 1452   6.519   7.050   8.067
  404WAT      O 1453   3.146   3.094   9.734
  404WAT     H1 1454   3.117   3.163   9.667
  404WAT     H2 1455   3.069   3.035   9.757
  405WAT      O 1456   4.290   0.859   7.137
  405WAT     H1 1457   4.203   0.812   7.121
  405WAT     H2 1458   4.300   0.934   7.072
  406WAT      O 1459   3.675   6.994   7.291
  406WAT     H1 1460   3.646   6.916   7.236
  406WAT     H2 1461   3.764   7.026   7.260
  407WAT      O 1462   0.769   3.617   8.834
  407WAT     H1 1463   0.766   3.521   8.862
  407WAT     H2 1464   0.679   3.658   8.848
  408WAT      O 1465   0.611   8.187   7.685
  408WAT     H1 1466   0.698   8.235   7.685
  408WAT     H2 1467   0.543   8.241   7.735
  409WAT      O 1468   5.081   5.680   8.377
  409WAT     H1 1469   5.045   5.694   8.469
  409WAT     H2 1470   5.132   5.595   8.374
  410WAT      O 1471   8.557   9.026   4.186
  410WAT     H1 1472   8.510   9.038   4.099
  410WAT     H2 1473   8.648   9.068   4.180
  411WAT      O 1474   6.825   9.678   6.294
  411WAT     H1 1475   6.894   9.703   6.363
  411WAT     H2 1476   6.846   9.725   6.208
  412WAT      O 1477   4.174   7.886   6.534
  412WAT     H1 1478   4.208   7.934   6.615
  412WAT     H2 1479   4.138   7.953   6.469
  413WAT      O 1480   1.348   5.875   4.583
  413WAT     H1 1481   1.387   5.930   4.657
  413WAT     H2 1482   1.314   5.789   4.621
  414WAT      O 1483   9.673   0.412   1.251
  414WAT     H1 1484   9.737   0.483   1.221
  414WAT     H2 1485   9.711   0.322   1.231
  415WAT      O 1486   9.853   2.739   0.170
  415WAT     H1 1487   9.772   2.779   0.129
  415WAT     H2 1488   9.835   2.644   0.195
  416WAT      O 1489   4.058   5.665   8.555
  416WAT     H1 1490   4.027   5.571   8.540
  416WAT     H2 1491   4.013   5.702   8.636
  417WAT      O 1492   6.713   0.464   8.847
  417WAT     H1 1493   6.767   0.419   8.918
  417WAT     H2 1494   6.774   0.518   8.788
  418WAT      O 1495   8.768   6.631   5.249
  418WAT     H1 1496   8.837   6.696   5.282
  418WAT     H2 1497   8.763   6.553   5.310
  419WAT      O 1498   5.398   0.290   9.326
  419WAT     H1 1499   5.432   0.234   9.251
  419WAT     H2 1500   5.298   0.287   9.328
  420WAT      O 1501   9.598   3.499   3.723
  420WAT     H1 1502   9.698   3.498   3.727
  420WAT     H2 1503   9.561   3.447   3.799
  421WAT      O 1504   1.472   8.211   3.977
  421WAT     H1 1505   1.432   8.156   4.051
  421WAT     H2 1506   1.413   8.206   3.897
  422WAT      O 1507   5.280   7.951   8.847
  422WAT     H1 1508   5.359   7.984   8.796
  422WAT     H2 1509   5.264   7.854   8.825
  423WAT      O 1510   3.811   6.375   0.756
  423WAT     H1 1511   3.800   6.452   0.819
  423WAT     H2 1512   3.881   6.396   0.689
  424WAT      O 1513   6.403   5.577   6.055
  424WAT     H1 1514   6.472   5.574   6.128
  424WAT     H2 1515   6.447   5.561   5.967
  425WAT      O 1516   2.588   4.726   4.794
  425WAT     H1 1517   2.508   4.733   4.853
  425WAT     H2 1518   2.667   4.696   4.848
  426WAT      O 1519   9.521   2.899   6.517
  426WAT     H1 1520   9.588   2.969   6.544
  426WAT     H2 1521   9.470   2.931   6.437
  427WAT      O 1522   3.004   8.587   4.440
  427WAT     H1 1523   3.026   8.533   4.521
  427WAT     H2 1524   2.961   8.673   4.467
  428WAT      O 1525   3.494   4.463   2.254
  428WAT     H1 1526   3.591   4.446   2.235
  428WAT     H2 1527   3.457   4.526   2.186
  429WAT      O 1528   4.040   9.053   4.531
  429WAT     H1 1529   4.129   9.050   4.484
  429WAT     H2 1530   4.047   9.114   4.610
  430WAT      O 1531   4.019   0.556   7.291
  430WAT     H1 1532   3.924   0.585   7.296
  430WAT     H2 1533   4.058   0.552   7.384
  431WAT      O 1534   2.368   9.637   6.012
  431WAT     H1 1535   2.460   9.623   6.048
  431WAT     H2 1536   2.340   9.557   5.959
  432WAT      O 1537   9.473   0.935   2.916
  432WAT     H1 1538   9.458   1.019   2.968
  432WAT     H2 1539   9.457   0.856   2.974
  433WAT      O 1540   0.891   1.417   7.048
  433WAT     H1 1541   0.973   1.472   7.034
  433WAT     H2 1542   0.832   1.460   7.117
  434WAT      O 1543   6.704   1.108   9.450
  434WAT     H1 1544   6.726   1.096   9.353
  434WAT     H2 1545   6.726   1.024   9.500
  435WAT      O 1546   1.762   1.028   3.203
  435WAT     H1 1547   1.783   1.006   3.298
  435WAT     H2 1548   1.714   0.950   3.161
  436WAT      O 1549   2.069   9.582   7.271
  436WAT     H1 1550   2.027   9.669   7.246
  436WAT     H2 1551   2.062   9.569   7.370
  437WAT      O 1552   3.420   8.260   2.461
  437WAT     H1 1553   3.490   8.272   2.390
  437WAT     H2 1554   3.337   8.308   2.435
  438WAT      O 1555   3.368   1.407   4.143
  438WAT     H1 1556   3.377   1.473   4.068
  438WAT     H2 1557   3.273   1.406   4.174
  439WAT      O 1558   8.172   4.591   2.695
  439WAT     H1 1559   8.262   4.595   2.652
  439WAT     H2 1560   8.172   4.646   2.779
  440WAT      O 1561   3.430   8.048   4.649
  440WAT     H1 1562   3.487   8.014   4.574
  440WAT     H2 1563   3.408   8.144   4.634
  441WAT      O 1564   7.751   6.249   8.848
  441WAT     H1 1565   7.653   6.262   8.860
  441WAT     H2 1566   7.776   6.156   8.875
  442WAT      O 1567   2.253   9.172   0.929
  442WAT     H1 1568   2.311   9.099   0.895
  442WAT     H2 1569   2.170   9.178   0.873
  443WAT      O 1570   1.917   2.249   3.527
  443WAT     H1 1571   1.995   2.264   3.467
  443WAT     H2 1572   1.837   2.224   3.473
  444WAT      O 1573   2.784   3.957   3.815
  444WAT     H1 1574   2.835   3.881   3.857
  444WAT     H2 1575   2.805   3.962   3.718
  445WAT      O 1576   7.840   3.420   7.850
  445WAT     H1 1577   7.783   3.486   7.899
  445WAT     H2 1578   7.829   3.330   7.891
  446WAT      O 1579   5.099   1.228   9.871
  446WAT     H1 1580   5.038   1.293   9.916
  446WAT     H2 1581   5.046   1.175   9.804
  447WAT      O 1582   2.790   7.569   5.823
  447WAT     H1 1583   2.797   7.470   5.812
  447WAT     H2 1584   2.814   7.613   5.736
  448WAT      O 1585   5.836   4.725   2.694
  448WAT     H1 1586   5.786   4.719   2.781
  448WAT     H2 1587   5.933   4.737   2.712
  449WAT      O 1588   3.198   3.512   8.950
  449WAT     H1 1589   3.293   3.490   8.973
  449WAT     H2 1590   3.174   3.601   8.988
  450WAT      O 1591   1.116   1.583   6.991
  450WAT     H1 1592   1.087   1.668   7.035
  450WAT     H2 1593   1.103   1.590   6.893
  451WAT      O 1594   6.160   5.240   9.211
  451WAT     H1 1595   6.163   5.281   9.302
  451WAT     H2 1596   6.123   5.147   9.218
  452WAT      O 1597   5.848   9.021   8.179
  452WAT     H1 1598   5.912   9.058   8.111
  452WAT     H2 1599   5.784   8.959   8.133
  453WAT      O 1600   3.270   4.422   7.811
  453WAT     H1 1601   3.200   4.445   7.743
  453WAT     H2 1602   3.360   4.449   7.775
  454WAT      O 1603   8.951   9.639   8.919
  454WAT     H1 1604   9.034   9.649   8.974
  454WAT     H2 1605   8.918   9.545   8.926
  455WAT      O 1606   4.313   3.223   1.145
  455WAT     H1 1607   4.389   3.160   1.162
  455WAT     H2 1608   4.303   3.238   1.047
  456WAT      O 1609   1.166   7.989   6.154
  456WAT     H1 1610   1.142   7.916   6.218
  456WAT     H2 1611   1.154   8.078   6.199
  457WAT      O 1612   3.621   7.464   0.032
  457WAT     H1 1613   3.660   7.516  -0.044
  457WAT     H2 1614   3.537   7.509   0.063
  458WAT      O 1615   7.358   7.867   0.851
  458WAT     H1 1616   7.440   7.813   0.868
  458WAT     H2 1617   7.331   7.859   0.755
  459WAT      O 1618   3.552   9.556   4.142
  459WAT     H1 1619   3.575   9.460   4.154
  459WAT     H2 1620   3.560   9.580   4.045
  460WAT      O 1621   6.502   8.951   6.265
  460WAT     H1 1622   6.487   8.889   6.188
  460WAT     H2 1623   6.576   8.917   6.322
  461WAT      O 1624   3.324   8.313   3.555
  461WAT     H1 1625   3.368   8.226   3.578
  461WAT     H2 1626   3.384   8.366   3.495
  462WAT      O 1627   9.110   5.866   7.052
  462WAT     H1 1628   9.141   5.958   7.074
  462WAT     H2 1629   9.030   5.843   7.108
  463WAT      O 1630   9.047   8.696   3.169
  463WAT     H1 1631   9.071   8.627   3.100
  463WAT     H2 1632   8.964   8.744   3.140
  464WAT      O 1633   8.741   2.824   7.348
  464WAT     H1 1634   8.761   2.729   7.371
  464WAT     H2 1635   8.826   2.871   7.324
  465WAT      O 1636   7.232   7.882   1.740
  465WAT     H1 1637   7.281   7.944   1.679
  465WAT     H2 1638   7.134   7.894   1.727
  466WAT      O 1639   0.626   1.428   9.615
  466WAT     H1 1640   0.712   1.447   9.566
  466WAT     H2 1641   0.556   1.401   9.550
  467WAT      O 1642   2.754   3.585   2.005
  467WAT     H1 1643   2.660   3.561   1.982
  467WAT     H2 1644   2.762   3.684   2.014
  468WAT      O 1645   1.609   5.934   0.660
  468WAT     H1 1646   1.537   5.864   0.659
  468WAT     H2 1647   1.576   6.016   0.707
  469WAT      O 1648   8.966   6.850   5.200
  469WAT     H1 1649   9.044   6.793   5.226
  469WAT     H2 1650   8.981   6.884   5.107
  470WAT      O 1651   0.544   0.128   6.815
  470WAT     H1 1652   0.497   0.129   6.726
  470WAT     H2 1653   0.624   0.188   6.811
  471WAT      O 1654   6.812   4.124   0.569
  471WAT     H1 1655   6.732   4.140   0.628
  471WAT     H2 1656   6.786   4.064   0.494
  472WAT      O 1657   1.478   0.615   0.863
  472WAT     H1 1658   1.518   0.685   0.804
  472WAT     H2 1659   1.541   0.595   0.938
  473WAT      O 1660   1.526   0.243   4.183
  473WAT     H1 1661   1.445   0.188   4.202
  473WAT     H2 1662   1.521   0.330   4.232
  474WAT      O 1663   1.863   5.804   0.789
  474WAT     H1 1664   1.902   5.733   0.730
  474WAT     H2 1665   1.771   5.826   0.758
  475WAT      O 1666   0.765   0.885   4.457
  475WAT     H1 1667   0.699   0.902   4.530
  475WAT     H2 1668   0.718   0.851   4.376
  476WAT      O 1669   4.178   4.840   7.069
  476WAT     H1 1670   4.168   4.796   6.980
  476WAT     H2 1671   4.256   4.799   7.117
  477WAT      O 1672   8.828   2.759   8.395
  477WAT     H1 1673   8.804   2.852   8.364
  477WAT     H2 1674   8.745   2.709   8.417
  478WAT      O 1675   4.842   2.080   2.340
  478WAT     H1 1676   4.767   2.132   2.299
  478WAT     H2 1677   4.809   1.991   2.370
  479WAT      O 1678   6.385   0.486   9.696
  479WAT     H1 1679   6.453   0.531   9.639
  479WAT     H2 1680   6.370   0.393   9.663
  480WAT      O 1681   0.625   3.343   1.121
  480WAT     H1 1682   0.724   3.338   1.126
  480WAT     H2 1683   0.598   3.384   1.033
  481WAT      O 1684   7.408   3.946   9.682
  481WAT     H1 1685   7.324   3.903   9.652
  481WAT     H2 1686   7.447   4.000   9.607
  482WAT      O 1687   4.347   8.097   7.295
  482WAT     H1 1688   4.301   8.145   7.369
  482WAT     H2 1689   4.308   8.126   7.207
  483WAT      O 1690   0.153   6.338   8.826
  483WAT     H1 1691   0.180   6.328   8.922
  483WAT     H2 1692   0.096   6.420   8.816
  484WAT      O 1693   7.804   2.458   7.010
  484WAT     H1 1694   7.739   2.408   6.953
  484WAT     H2 1695   7.755   2.525   7.066
  485WAT      O 1696   6.816   7.688   0.857
  485WAT     H1 1697   6.844   7.677   0.761
  485WAT     H2 1698   6.783   7.600   0.892
  486WAT      O 1699   5.935   1.620   5.308
  486WAT     H1 1700   5.921   1.526   5.274
  486WAT     H2 1701   5.848   1.656   5.341
  487WAT      O 1702   5.006   9.739   9.116
  487WAT     H1 1703   5.001   9.701   9.024
  487WAT     H2 1704   4.975   9.670   9.182
  488WAT      O 1705   3.597   2.786   4.432
  488WAT     H1 1706   3.659   2.806   4.356
  488WAT     H2 1707   3.506   2.766   4.396
  489WAT      O 1708   9.283   2.993   9.090
  489WAT     H1 1709   9.205   2.969   9.033
  489WAT     H2 1710   9.368   2.979   9.038
  490WAT      O 1711   8.143   7.119   4.335
  490WAT     H1 1712   8.237   7.099   4.363
  490WAT     H2 1713   8.131   7.097   4.239
  491WAT      O 1714   7.050   8.541   7.554
  491WAT     H1 1715   6.953   8.564   7.545
  491WAT     H2 1716   7.075   8.474   7.483
  492WAT      O 1717   1.903   9.521   4.280
  492WAT     H1 1718   1.973   9.523   4.209
  492WAT     H2 1719   1.944   9.490   4.366
  493WAT      O 1720   1.896   6.438   3.225
  493WAT     H1 1721   1.891   6.538   3.220
  493WAT     H2 1722   1.939   6.411   3.311
  494WAT      O 1723   1.371   4.734   1.556
  494WAT     H1 1724   1.357   4.754   1.654
  494WAT     H2 1725   1.449   4.672   1.545
  495WAT      O 1726   7.219   4.266   0.704
  495WAT     H1 1727   7.303   4.240   0.752
  495WAT     H2 1728   7.242   4.295   0.611
  496WAT      O 1729   3.142   3.702   1.782
  496WAT     H1 1730   3.112   3.624   1.836
  496WAT     H2 1731   3.227   3.679   1.735
  497WAT      O 1732   5.801   3.572   2.988
  497WAT     H1 1733   5.788   3.612   3.078
  497WAT     H2 1734   5.726   3.509   2.968
  498WAT      O 1735   9.837   8.452   1.986
  498WAT     H1 1736   9.893   8.385   2.034
  498WAT     H2 1737   9.742   8.447   2.019
  499WAT      O 1738   6.020   4.048   0.015
  499WAT     H1 1739   5.979   4.138   0.006
  499WAT     H2 1740   5.979   4.000   0.093
  500WAT      O 1741   6.237   1.465   8.285
  500WAT     H1 1742   6.180   1.492   8.207
  500WAT     H2 1743   6.320   1.520   8.285
  501WAT      O 1744   6.737   7.530   8.983
  501WAT     H1 1745   6.672   7.553   8.911
  501WAT     H2 1746   6.715   7.440   9.020
  502WAT      O 1747   9.787   3.745   9.017
  502WAT     H1 1748   9.825   3.712   8.931
  502WAT     H2 1749   9.693   3.778   9.000
  503WAT      O 1750   7.970   5.078   3.654
  503WAT     H1 1751   7.893   5.047   3.709
  503WAT     H2 1752   7.936   5.113   3.567
  504WAT      O 1753   3.304   5.024   7.706
  504WAT     H1 1754   3.381   4.976   7.748
  504WAT     H2 1755   3.219   4.991   7.748
  505WAT      O 1756   1.271   7.584   5.590
  505WAT     H1 1757   1.174   7.600   5.568
  505WAT     H2 1758   1.307   7.664   5.638
  506WAT      O 1759   0.455   6.663   8.661
  506WAT     H1 1760   0.380   6.725   8.685
  506WAT     H2 1761   0.439   6.574   8.704
  507WAT      O 1762   5.025   7.389   3.449
  507WAT     H1 1763   5.051   7.459   3.516
  507WAT     H2 1764   4.929   7.400   3.425
  508WAT      O 1765   3.614   0.266   3.199
  508WAT     H1 1766   3.599   0.332   3.271
  508WAT     H2 1767   3.693   0.294   3.143
  509WAT      O 1768   7.281   1.228   2.638
  509WAT     H1 1769   7.189   1.253   2.608
  509WAT     H2 1770   7.277   1.181   2.726
  510WAT      O 1771   5.582   7.000   2.350
  510WAT     H1 1772   5.570   7.063   2.274
  510WAT     H2 1773   5.532   7.033   2.429
  511WAT      O 1774   4.539   8.405   0.180
  511WAT     H1 1775   4.563   8.416   0.276
  511WAT     H2 1776   4.620   8.418   0.123
  512WAT      O 1777   9.567   1.356   5.718
  512WAT     H1 1778   9.595   1.444   5.754
  512WAT     H2 1779   9.575   1.286   5.790
  513WAT      O 1780   6.896   3.477   5.002
  513WAT     H1 1781   6.833   3.403   5.025
  513WAT     H2 1782   6.852   3.565   5.021
  514WAT      O 1783   1.273   0.121   4.276
  514WAT     H1 1784   1.260   0.022   4.268
  514WAT     H2 1785   1.259   0.149   4.371
  515WAT      O 1786   5.043   6.271   5.911
  515WAT     H1 1787   5.027   6.279   6.009
  515WAT     H2 1788   5.137   6.299   5.890
  516WAT      O 1789   5.377   2.236   4.393
  516WAT     H1 1790   5.352   2.316   4.339
  516WAT     H2 1791   5.450   2.186   4.346
  517WAT      O 1792   6.144   2.084   2.488
  517WAT     H1 1793   6.240   2.110   2.474
  517WAT     H2 1794   6.105   2.056   2.401
  518WAT      O 1795   9.519   6.493   3.590
  518WAT     H1 1796   9.503   6.507   3.688
  518WAT     H2 1797   9.572   6.570   3.554
  519WAT      O 1798   9.889   9.546   8.008
  519WAT     H1 1799   9.793   9.523   7.995
  519WAT     H2 1800   9.932   9.477   8.067
  520WAT      O 1801   7.109   1.609   5.327
  520WAT     H1 1802   7.197   1.641   5.292
  520WAT     H2 1803   7.078   1.531   5.272
  521WAT      O 1804   5.872   8.844   5.369
  521WAT     H1 1805   5.896   8.764   5.315
  521WAT     H2 1806   5.798   8.894   5.323
  522WAT      O 1807   2.207   5.951   7.790
  522WAT     H1 1808   2.307   5.958   7.793
  522WAT     H2 1809   2.177   5.946   7.695
  523WAT      O 1810   1.783   3.632   6.180
  523WAT     H1 1811   1.688   3.628   6.150
  523WAT     H2 1812   1.803   3.722   6.217
  524WAT      O 1813   3.177   6.587   3.813
  524WAT     H1 1814   3.221   6.498   3.819
  524WAT     H2 1815   3.123   6.592   3.729
  525WAT      O 1816   7.069   9.582   2.754
  525WAT     H1 1817   6.988   9.556   2.805
  525WAT     H2 1818   7.143   9.517   2.772
  526WAT      O 1819   3.383   9.548   7.213
  526WAT     H1 1820   3.480   9.539   7.189
  526WAT     H2 1821   3.373   9.553   7.312
  527WAT      O 1822   4.699   5.091   1.827
  527WAT     H1 1823   4.632   5.061   1.895
  527WAT     H2 1824   4.656   5.154   1.763
  528WAT      O 1825   7.076   5.335   9.084
  528WAT     H1 1826   6.984   5.323   9.122
  528WAT     H2 1827   7.141   5.350   9.158
  529WAT      O 1828   6.526   1.607   1.868
  529WAT     H1 1829   6.625   1.622   1.872
  529WAT     H2 1830   6.492   1.632   1.778
  530WAT      O 1831   6.699   8.275   6.351
  530WAT     H1 1832   6.658   8.345   6.409
  530WAT     H2 1833   6.627   8.216   6.314
  531WAT      O 1834   3.776   4.605   9.248
  531WAT     H1 1835   3.693   4.557   9.277
  531WAT     H2 1836   3.855   4.545   9.260
  532WAT      O 1837   0.081   9.350   8.716
  532WAT     H1 1838   0.177   9.331   8.736
  532WAT     H2 1839   0.074   9.405   8.632
  533WAT      O 1840   0.338   2.615   3.858
  533WAT     H1 1841   0.304   2.691   3.803
  533WAT     H2 1842   0.419   2.576   3.815
  534WAT      O 1843   2.023   6.026   8.297
  534WAT     H1 1844   2.080   5.957   8.252
  534WAT     H2 1845   1.932   6.027   8.253
  535WAT      O 1846   1.740   0.759   9.382
  535WAT     H1 1847   1.665   0.818   9.351
  535WAT     H2 1848   1.786   0.720   9.302
  536WAT      O 1849   2.395   7.196   6.368
  536WAT     H1 1850   2.458   7.257   6.417
  536WAT     H2 1851   2.414   7.101   6.392
  537WAT      O 1852   0.834   5.053   0.294
  537WAT     H1 1853   0.836   5.040   0.393
  537WAT     H2 1854   0.915   5.010   0.253
  538WAT      O 1855   3.697   2.579   8.547
  538WAT     H1 1856   3.763   2.553   8.617
  538WAT     H2 1857   3.627   2.639   8.587
  539WAT      O 1858   7.524   3.182   8.167
  539WAT     H1 1859   7.452   3.191   8.236
  539WAT     H2 1860   7.484   3.164   8.078
  540WAT      O 1861   7.985   8.482   6.668
  540WAT     H1 1862   8.037   8.435   6.596
  540WAT     H2 1863   7.918   8.543   6.625
  541WAT      O 1864   4.757   1.694   9.197
  541WAT     H1 1865   4.751   1.712   9.295
  541WAT     H2 1866   4.837   1.636   9.178
  542WAT      O 1867   8.304   1.036   6.991
  542WAT     H1 1868   8.205   1.031   7.006
  542WAT     H2 1869   8.337   1.125   7.021
  543WAT      O 1870   0.143   2.763   3.021
  543WAT     H1 1871   0.153   2.757   3.120
  543WAT     H2 1872   0.227   2.797   2.980
  544WAT      O 1873   8.706   5.500   3.661
  544WAT     H1 1874   8.650   5.553   3.724
  544WAT     H2 1875   8.723   5.554   3.578
  545WAT      O 1876   6.433   7.445   6.427
  545WAT     H1 1877   6.350   7.394   6.407
  545WAT     H2 1878   6.410   7.529   6.477
  546WAT      O 1879   5.142   3.835   6.439
  546WAT     H1 1880   5.198   3.914   6.415
  546WAT     H2 1881   5.060   3.835   6.382
  547WAT      O 1882   3.020   9.520   5.981
  547WAT     H1 1883   2.969   9.575   6.047
  547WAT     H2 1884   2.957   9.480   5.915
  548WAT      O 1885   5.204   0.628   1.069
  548WAT     H1 1886   5.106   0.638   1.086
  548WAT     H2 1887   5.220   0.554   1.003
  549WAT      O 1888   2.518   2.702   3.143
  549WAT     H1 1889   2.456   2.779   3.131
  549WAT     H2 1890   2.595   2.710   3.079
  550WAT      O 1891   8.617   3.422   6.486
  550WAT     H1 1892   8.665   3.337   6.508
  550WAT     H2 1893   8.618   3.482   6.566
  551WAT      O 1894   4.005   3.320   7.162
  551WAT     H1 1895   3.990   3.381   7.084
  551WAT     H2 1896   4.018   3.227   7.130
  552WAT      O 1897   3.232   5.190   5.363
  552WAT     H1 1898   3.179   5.116   5.323
  552WAT     H2 1899   3.179   5.235   5.435
  553WAT      O 1900   1.174   0.713   5.171
  553WAT     H1 1901   1.137   0.805   5.164
  553WAT     H2 1902   1.187   0.689   5.267
  554WAT      O 1903   5.801   9.273   8.032
  554WAT     H1 1904   5.713   9.252   8.076
  554WAT     H2 1905   5.820   9.370   8.040
  555WAT      O 1906   7.420   0.364   6.573
  555WAT     H1 1907   7.480   0.332   6.500
  555WAT     H2 1908   7.417   0.296   6.646
  556WAT      O 1909   0.439   7.920   9.044
  556WAT     H1 1910   0.365   7.926   9.112
  556WAT     H2 1911   0.400   7.894   8.956
  557WAT      O 1912   4.114   8.559   6.577
  557WAT     H1 1913   4.191   8.498   6.562
  557WAT     H2 1914   4.128   8.644   6.527
  558WAT      O 1915   3.659   5.150   9.478
  558WAT     H1 1916   3.629   5.055   9.481
  558WAT     H2 1917   3.677   5.183   9.571
  559WAT      O 1918   1.399   5.137   2.140
  559WAT     H1 1919   1.319   5.196   2.147
  559WAT     H2 1920   1.465   5.179   2.077
  560WAT      O 1921   9.863   3.684   7.839
  560WAT     H1 1922   9.924   3.608   7.861
  560WAT     H2 1923   9.826   3.672   7.747
  561WAT      O 1924   0.868   6.841   7.681
  561WAT     H1 1925   0.820   6.817   7.766
  561WAT     H2 1926   0.839   6.932   7.651
  562WAT      O 1927   5.056   2.859   6.529
  562WAT     H1 1928   5.043   2.910   6.613
  562WAT     H2 1929   5.039   2.919   6.450
  563WAT      O 1930   0.468   3.576   3.982
  563WAT     H1 1931   0.487   3.606   4.075
  563WAT     H2 1932   0.511   3.488   3.965
  564WAT      O 1933   0.921   3.527   6.627
  564WAT     H1 1934   0.925   3.551   6.724
  564WAT     H2 1935   0.830   3.492   6.605
  565WAT      O 1936   5.549   9.116   7.511
  565WAT     H1 1937   5.530   9.205   7.553
  565WAT     H2 1938   5.630   9.076   7.554
  566WAT      O 1939   0.503   8.941   8.847
  566WAT     H1 1940   0.495   8.912   8.942
  566WAT     H2 1941   0.584   8.999   8.836
  567WAT      O 1942   5.766   4.647   5.161
  567WAT     H1 1943   5.675   4.679   5.137
  567WAT     H2 1944   5.777   4.645   5.260
  568WAT      O 1945   2.919   2.933   6.464
  568WAT     H1 1946   2.880   2.843   6.483
  568WAT     H2 1947   2.913   2.990   6.546
  569WAT      O 1948   6.675   7.394   0.857
  569WAT     H1 1949   6.705   7.299   0.867
  569WAT     H2 1950   6.588   7.407   0.904
  570WAT      O 1951   9.436   8.586   4.271
  570WAT     H1 1952   9.431   8.535   4.357
  570WAT     H2 1953   9.410   8.682   4.287
  571WAT      O 1954   8.239   1.904   5.309
  571WAT     H1 1955   8.218   1.862   5.397
  571WAT     H2 1956   8.154   1.916   5.257
  572WAT      O 1957   4.344   1.174   5.632
  572WAT     H1 1958   4.283   1.143   5.559
  572WAT     H2 1959   4.408   1.242   5.596
  573WAT      O 1960   0.992   3.664   0.271
  573WAT     H1 1961   1.081   3.709   0.273
  573WAT     H2 1962   0.932   3.705   0.339
  574WAT      O 1963   5.719   7.906   2.524
  574WAT     H1 1964   5.809   7.864   2.514
  574WAT     H2 1965   5.710   7.983   2.462
  575WAT      O 1966   9.339   6.336   3.460
  575WAT     H1 1967   9.248   6.354   3.497
  575WAT     H2 1968   9.406   6.392   3.509
  576WAT      O 1969   8.821   8.784   7.754
  576WAT     H1 1970   8.875   8.868   7.755
  576WAT     H2 1971   8.789   8.765   7.661
  577WAT      O 1972   6.870   8.102   4.880
  577WAT     H1 1973   6.773   8.125   4.875
  577WAT     H2 1974   6.925   8.186   4.875
  578WAT      O 1975   9.250   8.599   9.338
  578WAT     H1 1976   9.293   8.575   9.250
  578WAT     H2 1977   9.239   8.698   9.344
  579WAT      O 1978   0.154   8.061   0.914
  579WAT     H1 1979   0.127   7.973   0.952
  579WAT     H2 1980   0.247   8.054   0.878
  580WAT      O 1981   0.070   4.048   4.497
  580WAT     H1 1982   0.049   4.145   4.498
  580WAT     H2 1983   0.011   4.002   4.431
  581WAT      O 1984   4.432   1.638   9.692
  581WAT     H1 1985   4.476   1.566   9.746
  581WAT     H2 1986   4.337   1.650   9.723
  582WAT      O 1987   1.317   1.218   3.079
  582WAT     H1 1988   1.391   1.285   3.081
  582WAT     H2 1989   1.331   1.151   3.152
  583WAT      O 1990   5.299   4.366   7.592
  583WAT     H1 1991   5.274   4.462   7.580
  583WAT     H2 1992   5.216   4.313   7.610
  584WAT      O 1993   5.763   0.961   5.171
  584WAT     H1 1994   5.676   0.930   5.131
  584WAT     H2 1995   5.784   1.052   5.139
  585WAT      O 1996   5.493   5.903   1.415
  585WAT     H1 1997   5.527   5.856   1.497
  585WAT     H2 1998   5.484   5.837   1.341
  586WAT      O 1999   0.022   6.040   4.150
  586WAT     H1 2000   0.061   6.103   4.083
  586WAT     H2 2001   0.048   5.946   4.125
  587WAT      O 2002   4.224   3.035   8.137
  587WAT     H1 2003   4.266   3.042   8.046
  587WAT     H2 2004   4.130   3.068   8.133
  588WAT      O 2005   7.052   2.210   9.146
  588WAT     H1 2006   7.147   2.231   9.167
  588WAT     H2 2007   7.040   2.111   9.140
  589WAT      O 2008   9.080   3.625   1.777
  589WAT     H1 2009   9.083   3.600   1.873
  589WAT     H2 2010   9.163   3.592   1.731
  590WAT      O 2011   4.322   9.571   7.167
  590WAT     H1 2012   4.256   9.637   7.130
  590WAT     H2 2013   4.330   9.586   7.266
  591WAT      O 2014   8.371   2.360   9.226
  591WAT     H1 2015   8.353   2.449   9.268
  591WAT     H2 2016   8.383   2.291   9.297
  592WAT      O 2017   8.044   4.686   1.775
  592WAT     H1 2018   8.032   4.756   1.846
  592WAT     H2 2019   8.075   4.601   1.817
  593WAT      O 2020   6.000   8.425   0.868
  593WAT     H1 2021   6.027   8.483   0.791
  593WAT     H2 2022   6.079   8.372   0.899
  594WAT      O 2023   5.143   3.188   7.853
  594WAT     H1 2024   5.131   3.241   7.936
  594WAT     H2 2025   5.208   3.235   7.793
  595WAT      O 2026   9.130   7.558   9.843
  595WAT     H1 2027   9.151   7.543   9.939
  595WAT     H2 2028   9.036   7.589   9.834
  596WAT      O 2029   0.536   3.108   1.803
  596WAT     H1 2030   0.583   3.171   1.741
  596WAT     H2 2031   0.599   3.078   1.874
  597WAT      O 2032   8.557   4.892   9.406
  597WAT     H1 2033   8.603   4.820   9.458
  597WAT     H2 2034   8.464   4.904   9.441
  598WAT      O 2035   8.099   2.698   1.374
  598WAT     H1 2036   8.141   2.742   1.454
  598WAT     H2 2037   8.106   2.759   1.295
  599WAT      O 2038   3.086   4.390   2.228
  599WAT     H1 2039   3.132   4.373   2.315
  599WAT     H2 2040   2.992   4.355   2.233
  600WAT      O 2041   6.072   6.840   4.480
  600WAT     H1 2042   6.065   6.753   4.431
  600WAT     H2 2043   5.984   6.864   4.519
  601WAT      O 2044   4.278   4.931   0.159
  601WAT     H1 2045   4.182   4.954   0.146
  601WAT     H2 2046   4.331   4.964   0.081
  602WAT      O 2047   1.734   1.473   9.475
  602WAT     H1 2048   1.774   1.559   9.444
  602WAT     H2 2049   1.802   1.400   9.469
  603WAT      O 2050   7.515   5.042   0.594
  603WAT     H1 2051   7.572   5.066   0.515
  603WAT     H2 2052   7.574   5.010   0.668
  604WAT      O 2053   1.785   3.387   1.607
  604WAT     H1 2054   1.749   3.476   1.635
  604WAT     H2 2055   1.768   3.373   1.509
  605WAT      O 2056   1.484   4.128   9.733
  605WAT     H1 2057   1.562   4.156   9.676
  605WAT     H2 2058   1.518   4.081   9.814
  606WAT      O 2059   3.244   1.799   4.954
  606WAT     H1 2060   3.289   1.709   4.950
  606WAT     H2 2061   3.152   1.787   4.992
  607WAT      O 2062   4.838   3.148   4.962
  607WAT     H1 2063   4.922   3.180   4.919
  607WAT     H2 2064   4.800   3.220   5.019
  608WAT      O 2065   8.287   7.053   3.889
  608WAT     H1 2066   8.232   7.103   3.822
  608WAT     H2 2067   8.362   7.007   3.842
  609WAT      O 2068   6.963   6.134   0.914
  609WAT     H1 2069   6.990   6.141   1.010
  609WAT     H2 2070   6.865   6.114   0.909
  610WAT      O 2071   8.786   6.490   7.225
  610WAT     H1 2072   8.793   6.588   7.245
  610WAT     H2 2073   8.726   6.475   7.146
  611WAT      O 2074   8.557   0.861   4.313
  611WAT     H1 2075   8.580   0.789   4.247
  611WAT     H2 2076   8.493   0.925   4.270
  612WAT      O 2077   7.271   2.384   5.573
  612WAT     H1 2078   7.288   2.332   5.656
  612WAT     H2 2079   7.197   2.449   5.589
  613WAT      O 2080   9.628   3.495   3.449
  613WAT     H1 2081   9.606   3.532   3.539
  613WAT     H2 2082   9.712   3.441   3.454
  614WAT      O 2083   0.627   3.175   2.474
  614WAT     H1 2084   0.689   3.216   2.541
  614WAT     H2 2085   0.676   3.106   2.421
  615WAT      O 2086   3.085   7.145   6.645
  615WAT     H1 2087   3.144   7.224   6.627
  615WAT     H2 2088   3.059   7.145   6.742
  616WAT      O 2089   0.642   5.427   7.118
  616WAT     H1 2090   0.553   5.390   7.145
  616WAT     H2 2091   0.631   5.481   7.034
  617WAT      O 2092   6.096   2.925   3.447
  617WAT     H1 2093   6.122   3.021   3.456
  617WAT     H2 2094   6.145   2.871   3.516
  618WAT      O 2095   5.726   2.596   7.692
  618WAT     H1 2096   5.802   2.599   7.626
  618WAT     H2 2097   5.690   2.503   7.697
  619WAT      O 2098   2.565   5.484   1.258
  619WAT     H1 2099   2.571   5.583   1.246
  619WAT     H2 2100   2.468   5.457   1.259
  620WAT      O 2101   7.335   7.247   3.459
  620WAT     H1 2102   7.381   7.252   3.547
  620WAT     H2 2103   7.321   7.151   3.434
  621WAT      O 2104   2.559   6.485   2.681
  621WAT     H1 2105   2.634   6.535   2.724
  621WAT     H2 2106   2.492   6.550   2.645
  622WAT      O 2107   1.750   9.417   4.573
  622WAT     H1 2108   1.696   9.362   4.509
  622WAT     H2 2109   1.846   9.414   4.546
  623WAT      O 2110   5.072   1.231   5.769
  623WAT     H1 2111   5.163   1.266   5.744
  623WAT     H2 2112   5.082   1.145   5.818
  624WAT      O 2113   3.152   6.935   7.290
  624WAT     H1 2114   3.186   7.029   7.285
  624WAT     H2 2115   3.201   6.878   7.224
  625WAT      O 2116   1.449   0.424   6.672
  625WAT     H1 2117   1.501   0.405   6.590
  625WAT     H2 2118   1.511   0.451   6.746
  626WAT      O 2119   5.462   5.267   5.324
  626WAT     H1 2120   5.511   5.277   5.238
  626WAT     H2 2121   5.409   5.182   5.324
  627WAT      O 2122   8.853   1.329   8.021
  627WAT     H1 2123   8.795   1.410   8.025
  627WAT     H2 2124   8.917   1.337   7.944
  628WAT      O 2125   5.548   0.977   1.807
  628WAT     H1 2126   5.615   1.024   1.865
  628WAT     H2 2127   5.492   1.044   1.758
  629WAT      O 2128   3.832   1.968   6.130
  629WAT     H1 2129   3.821   2.021   6.214
  629WAT     H2 2130   3.821   2.028   6.051
  630WAT      O 2131   2.086   1.813   4.071
  630WAT     H1 2132   2.016   1.760   4.118
  630WAT     H2 2133   2.044   1.865   3.996
  631WAT      O 2134   8.256   5.647   6.625
  631WAT     H1 2135   8.300   5.614   6.542
  631WAT     H2 2136   8.237   5.570   6.685
  632WAT      O 2137   7.009   5.452   7.913
  632WAT     H1 2138   7.060   5.533   7.942
  632WAT     H2 2139   6.938   5.432   7.980
  633WAT      O 2140   7.411   3.709   4.792
  633WAT     H1 2141   7.370   3.666   4.872
  633WAT     H2 2142   7.474   3.781   4.820
  634WAT      O 2143   5.967   5.302   6.435
  634WAT     H1 2144   6.011   5.277   6.349
  634WAT     H2 2145   5.883   5.353   6.416
  635WAT      O 2146   0.739   7.325   2.642
  635WAT     H1 2147   0.738   7.247   2.705
  635WAT     H2 2148   0.745   7.409   2.695
  636WAT      O 2149   5.682   7.602   0.402
  636WAT     H1 2150   5.624   7.521   0.401
  636WAT     H2 2151   5.777   7.575   0.384
  637WAT      O 2152   5.489   1.680   0.823
  637WAT     H1 2153   5.476   1.651   0.917
  637WAT     H2 2154   5.411   1.736   0.794
  638WAT      O 2155   0.963   7.815   9.424
  638WAT     H1 2156   0.899   7.739   9.423
  638WAT     H2 2157   1.047   7.789   9.375
  639WAT      O 2158   1.683   1.517   5.808
  639WAT     H1 2159   1.660   1.602   5.762
  639WAT     H2 2160   1.698   1.535   5.905
  640WAT      O 2161   0.073   1.159   9.628
  640WAT     H1 2162   0.096   1.253   9.653
  640WAT     H2 2163  -0.001   1.160   9.560
  641WAT      O 2164   3.441   7.890   9.846
  641WAT     H1 2165   3.520   7.937   9.884
  641WAT     H2 2166   3.455   7.876   9.748
  642WAT      O 2167   1.482   8.486   7.503
  642WAT     H1 2168   1.386   8.461   7.509
  642WAT     H2 2169   1.538   8.404   7.495
  643WAT      O 2170   1.030   8.259   9.411
  643WAT     H1 2171   1.046   8.239   9.508
  643WAT     H2 2172   0.968   8.190   9.373
  644WAT      O 2173   2.591   7.353   0.989
  644WAT     H1 2174   2.635   7.440   1.014
  644WAT     H2 2175   2.501   7.349   1.032
  645WAT      O 2176   4.277   9.189   2.850
  645WAT     H1 2177   4.225   9.263   2.809
  645WAT     H2 2178   4.226   9.103   2.842
  646WAT      O 2179   0.890   0.680   9.038
  646WAT     H1 2180   0.982   0.718   9.039
  646WAT     H2 2181   0.890   0.590   9.083
  647WAT      O 2182   0.806   3.726   5.257
  647WAT     H1 2183   0.787   3.782   5.338
  647WAT     H2 2184   0.903   3.702   5.255
  648WAT      O 2185   5.992   3.370   3.021
  648WAT     H1 2186   6.014   3.367   3.119
  648WAT     H2 2187   5.914   3.431   3.006
  649WAT      O 2188   9.833   2.575   1.746
  649WAT     H1 2189   9.733   2.573   1.750
  649WAT     H2 2190   9.862   2.626   1.665
  650WAT      O 2191   7.455   1.204   4.424
  650WAT     H1 2192   7.401   1.148   4.361
  650WAT     H2 2193   7.476   1.292   4.380
  651WAT      O 2194   0.733   8.619   7.319
  651WAT     H1 2195   0.729   8.533   7.369
  651WAT     H2 2196   0.823   8.629   7.277
  652WAT      O 2197   0.025   8.892   4.744
  652WAT     H1 2198   0.016   8.933   4.835
  652WAT     H2 2199  -0.009   8.798   4.746
  653WAT      O 2200   7.547   7.485   2.559
  653WAT     H1 2201   7.629   7.465   2.506
  653WAT     H2 2202   7.493   7.402   2.569
  654WAT      O 2203   8.226   5.528   6.071
  654WAT     H1 2204   8.207   5.618   6.032
  654WAT     H2 2205   8.325   5.513   6.074
  655WAT      O 2206   8.108   4.470   0.285
  655WAT     H1 2207   8.183   4.456   0.350
  655WAT     H2 2208   8.031   4.514   0.330
  656WAT      O 2209   4.874   7.180   7.994
  656WAT     H1 2210   4.964   7.137   7.996
  656WAT     H2 2211   4.855   7.213   7.902
  657WAT      O 2212   6.304   9.242   7.511
  657WAT     H1 2213   6.269   9.192   7.591
  657WAT     H2 2214   6.280   9.193   7.428
  658WAT      O 2215   7.939   4.974   0.069
  658WAT     H1 2216   7.989   5.042   0.123
  658WAT     H2 2217   7.935   5.004  -0.026
  659WAT      O 2218   5.282   1.011   6.058
  659WAT     H1 2219   5.210   0.947   6.085
  659WAT     H2 2220   5.272   1.096   6.109
  660WAT      O 2221   5.803   2.620   4.977
  660WAT     H1 2222   5.821   2.718   4.981
  660WAT     H2 2223   5.716   2.600   5.022
  661WAT      O 2224   9.118   6.601   9.765
  661WAT     H1 2225   9.099   6.513   9.722
  661WAT     H2 2226   9.033   6.641   9.800
  662WAT      O 2227   0.137   2.870   2.073
  662WAT     H1 2228   0.140   2.884   1.973
  662WAT     H2 2229   0.147   2.773   2.093
  663WAT      O 2230   2.169   1.822   7.405
  663WAT     H1 2231   2.231   1.750   7.437
  663WAT     H2 2232   2.075   1.788   7.409
  664WAT      O 2233   1.246   6.564   6.981
  664WAT     H1 2234   1.159   6.568   7.030
  664WAT     H2 2235   1.246   6.485   6.920
  665WAT      O 2236   4.690   7.102   8.162
  665WAT     H1 2237   4.601   7.127   8.125
  665WAT     H2 2238   4.762   7.123   8.096
  666WAT      O 2239   3.145   5.782   6.390
  666WAT     H1 2240   3.117   5.873   6.359
  666WAT     H2 2241   3.208   5.742   6.323
  667WAT      O 2242   5.020   6.251   1.995
  667WAT     H1 2243   5.004   6.344   2.030
  667WAT     H2 2244   5.117   6.239   1.978
  668WAT      O 2245   3.217   5.429   3.839
  668WAT     H1 2246   3.169   5.344   3.816
  668WAT     H2 2247   3.280   5.411   3.914
  669WAT      O 2248   2.158   7.308   3.459
  669WAT     H1 2249   2.242   7.339   3.415
  669WAT     H2 2250   2.158   7.208   3.464
  670WAT      O 2251   3.606   4.288   9.723
  670WAT     H1 2252   3.690   4.239   9.700
  670WAT     H2 2253   3.571   4.255   9.812
  671WAT      O 2254   8.304   5.724   2.155
  671WAT     H1 2255   8.297   5.628   2.183
  671WAT     H2 2256   8.395   5.759   2.177
  672WAT      O 2257   2.204   0.947   8.057
  672WAT     H1 2258   2.134   0.895   8.008
  672WAT     H2 2259   2.250   0.887   8.122
  673WAT      O 2260   5.172   7.337   3.926
  673WAT     H1 2261   5.242   7.315   3.859
  673WAT     H2 2262   5.141   7.431   3.911
  674WAT      O 2263   4.687   9.548   6.430
  674WAT     H1 2264   4.768   9.600   6.457
  674WAT     H2 2265   4.666   9.480   6.500
  675WAT      O 2266   8.930   2.188   7.192
  675WAT     H1 2267   8.954   2.123   7.265
  675WAT     H2 2268   8.924   2.280   7.230
  676WAT      O 2269   2.483   7.156   0.406
  676WAT     H1 2270   2.455   7.151   0.502
  676WAT     H2 2271   2.415   7.209   0.355
  677WAT      O 2272   3.288   7.953   9.431
  677WAT     H1 2273   3.313   8.028   9.492
  677WAT     H2 2274   3.222   7.985   9.364
  678WAT      O 2275   7.937   7.708   9.408
  678WAT     H1 2276   7.988   7.653   9.475
  678WAT     H2 2277   7.855   7.746   9.451
  679WAT      O 2278   2.248   7.917   4.931
  679WAT     H1 2279   2.255   7.839   4.993
  679WAT     H2 2280   2.176   7.900   4.864
  680WAT      O 2281   9.619   4.894   8.258
  680WAT     H1 2282   9.552   4.876   8.331
  680WAT     H2 2283   9.624   4.993   8.242
  681WAT      O 2284   3.771   7.026   3.565
  681WAT     H1 2285   3.747   7.077   3.483
  681WAT     H2 2286   3.849   6.967   3.546
  682WAT      O 2287   5.211   3.023   2.328
  682WAT     H1 2288   5.165   2.937   2.306
  682WAT     H2 2289   5.215   3.080   2.246
  683WAT      O 2290   8.194   2.180   7.653
  683WAT     H1 2291   8.270   2.116   7.664
  683WAT     H2 2292   8.122   2.137   7.598
  684WAT      O 2293   4.354   5.545   2.785
  684WAT     H1 2294   4.297   5.479   2.737
  684WAT     H2 2295   4.357   5.523   2.883
  685WAT      O 2296   0.549   7.372   9.867
  685WAT     H1 2297   0.630   7.315   9.853
  685WAT     H2 2298   0.484   7.323   9.924
  686WAT      O 2299   6.114   8.998   5.371
  686WAT     H1 2300   6.093   9.094   5.354
  686WAT     H2 2301   6.030   8.944   5.361
  687WAT      O 2302   1.713   3.055   2.174
  687WAT     H1 2303   1.773   3.064   2.095
  687WAT     H2 2304   1.668   3.143   2.192
  688WAT      O 2305   4.464   4.328   1.009
  688WAT     H1 2306   4.560   4.349   1.031
  688WAT     H2 2307   4.412   4.316   1.094
  689WAT      O 2308   6.397   6.391   5.733
  689WAT     H1 2309   6.307   6.428   5.755
  689WAT     H2 2310   6.467   6.441   5.783
  690WAT      O 2311   7.058   5.076   4.315
  690WAT     H1 2312   7.038   5.015   4.237
  690WAT     H2 2313   6.982   5.139   4.328
  691WAT      O 2314   0.866   7.900   8.466
  691WAT     H1 2315   0.840   7.992   8.496
  691WAT     H2 2316   0.960   7.882   8.493
  692WAT      O 2317   2.695   2.515   3.608
  692WAT     H1 2318   2.650   2.522   3.519
  692WAT     H2 2319   2.697   2.605   3.651
  693WAT      O 2320   3.680   0.035   3.980
  693WAT     H1 2321   3.652   0.077   4.067
  693WAT     H2 2322   3.778   0.021   3.980
  694WAT      O 2323   3.529   1.692   2.565
  694WAT     H1 2324   3.505   1.739   2.650
  694WAT     H2 2325   3.450   1.641   2.532
  695WAT      O 2326   5.395   7.229   0.627
  695WAT     H1 2327   5.382   7.162   0.555
  695WAT     H2 2328   5.484   7.273   0.617
  696WAT      O 2329   3.259   0.825   6.927
  696WAT     H1 2330   3.190   0.776   6.981
  696WAT     H2 2331   3.303   0.894   6.985
  697WAT      O 2332   0.866   8.047   9.310
  697WAT     H1 2333   0.895   7.973   9.371
  697WAT     H2 2334   0.905   8.033   9.220
  698WAT      O 2335   2.514   1.896   5.983
  698WAT     H1 2336   2.497   1.994   5.996
  698WAT     H2 2337   2.457   1.844   6.047
  699WAT      O 2338   4.223   6.273   7.306
  699WAT     H1 2339   4.153   6.332   7.345
  699WAT     H2 2340   4.215   6.181   7.344
  700WAT      O 2341   9.685   0.869   9.412
  700WAT     H1 2342   9.694   0.904   9.319
  700WAT     H2 2343   9.762   0.811   9.435
  701WAT      O 2344   8.772   5.513   4.619
  701WAT     H1 2345   8.855   5.508   4.565
  701WAT     H2 2346   8.699   5.555   4.565
  702WAT      O 2347   3.493   2.759   3.058
  702WAT     H1 2348   3.402   2.795   3.079
  702WAT     H2 2349   3.487   2.662   3.036
  703WAT      O 2350   9.444   1.067   1.016
  703WAT     H1 2351   9.463   1.115   0.930
  703WAT     H2 2352   9.430   0.970   0.997
  704WAT      O 2353   3.078   2.488   1.483
  704WAT     H1 2354   3.147   2.547   1.439
  704WAT     H2 2355   3.123   2.407   1.521
  705WAT      O 2356   6.293   6.780   5.302
  705WAT     H1 2357   6.286   6.684   5.326
  705WAT     H2 2358   6.225   6.833   5.353
  706WAT      O 2359   2.637   5.917   9.207
  706WAT     H1 2360   2.604   6.009   9.188
  706WAT     H2 2361   2.618   5.858   9.129
  707WAT      O 2362   5.474   2.598   3.138
  707WAT     H1 2363   5.556   2.554   3.174
  707WAT     H2 2364   5.394   2.541   3.156
  708WAT      O 2365   1.422   4.307   0.505
  708WAT     H1 2366   1.434   4.279   0.409
  708WAT     H2 2367   1.483   4.384   0.524
  709WAT      O 2368   9.696   1.522   3.571
  709WAT     H1 2369   9.619   1.459   3.565
  709WAT     H2 2370   9.666   1.609   3.610
  710WAT      O 2371   2.333   2.707   8.637
  710WAT     H1 2372   2.255   2.662   8.679
  710WAT     H2 2373   2.302   2.777   8.573
  711WAT      O 2374   7.621   2.526   3.871
  711WAT     H1 2375   7.626   2.445   3.812
  711WAT     H2 2376   7.700   2.585   3.853
  712WAT      O 2377   7.446   1.145   6.294
  712WAT     H1 2378   7.347   1.153   6.312
  712WAT     H2 2379   7.464   1.061   6.243
  713WAT      O 2380   5.881   1.014   2.211
  713WAT     H1 2381   5.884   1.105   2.170
  713WAT     H2 2382   5.882   1.021   2.310
  714WAT      O 2383   4.777   8.458   7.394
  714WAT     H1 2384   4.712   8.499   7.457
  714WAT     H2 2385   4.740   8.464   7.301
  715WAT      O 2386   8.590   2.907   4.506
  715WAT     H1 2387   8.626   2.961   4.582
  715WAT     H2 2388   8.539   2.829   4.542
  716WAT      O 2389   8.440   4.437   9.311
  716WAT     H1 2390   8.537   4.457   9.295
  716WAT     H2 2391   8.411   4.477   9.398
  717WAT      O 2392   5.314   2.705   4.382
  717WAT     H1 2393   5.347   2.720   4.475
  717WAT     H2 2394   5.357   2.623   4.344
  718WAT      O 2395   8.452   0.317   4.664
  718WAT     H1 2396   8.512   0.396   4.660
  718WAT     H2 2397   8.435   0.282   4.572
  719WAT      O 2398   4.386   5.768   8.697
  719WAT     H1 2399   4.470   5.713   8.700
  719WAT     H2 2400   4.403   5.853   8.648
  720WAT      O 2401   0.163   4.894   4.944
  720WAT     H1 2402   0.220   4.955   4.888
  720WAT     H2 2403   0.067   4.917   4.931
  721WAT      O 2404   6.325   6.445   9.314
  721WAT     H1 2405   6.247   6.382   9.325
  721WAT     H2 2406   6.410   6.394   9.327
  722WAT      O 2407   8.488   9.276   6.368
  722WAT     H1 2408   8.549   9.201   6.393
  722WAT     H2 2409   8.521   9.361   6.408
  723WAT      O 2410   6.068   4.253   5.178
  723WAT     H1 2411   6.147   4.221   5.125
  723WAT     H2 2412   6.011   4.175   5.203
  724WAT      O 2413   1.457   3.901   5.843
  724WAT     H1 2414   1.482   3.998   5.837
  724WAT     H2 2415   1.526   3.845   5.797
  725WAT      O 2416   5.319   1.913   1.640
  725WAT     H1 2417   5.219   1.908   1.640
  725WAT     H2 2418   5.349   1.966   1.560
  726WAT      O 2419   1.326   2.703   1.277
  726WAT     H1 2420   1.373   2.704   1.366
  726WAT     H2 2421   1.258   2.630   1.276
  727WAT      O 2422   7.623   8.021   0.320
  727WAT     H1 2423   7.643   7.930   0.284
  727WAT     H2 2424   7.525   8.036   0.322
  728WAT      O 2425   4.677   5.152   3.366
  728WAT     H1 2426   4.737   5.231   3.356
  728WAT     H2 2427   4.584   5.177   3.338
  729WAT      O 2428   4.446   5.637   6.292
  729WAT     H1 2429   4.383   5.560   6.294
  729WAT     H2 2430   4.408   5.712   6.347
  730WAT      O 2431   9.248   3.110   2.224
  730WAT     H1 2432   9.229   3.194   2.174
  730WAT     H2 2433   9.185   3.038   2.194
  731WAT      O 2434   1.291   8.499   4.594
  731WAT     H1 2435   1.355   8.575   4.587
  731WAT     H2 2436   1.210   8.518   4.540
  732WAT      O 2437   5.750   0.513   6.777
  732WAT     H1 2438   5.751   0.612   6.762
  732WAT     H2 2439   5.661   0.476   6.749
  733WAT      O 2440   6.094   0.816   0.913
  733WAT     H1 2441   6.182   0.789   0.950
  733WAT     H2 2442   6.034   0.736   0.906
  734WAT      O 2443   0.336   3.897   7.655
  734WAT     H1 2444   0.422   3.919   7.609
  734WAT     H2 2445   0.350   3.896   7.754
  735WAT      O 2446   2.353   8.964   2.936
  735WAT     H1 2447   2.422   8.956   3.008
  735WAT     H2 2448   2.334   8.873   2.899
  736WAT      O 2449   1.005   8.056   3.420
  736WAT     H1 2450   1.027   7.960   3.406
  736WAT     H2 2451   0.969   8.095   3.335
  737WAT      O 2452   4.892   8.944   4.991
  737WAT     H1 2453   4.910   9.043   5.000
  737WAT     H2 2454   4.923   8.913   4.901
  738WAT      O 2455   2.699   1.301   1.857
  738WAT     H1 2456   2.655   1.226   1.907
  738WAT     H2 2457   2.699   1.384   1.914
  739WAT      O 2458   0.375   7.090   6.431
  739WAT     H1 2459   0.325   7.114   6.514
  739WAT     H2 2460   0.465   7.053   6.455
  740WAT      O 2461   8.966   2.432   3.955
  740WAT     H1 2462   8.997   2.428   3.860
  740WAT     H2 2463   8.883   2.488   3.961
  741WAT      O 2464   8.159   3.087   0.959
  741WAT     H1 2465   8.091   3.068   0.888
  741WAT     H2 2466   8.246   3.046   0.933
  742WAT      O 2467   9.731   3.224   3.889
  742WAT     H1 2468   9.642   3.269   3.882
  742WAT     H2 2469   9.729   3.156   3.962
  743WAT      O 2470   3.193   8.778   6.958
  743WAT     H1 2471   3.185   8.837   7.038
  743WAT     H2 2472   3.106   8.732   6.942
  744WAT      O 2473   2.759   6.950   0.081
  744WAT     H1 2474   2.759   7.023   0.150
  744WAT     H2 2475   2.668   6.909   0.077
  745WAT      O 2476   7.653   0.869   1.236
  745WAT     H1 2477   7.713   0.947   1.220
  745WAT     H2 2478   7.575   0.873   1.174
  746WAT      O 2479   8.739   7.247   1.798
  746WAT     H1 2480   8.834   7.254   1.829
  746WAT     H2 2481   8.679   7.236   1.877
  747WAT      O 2482   8.312   4.503   0.817
  747WAT     H1 2483   8.255   4.534   0.893
  747WAT     H2 2484   8.364   4.580   0.781
  748WAT      O 2485   0.064   6.276   4.000
  748WAT     H1 2486   0.029   6.365   4.027
  748WAT     H2 2487   0.069   6.270   3.900
  749WAT      O 2488   4.278   3.831   9.691
  749WAT     H1 2489   4.331   3.754   9.655
  749WAT     H2 2490   4.311   3.854   9.782
  750WAT      O 2491   7.477   7.772   7.752
  750WAT     H1 2492   7.453   7.697   7.690
  750WAT     H2 2493   7.448   7.858   7.712
  751WAT      O 2494   4.194   7.970   5.231
  751WAT     H1 2495   4.188   7.878   5.192
  751WAT     H2 2496   4.290   7.997   5.236
  752WAT      O 2497   5.522   8.762   8.297
  752WAT     H1 2498   5.592   8.788   8.229
  752WAT     H2 2499   5.431   8.784   8.261
  753WAT      O 2500   7.217   6.131   7.182
  753WAT     H1 2501   7.122   6.101   7.180
  753WAT     H2 2502   7.225   6.222   7.141
  754WAT      O 2503   3.138   2.996   6.321
  754WAT     H1 2504   3.079   2.970   6.397
  754WAT     H2 2505   3.182   2.915   6.282
  755WAT      O 2506   6.008   3.369   3.297
  755WAT     H1 2507   6.048   3.446   3.346
  755WAT     H2 2508   5.909   3.367   3.313
  756WAT      O 2509   5.021   0.438   9.726
  756WAT     H1 2510   4.956   0.479   9.662
  756WAT     H2 2511   4.972   0.387   9.796
  757WAT      O 2512   7.591   8.420   4.967
  757WAT     H1 2513   7.541   8.396   4.885
  757WAT     H2 2514   7.684   8.384   4.962
  758WAT      O 2515   1.333   2.877   3.443
  758WAT     H1 2516   1.322   2.973   3.469
  758WAT     H2 2517   1.403   2.834   3.499
  759WAT      O 2518   6.330   0.961   0.651
  759WAT     H1 2519   6.287   1.013   0.725
  759WAT     H2 2520   6.339   0.866   0.678
  760WAT      O 2521   1.123   1.799   0.690
  760WAT     H1 2522   1.115   1.752   0.778
  760WAT     H2 2523   1.200   1.863   0.692
  761WAT      O 2524   4.521   0.847   1.749
  761WAT     H1 2525   4.485   0.785   1.679
  761WAT     H2 2526   4.610   0.814   1.780
  762WAT      O 2527   9.012   2.559   1.640
  762WAT     H1 2528   9.023   2.653   1.671
  762WAT     H2 2529   9.085   2.502   1.678
  763WAT      O 2530   8.980   1.224   0.375
  763WAT     H1 2531   8.952   1.242   0.281
  763WAT     H2 2532   8.902   1.191   0.427
  764WAT      O 2533   8.353   2.131   9.441
  764WAT     H1 2534   8.291   2.057   9.416
  764WAT     H2 2535   8.303   2.202   9.491
  765WAT      O 2536   8.877   7.323   9.326
  765WAT     H1 2537   8.820   7.243   9.312
  765WAT     H2 2538   8.885   7.341   9.424
  766WAT      O 2539   9.535   9.399   9.298
  766WAT     H1 2540   9.556   9.496   9.309
  766WAT     H2 2541   9.491   9.384   9.210
  767WAT      O 2542   1.000   2.249   9.290
  767WAT     H1 2543   0.922   2.197   9.326
  767WAT     H2 2544   1.074   2.186   9.266
  768WAT      O 2545   6.925   9.386   4.004
  768WAT     H1 2546   6.880   9.469   4.035
  768WAT     H2 2547   6.963   9.401   3.912
  769WAT      O 2548   8.511   7.334   9.303
  769WAT     H1 2549   8.496   7.280   9.221
  769WAT     H2 2550   8.446   7.307   9.374
  770WAT      O 2551   7.916   8.756   2.903
  770WAT     H1 2552   7.971   8.829   2.946
  770WAT     H2 2553   7.959   8.728   2.817
  771WAT      O 2554   9.819   1.313   7.480
  771WAT     H1 2555   9.855   1.344   7.568
  771WAT     H2 2556   9.751   1.378   7.447
  772WAT      O 2557   0.577   2.698   7.804
  772WAT     H1 2558   0.612   2.615   7.760
  772WAT     H2 2559   0.603   2.698   7.901
  773WAT      O 2560   5.588   7.973   9.166
  773WAT     H1 2561   5.573   8.038   9.092
  773WAT     H2 2562   5.570   7.880   9.135
  774WAT      O 2563   4.516   6.438   1.841
  774WAT     H1 2564   4.519   6.538   1.831
  774WAT     H2 2565   4.444   6.401   1.783
  775WAT      O 2566   1.122   0.161   6.361
  775WAT     H1 2567   1.054   0.222   6.401
  775WAT     H2 2568   1.077   0.082   6.320
  776WAT      O 2569   9.721   2.428   8.412
  776WAT     H1 2570   9.794   2.378   8.459
  776WAT     H2 2571   9.712   2.519   8.453
  777WAT      O 2572   3.877   3.052   2.237
  777WAT     H1 2573   3.825   2.968   2.253
  777WAT     H2 2574   3.814   3.130   2.232
  778WAT      O 2575   6.693   3.288   4.242
  778WAT     H1 2576   6.597   3.262   4.246
  778WAT     H2 2577   6.736   3.247   4.161
  779WAT      O 2578   7.107   9.810   3.855
  779WAT     H1 2579   7.179   9.840   3.918
  779WAT     H2 2580   7.028   9.779   3.908
  780WAT      O 2581   5.108   3.522   3.158
  780WAT     H1 2582   5.027   3.500   3.213
  780WAT     H2 2583   5.191   3.494   3.208
  781WAT      O 2584   7.539   1.196   9.232
  781WAT     H1 2585   7.609   1.187   9.161
  781WAT     H2 2586   7.468   1.126   9.217
  782WAT      O 2587   2.142   9.549   1.375
  782WAT     H1 2588   2.190   9.488   1.438
  782WAT     H2 2589   2.207   9.617   1.339
  783WAT      O 2590   7.302   5.445   5.395
  783WAT     H1 2591   7.265   5.537   5.389
  783WAT     H2 2592   7.352   5.435   5.481
  784WAT      O 2593   3.739   0.201   7.834
  784WAT     H1 2594   3.800   0.147   7.776
  784WAT     H2 2595   3.757   0.181   7.930
  785WAT      O 2596   3.014   4.687   0.322
  785WAT     H1 2597   2.985   4.780   0.301
  785WAT     H2 2598   3.076   4.688   0.400
  786WAT      O 2599   5.676   1.812   0.045
  786WAT     H1 2600   5.688   1.909   0.065
  786WAT     H2 2601   5.591   1.799  -0.007
  787WAT      O 2602   9.284   5.373   0.032
  787WAT     H1 2603   9.236   5.329  -0.044
  787WAT     H2 2604   9.319   5.303   0.094
  788WAT      O 2605   7.872   3.704   5.495
  788WAT     H1 2606   7.865   3.803   5.479
  788WAT     H2 2607   7.968   3.676   5.491
  789WAT      O 2608   2.330   5.738   6.873
  789WAT     H1 2609   2.350   5.723   6.776
  789WAT     H2 2610   2.364   5.828   6.901
  790WAT      O 2611   0.942   1.123   2.438
  790WAT     H1 2612   0.972   1.115   2.533
  790WAT     H2 2613   0.880   1.201   2.429
  791WAT      O 2614   8.571   2.183   3.783
  791WAT     H1 2615   8.657   2.160   3.736
  791WAT     H2 2616   8.544   2.277   3.759
  792WAT      O 2617   4.212   9.674   8.542
  792WAT     H1 2618   4.227   9.583   8.582
  792WAT     H2 2619   4.133   9.671   8.481
  793WAT      O 2620   5.475   5.812   4.326
  793WAT     H1 2621   5.492   5.889   4.387
  793WAT     H2 2622   5.540   5.739   4.345
  794WAT      O 2623   1.565   3.904   3.103
  794WAT     H1 2624   1.637   3.972   3.113
  794WAT     H2 2625   1.584   3.844   3.025
  795WAT      O 2626   1.194   4.284   4.089
  795WAT     H1 2627   1.203   4.373   4.135
  795WAT     H2 2628   1.106   4.279   4.041
  796WAT      O 2629   1.766   8.007   5.763
  796WAT     H1 2630   1.848   8.060   5.788
  796WAT     H2 2631   1.791   7.910   5.756
  797WAT      O 2632   4.863   0.664   7.082
  797WAT     H1 2633   4.778   0.617   7.059
  797WAT     H2 2634   4.841   0.751   7.127
  798WAT      O 2635   1.685   0.178   1.043
  798WAT     H1 2636   1.704   0.131   1.129
  798WAT     H2 2637   1.700   0.276   1.054
  799WAT      O 2638   4.451   2.527   0.819
  799WAT     H1 2639   4.502   2.606   0.853
  799WAT     H2 2640   4.513   2.465   0.771
  800WAT      O 2641   7.485   6.897   4.767
  800WAT     H1 2642   7.559   6.839   4.801
  800WAT     H2 2643   7.506   6.927   4.674
  801WAT      O 2644   2.193   5.953   0.735
  801WAT     H1 2645   2.192   5.964   0.834
  801WAT     H2 2646   2.273   5.900   0.707
  802WAT      O 2647   6.772   8.509   3.339
  802WAT     H1 2648   6.735   8.425   3.300
  802WAT     H2 2649   6.698   8.565   3.375
  803WAT      O 2650   3.927   1.552   5.015
  803WAT     H1 2651   3.860   1.622   4.989
  803WAT     H2 2652   3.956   1.502   4.933
  804WAT      O 2653   9.507   8.770   9.200
  804WAT     H1 2654   9.432   8.823   9.241
  804WAT     H2 2655   9.528   8.808   9.109
  805WAT      O 2656   2.033   9.634   2.713
  805WAT     H1 2657   2.000   9.599   2.801
  805WAT     H2 2658   1.955   9.662   2.657
  806WAT      O 2659   7.292   7.955   8.739
  806WAT     H1 2660   7.274   8.037   8.793
  806WAT     H2 2661   7.236   7.879   8.774
  807WAT      O 2662   0.128   6.846   8.073
  807WAT     H1 2663   0.133   6.924   8.011
  807WAT     H2 2664   0.084   6.769   8.026
  808WAT      O 2665   2.859   9.066   1.378
  808WAT     H1 2666   2.818   8.989   1.328
  808WAT     H2 2667   2.841   9.055   1.476
  809WAT      O 2668   8.079   5.729   8.076
  809WAT     H1 2669   8.134   5.678   8.009
  809WAT     H2 2670   8.096   5.692   8.168
  810WAT      O 2671   5.875   3.514   4.041
  810WAT     H1 2672   5.806   3.548   4.105
  810WAT     H2 2673   5.938   3.453   4.089
  811WAT      O 2674   5.069   5.702   8.900
  811WAT     H1 2675   4.987   5.757   8.916
  811WAT     H2 2676   5.066   5.621   8.959
  812WAT      O 2677   5.222   2.173   2.650
  812WAT     H1 2678   5.299   2.108   2.645
  812WAT     H2 2679   5.257   2.265   2.668
  813WAT      O 2680   5.743   6.099   2.423
  813WAT     H1 2681   5.767   6.019   2.478
  813WAT     H2 2682   5.661   6.079   2.369
  814WAT      O 2683   6.571   8.161   2.121
  814WAT     H1 2684   6.524   8.084   2.164
  814WAT     H2 2685   6.667   8.162   2.149
  815WAT      O 2686   9.526   0.186   6.354
  815WAT     H1 2687   9.550   0.184   6.451
  815WAT     H2 2688   9.597   0.236   6.304
  816WAT      O 2689   9.699   0.624   0.481
  816WAT     H1 2690   9.687   0.555   0.410
  816WAT     H2 2691   9.773   0.596   0.542
  817WAT      O 2692   8.421   0.364   9.062
  817WAT     H1 2693   8.394   0.311   9.142
  817WAT     H2 2694   8.466   0.304   8.996
  818WAT      O 2695   7.085   9.037   4.556
  818WAT     H1 2696   7.082   9.090   4.471
  818WAT     H2 2697   7.084   8.939   4.535
  819WAT      O 2698   8.173   7.845   3.267
  819WAT     H1 2699   8.200   7.938   3.291
  819WAT     H2 2700   8.248   7.801   3.218
  820WAT      O 2701   1.752   2.549   2.733
  820WAT     H1 2702   1.705   2.633   2.762
  820WAT     H2 2703   1.697   2.470   2.761
  821WAT      O 2704   3.241   9.312   3.014
  821WAT     H1 2705   3.330   9.334   2.972
  821WAT     H2 2706   3.256   9.274   3.105
  822WAT      O 2707   8.476   1.299   2.082
  822WAT     H1 2708   8.494   1.366   2.154
  822WAT     H2 2709   8.405   1.236   2.113
  823WAT      O 2710   7.533   7.766   2.416
  823WAT     H1 2711   7.461   7.742   2.481
  823WAT     H2 2712   7.575   7.853   2.443
  824WAT      O 2713   9.378   9.805   8.913
  824WAT     H1 2714   9.463   9.753   8.909
  824WAT     H2 2715   9.323   9.783   8.832
  825WAT      O 2716   1.301   1.188   3.912
  825WAT     H1 2717   1.203   1.206   3.899
  825WAT     H2 2718   1.346   1.272   3.943
  826WAT      O 2719   1.786   5.141   5.935
  826WAT     H1 2720   1.813   5.173   5.844
  826WAT     H2 2721   1.856   5.079   5.971
  827WAT      O 2722   0.590   2.390   3.103
  827WAT     H1 2723   0.615   2.368   3.197
  827WAT     H2 2724   0.511   2.451   3.102
  828WAT      O 2725   8.519   6.665   7.235
  828WAT     H1 2726   8.537   6.759   7.205
  828WAT     H2 2727   8.516   6.662   7.335
  829WAT      O 2728   0.644   0.921   6.698
  829WAT     H1 2729   0.679   0.938   6.790
  829WAT     H2 2730   0.644   1.006   6.646
  830WAT      O 2731   4.019   7.275   7.638
  830WAT     H1 2732   4.113   7.259   7.606
  830WAT     H2 2733   4.004   7.227   7.724
  831WAT      O 2734   6.654   6.460   8.786
  831WAT     H1 2735   6.619   6.466   8.880
  831WAT     H2 2736   6.578   6.462   8.722
  832WAT      O 2737   2.339   7.760   5.934
  832WAT     H1 2738   2.437   7.761   5.917
  832WAT     H2 2739   2.318   7.694   6.006
  833WAT      O 2740   5.430   8.693   1.992
  833WAT     H1 2741   5.336   8.663   1.981
  833WAT     H2 2742   5.482   8.672   1.910
  834WAT      O 2743   3.392   2.643   8.902
  834WAT     H1 2744   3.430   2.677   8.815
  834WAT     H2 2745   3.406   2.711   8.973
  835WAT      O 2746   3.984   8.505   4.061
  835WAT     H1 2747   4.002   8.438   3.989
  835WAT     H2 2748   3.886   8.529   4.060
  836WAT      O 2749   3.058   0.968   6.095
  836WAT     H1 2750   3.149   0.933   6.117
  836WAT     H2 2751   3.000   0.894   6.063
  837WAT      O 2752   1.672   8.309   9.655
  837WAT     H1 2753   1.754   8.366   9.665
  837WAT     H2 2754   1.676   8.259   9.569
  838WAT      O 2755   5.429   1.919   3.597
  838WAT     H1 2756   5.436   1.840   3.657
  838WAT     H2 2757   5.339   1.920   3.553
  839WAT      O 2758   9.846   5.034   2.421
  839WAT     H1 2759   9.873   4.947   2.462
  839WAT     H2 2760   9.756   5.060   2.455
  840WAT      O 2761   8.805   3.816   5.971
  840WAT     H1 2762   8.772   3.727   5.939
  840WAT     H2 2763   8.786   3.885   5.901
  841WAT      O 2764   2.374   5.102   7.792
  841WAT     H1 2765   2.447   5.120   7.858
  841WAT     H2 2766   2.404   5.032   7.727
  842WAT      O 2767   8.599   9.445   4.628
  842WAT     H1 2768   8.631   9.379   4.696
  842WAT     H2 2769   8.601   9.537   4.667
  843WAT      O 2770   7.721   1.893   0.645
  843WAT     H1 2771   7.809   1.940   0.647
  843WAT     H2 2772   7.725   1.811   0.702
  844WAT      O 2773   9.781   1.131   3.550
  844WAT     H1 2774   9.685   1.104   3.561
  844WAT     H2 2775   9.813   1.173   3.635
  845WAT      O 2776   2.867   3.742   8.720
  845WAT     H1 2777   2.915   3.654   8.719
  845WAT     H2 2778   2.880   3.789   8.633
  846WAT      O 2779   3.323   3.002   1.954
  846WAT     H1 2780   3.383   3.004   2.034
  846WAT     H2 2781   3.294   2.908   1.937
  847WAT      O 2782   8.372   4.142   8.263
  847WAT     H1 2783   8.464   4.122   8.231
  847WAT     H2 2784   8.311   4.066   8.241
  848WAT      O 2785   1.792   6.762   6.525
  848WAT     H1 2786   1.770   6.684   6.467
  848WAT     H2 2787   1.722   6.833   6.513
  849WAT      O 2788   6.881   3.502   1.861
  849WAT     H1 2789   6.886   3.573   1.792
  849WAT     H2 2790   6.856   3.543   1.949
  850WAT      O 2791   8.051   8.961   2.993
  850WAT     H1 2792   8.060   8.960   2.894
  850WAT     H2 2793   8.008   9.046   3.022
  851WAT      O 2794   6.811   8.127   7.179
  851WAT     H1 2795   6.820   8.027   7.175
  851WAT     H2 2796   6.839   8.165   7.091
  852WAT      O 2797   6.895   3.737   9.429
  852WAT     H1 2798   6.949   3.821   9.429
  852WAT     H2 2799   6.906   3.689   9.516
  853WAT      O 2800   8.955   1.912   8.647
  853WAT     H1 2801   8.947   1.832   8.705
  853WAT     H2 2802   9.050   1.942   8.644
  854WAT      O 2803   9.627   4.432   3.498
  854WAT     H1 2804   9.586   4.417   3.588
  854WAT     H2 2805   9.723   4.405   3.501
  855WAT      O 2806   0.816   7.444   7.498
  855WAT     H1 2807   0.806   7.427   7.400
  855WAT     H2 2808   0.725   7.460   7.538
  856WAT      O 2809   6.053   5.189   3.350
  856WAT     H1 2810   6.066   5.215   3.446
  856WAT     H2 2811   5.972   5.234   3.314
  857WAT      O 2812   5.526   0.828   7.793
  857WAT     H1 2813   5.591   0.888   7.841
  857WAT     H2 2814   5.533   0.736   7.832
  858WAT      O 2815   9.005   5.447   5.722
  858WAT     H1 2816   9.016   5.421   5.817
  858WAT     H2 2817   8.991   5.546   5.716
  859WAT      O 2818   0.415   1.954   2.216
  859WAT     H1 2819   0.373   1.887   2.154
  859WAT     H2 2820   0.354   2.033   2.226
  860WAT      O 2821   9.355   1.058   9.195
  860WAT     H1 2822   9.319   0.972   9.160
  860WAT     H2 2823   9.410   1.041   9.277
  861WAT      O 2824   6.184   6.851   0.057
  861WAT     H1 2825   6.107   6.915   0.052
  861WAT     H2 2826   6.150   6.758   0.049
  862WAT      O 2827   9.380   8.241   5.042
  862WAT     H1 2828   9.473   8.213   5.022
  862WAT     H2 2829   9.327   8.244   4.958
  863WAT      O 2830   9.075   4.181   0.249
  863WAT     H1 2831   9.117   4.231   0.174
  863WAT     H2 2832   9.110   4.087   0.250
  864WAT      O 2833   8.308   9.799   9.077
  864WAT     H1 2834   8.364   9.731   9.123
  864WAT     H2 2835   8.330   9.800   8.979
  865WAT      O 2836   8.735   8.215   3.631
  865WAT     H1 2837   8.754   8.289   3.695
  865WAT     H2 2838   8.657   8.162   3.663
  866WAT      O 2839   4.675   6.965   6.424
  866WAT     H1 2840   4.629   6.881   6.454
  866WAT     H2 2841   4.722   7.007   6.502
  867WAT      O 2842   8.129   8.844   9.038
  867WAT     H1 2843   8.140   8.909   9.114
  867WAT     H2 2844   8.035   8.810   9.036
  868WAT      O 2845   0.416   1.874   1.662
  868WAT     H1 2846   0.434   1.906   1.755
  868WAT     H2 2847   0.417   1.952   1.599
  869WAT      O 2848   8.925   5.564   2.186
  869WAT     H1 2849   8.972   5.489   2.234
  869WAT     H2 2850   8.883   5.625   2.254
  870WAT      O 2851   2.037   0.511   6.038
  870WAT     H1 2852   2.092   0.552   6.110
  870WAT     H2 2853   1.940   0.525   6.057
  871WAT      O 2854   7.002   6.473   9.002
  871WAT     H1 2855   6.906   6.470   9.030
  871WAT     H2 2856   7.018   6.552   8.944
  872WAT      O 2857   4.011   2.870   7.736
  872WAT     H1 2858   3.957   2.944   7.775
  872WAT     H2 2859   4.015   2.794   7.800
  873WAT      O 2860   8.296   3.165   4.762
  873WAT     H1 2861   8.264   3.259   4.770
  873WAT     H2 2862   8.248   3.107   4.828
  874WAT      O 2863   5.597   9.791   8.295
  874WAT     H1 2864   5.536   9.712   8.285
  874WAT     H2 2865   5.686   9.760   8.330
  875WAT      O 2866   7.174   1.731   9.519
  875WAT     H1 2867   7.158   1.789   9.599
  875WAT     H2 2868   7.120   1.647   9.527
  876WAT      O 2869   0.152   6.903   3.762
  876WAT     H1 2870   0.161   6.832   3.832
  876WAT     H2 2871   0.062   6.895   3.718
  877WAT      O 2872   5.271   7.674   8.090
  877WAT     H1 2873   5.268   7.591   8.145
  877WAT     H2 2874   5.352   7.727   8.114
  878WAT      O 2875   6.662   4.744   8.582
  878WAT     H1 2876   6.713   4.810   8.526
  878WAT     H2 2877   6.710   4.657   8.583
  879WAT      O 2878   5.053   7.416   5.166
  879WAT     H1 2879   5.116   7.393   5.091
  879WAT     H2 2880   5.099   7.399   5.254
  880WAT      O 2881   6.091   3.806   0.223
  880WAT     H1 2882   6.179   3.810   0.270
  880WAT     H2 2883   6.068   3.711   0.204
  881WAT      O 2884   7.495   8.573   7.481
  881WAT     H1 2885   7.520   8.582   7.384
  881WAT     H2 2886   7.546   8.497   7.521
  882WAT      O 2887   1.064   6.986   1.878
  882WAT     H1 2888   1.110   7.073   1.862
  882WAT     H2 2889   0.967   6.995   1.857
  883WAT      O 2890   2.494   6.186   0.928
  883WAT     H1 2891   2.553   6.267   0.937
  883WAT     H2 2892   2.448   6.188   0.840
  884WAT      O 2893   8.178   4.114   3.307
  884WAT     H1 2894   8.121   4.033   3.295
  884WAT     H2 2895   8.238   4.102   3.386
  885WAT      O 2896   1.748   3.629   9.146
  885WAT     H1 2897   1.729   3.628   9.244
  885WAT     H2 2898   1.845   3.613   9.131
  886WAT      O 2899   7.151   1.288   8.800
  886WAT     H1 2900   7.227   1.353   8.803
  886WAT     H2 2901   7.127   1.269   8.704
  887WAT      O 2902   4.609   5.583   1.452
  887WAT     H1 2903   4.574   5.511   1.511
  887WAT     H2 2904   4.688   5.627   1.497
  888WAT      O 2905   4.165   1.122   2.246
  888WAT     H1 2906   4.100   1.178   2.194
  888WAT     H2 2907   4.249   1.111   2.194
  889WAT      O 2908   1.925   0.825   2.807
  889WAT     H1 2909   1.841   0.868   2.840
  889WAT     H2 2910   1.907   0.728   2.787
  890WAT      O 2911   0.072   4.388   0.522
  890WAT     H1 2912  -0.020   4.392   0.482
  890WAT     H2 2913   0.140   4.391   0.449
  891WAT      O 2914   2.621   4.712   2.830
  891WAT     H1 2915   2.684   4.687   2.757
  891WAT     H2 2916   2.530   4.674   2.811
  892WAT      O 2917   1.769   0.436   6.343
  892WAT     H1 2918   1.777   0.496   6.264
  892WAT     H2 2919   1.858   0.426   6.387
  893WAT      O 2920   8.298   1.107   2.127
  893WAT     H1 2921   8.370   1.053   2.170
  893WAT     H2 2922   8.214   1.053   2.120
  894WAT      O 2923   8.207   4.651   5.754
  894WAT     H1 2924   8.142   4.623   5.683
  894WAT     H2 2925   8.273   4.716   5.715
  895WAT      O 2926   3.502   1.807   0.667
  895WAT     H1 2927   3.422   1.773   0.617
  895WAT     H2 2928   3.574   1.737   0.666
  896WAT      O 2929   1.074   4.897   9.855
  896WAT     H1 2930   1.042   4.806   9.830
  896WAT     H2 2931   1.139   4.889   9.930
  897WAT      O 2932   4.272   3.721   0.933
  897WAT     H1 2933   4.254   3.651   1.002
  897WAT     H2 2934   4.189   3.772   0.915
  898WAT      O 2935   4.473   0.339   8.828
  898WAT     H1 2936   4.397   0.357   8.765
  898WAT     H2 2937   4.517   0.253   8.803
  899WAT      O 2938   3.968   0.006   7.686
  899WAT     H1 2939   4.040   0.073   7.669
  899WAT     H2 2940   3.977  -0.031   7.778
  900WAT      O 2941   3.147   6.834   0.352
  900WAT     H1 2942   3.186   6.926   0.348
  900WAT     H2 2943   3.111   6.811   0.262
  901WAT      O 2944   1.022   4.977   9.121
  901WAT     H1 2945   0.935   4.938   9.091
  901WAT     H2 2946   1.004   5.044   9.194
  902WAT      O 2947   4.524   0.099   2.101
  902WAT     H1 2948   4.601   0.091   2.038
  902WAT     H2 2949   4.547   0.165   2.173
  903WAT      O 2950   5.966   8.645   5.208
  903WAT     H1 2951   5.903   8.575   5.175
  903WAT     H2 2952   6.038   8.660   5.140
  904WAT      O 2953   6.768   4.676   6.546
  904WAT     H1 2954   6.765   4.651   6.643
  904WAT     H2 2955   6.699   4.746   6.528
  905WAT      O 2956   9.313   8.893   2.971
  905WAT     H1 2957   9.239   8.828   2.985
  905WAT     H2 2958   9.400   8.853   3.001
  906WAT      O 2959   9.077   8.313   1.260
  906WAT     H1 2960   9.128   8.394   1.233
  906WAT     H2 2961   9.140   8.247   1.302
  907WAT      O 2962   8.089   6.709   5.398
  907WAT     H1 2963   8.019   6.768   5.440
  907WAT     H2 2964   8.054   6.615   5.393
  908WAT      O 2965   7.294   3.539   1.122
  908WAT     H1 2966   7.334   3.549   1.031
  908WAT     H2 2967   7.364   3.557   1.191
  909WAT      O 2968   8.945   5.928   8.635
  909WAT     H1 2969   9.004   6.007   8.618
  909WAT     H2 2970   8.851   5.951   8.613
  910WAT      O 2971   1.409   2.391   5.665
  910WAT     H1 2972   1.464   2.433   5.594
  910WAT     H2 2973   1.356   2.315   5.626
  911WAT      O 2974   1.460   4.555   2.674
  911WAT     H1 2975   1.539   4.563   2.734
  911WAT     H2 2976   1.403   4.478   2.703
  912WAT      O 2977   0.027   6.473   3.113
  912WAT     H1 2978   0.125   6.484   3.094
  912WAT     H2 2979  -0.007   6.556   3.158
  913WAT      O 2980   3.253   8.094   8.089
  913WAT     H1 2981   3.244   8.184   8.130
  913WAT     H2 2982   3.164   8.047   8.091
  914WAT      O 2983   4.512   3.882   6.507
  914WAT     H1 2984   4.544   3.792   6.480
  914WAT     H2 2985   4.431   3.906   6.453
  915WAT      O 2986   3.581   1.033   5.101
  915WAT     H1 2987   3.593   0.935   5.116
  915WAT     H2 2988   3.574   1.080   5.189
  916WAT      O 2989   6.438   1.035   5.987
  916WAT     H1 2990   6.444   1.043   5.888
  916WAT     H2 2991   6.502   0.965   6.019
  917WAT      O 2992   6.012   3.248   6.372
  917WAT     H1 2993   6.064   3.259   6.457
  917WAT     H2 2994   5.988   3.338   6.336
  918WAT      O 2995   4.137   8.419   4.869
  918WAT     H1 2996   4.039   8.428   4.853
  918WAT     H2 2997   4.181   8.384   4.786
  919WAT      O 2998   9.290   8.149   2.879
  919WAT     H1 2999   9.375   8.147   2.932
  919WAT     H2 3000   9.273   8.058   2.842
  920WAT      O 3001   8.613   9.665   7.353
  920WAT     H1 3002   8.662   9.707   7.276
  920WAT     H2 3003   8.533   9.720   7.375
  921WAT      O 3004   8.914   5.411   8.715
  921WAT     H1 3005   8.973   5.337   8.683
  921WAT     H2 3006   8.933   5.494   8.662
  922WAT      O 3007   4.113   8.271   1.489
  922WAT     H1 3008   4.097   8.316   1.401
  922WAT     H2 3009   4.031   8.277   1.545
  923WAT      O 3010   3.943   9.734   6.219
  923WAT     H1 3011   4.022   9.708   6.275
  923WAT     H2 3012   3.862   9.684   6.250
  924WAT      O 3013   9.426   8.813   4.648
  924WAT     H1 3014   9.498   8.873   4.682
  924WAT     H2 3015   9.465   8.725   4.620
  925WAT      O 3016   0.942   0.931   2.838
  925WAT     H1 3017   0.904   1.024   2.834
  925WAT     H2 3018   0.967   0.910   2.933
  926WAT      O 3019   3.131   1.999   3.215
  926WAT     H1 3020   3.138   2.098   3.204
  926WAT     H2 3021   3.052   1.966   3.164
  927WAT      O 3022   7.534   6.333   0.236
  927WAT     H1 3023   7.443   6.297   0.218
  927WAT     H2 3024   7.600   6.290   0.174
  928WAT      O 3025   5.264   6.874   0.069
  928WAT     H1 3026   5.329   6.945   0.039
  928WAT     H2 3027   5.285   6.847   0.162
  929WAT      O 3028   9.632   4.018   2.434
  929WAT     H1 3029   9.623   4.117   2.421
  929WAT     H2 3030   9.563   3.971   2.379
  930WAT      O 3031   4.115   3.047   6.574
  930WAT     H1 3032   4.159   3.102   6.502
  930WAT     H2 3033   4.157   3.069   6.662
  931WAT      O 3034   0.728   8.062   0.606
  931WAT     H1 3035   0.692   7.971   0.623
  931WAT     H2 3036   0.770   8.097   0.690
  932WAT      O 3037   5.605   4.630   0.780
  932WAT     H1 3038   5.638   4.543   0.819
  932WAT     H2 3039   5.547   4.610   0.701
  933WAT      O 3040   8.553   9.044   4.821
  933WAT     H1 3041   8.542   8.965   4.761
  933WAT     H2 3042   8.483   9.112   4.799
  934WAT      O 3043   3.150   4.265   4.884
  934WAT     H1 3044   3.064   4.225   4.855
  934WAT     H2 3045   3.133   4.347   4.939
  935WAT      O 3046   2.182   2.884   5.608
  935WAT     H1 3047   2.224   2.897   5.697
  935WAT     H2 3048   2.098   2.829   5.617
  936WAT      O 3049   3.383   3.878   0.602
  936WAT     H1 3050   3.286   3.901   0.614
  936WAT     H2 3051   3.398   3.782   0.627
  937WAT      O 3052   5.776   1.227   0.344
  937WAT     H1 3053   5.833   1.307   0.325
  937WAT     H2 3054   5.714   1.249   0.419
  938WAT      O 3055   6.166   9.754   9.415
  938WAT     H1 3056   6.214   9.678   9.371
  938WAT     H2 3057   6.069   9.731   9.425
  939WAT      O 3058   9.350   5.375   3.725
  939WAT     H1 3059   9.436   5.397   3.771
  939WAT     H2 3060   9.284   5.340   3.792
  940WAT      O 3061   8.619   0.689   4.078
  940WAT     H1 3062   8.558   0.626   4.126
  940WAT     H2 3063   8.585   0.704   3.985
  941WAT      O 3064   5.317   1.944   8.542
  941WAT     H1 3065   5.394   1.988   8.589
  941WAT     H2 3066   5.272   1.881   8.604
  942WAT      O 3067   0.495   5.441   7.420
  942WAT     H1 3068   0.576   5.415   7.472
  942WAT     H2 3069   0.436   5.498   7.477
  943WAT      O 3070   8.866   6.469   0.642
  943WAT     H1 3071   8.812   6.468   0.727
  943WAT     H2 3072   8.918   6.384   0.635
  944WAT      O 3073   4.565   2.314   2.444
  944WAT     H1 3074   4.568   2.276   2.536
  944WAT     H2 3075   4.494   2.385   2.439
  945WAT      O 3076   7.684   1.261   2.084
  945WAT     H1 3077   7.759   1.247   2.149
  945WAT     H2 3078   7.598   1.232   2.126
  946WAT      O 3079   8.037   1.213   9.866
  946WAT     H1 3080   7.995   1.128   9.834
  946WAT     H2 3081   8.038   1.280   9.792
  947WAT      O 3082   5.415   2.864   1.564
  947WAT     H1 3083   5.411   2.895   1.469
  947WAT     H2 3084   5.483   2.790   1.572
  948WAT      O 3085   5.266   7.072   4.847
  948WAT     H1 3086   5.268   7.044   4.943
  948WAT     H2 3087   5.346   7.035   4.799
  949WAT      O 3088   4.575   1.898   9.010
  949WAT     H1 3089   4.503   1.937   9.067
  949WAT     H2 3090   4.647   1.861   9.069
  950WAT      O 3091   8.578   2.674   8.458
  950WAT     H1 3092   8.541   2.702   8.370
  950WAT     H2 3093   8.538   2.587   8.486
  951WAT      O 3094   5.470   4.709   4.005
  951WAT     H1 3095   5.555   4.659   4.021
  951WAT     H2 3096   5.441   4.698   3.910
  952WAT      O 3097   0.740   4.841   1.859
  952WAT     H1 3098   0.653   4.860   1.905
  952WAT     H2 3099   0.747   4.896   1.776
  953WAT      O 3100   5.863   5.450   3.587
  953WAT     H1 3101   5.938   5.385   3.584
  953WAT     H2 3102   5.861   5.503   3.502
  954WAT      O 3103   7.638   6.099   2.707
  954WAT     H1 3104   7.565   6.110   2.640
  954WAT     H2 3105   7.603   6.116   2.799
  955WAT      O 3106   5.683   3.759   1.784
  955WAT     H1 3107   5.777   3.781   1.809
  955WAT     H2 3108   5.656   3.674   1.828
  956WAT      O 3109   4.820   9.763   4.496
  956WAT     H1 3110   4.826   9.665   4.478
  956WAT     H2 3111   4.833   9.780   4.593
  957WAT      O 3112   6.498   3.737   7.513
  957WAT     H1 3113   6.429   3.689   7.461
  957WAT     H2 3114   6.488   3.836   7.500
  958WAT      O 3115   2.594   4.766   7.118
  958WAT     H1 3116   2.654   4.771   7.197
  958WAT     H2 3117   2.556   4.674   7.111
  959WAT      O 3118   2.993   6.679   7.084
  959WAT     H1 3119   3.038   6.657   6.997
  959WAT     H2 3120   3.007   6.777   7.104
  960WAT      O 3121   5.192   5.534   1.040
  960WAT     H1 3122   5.211   5.577   1.129
  960WAT     H2 3123   5.106   5.484   1.045
  961WAT      O 3124   4.405   3.140   5.375
  961WAT     H1 3125   4.307   3.147   5.362
  961WAT     H2 3126   4.451   3.216   5.329
  962WAT      O 3127   1.300   2.230   8.206
  962WAT     H1 3128   1.271   2.326   8.212
  962WAT     H2 3129   1.390   2.225   8.163
  963WAT      O 3130   0.587   7.951   3.838
  963WAT     H1 3131   0.675   7.952   3.792
  963WAT     H2 3132   0.566   8.043   3.871
  964WAT      O 3133   3.612   4.156   9.153
  964WAT     H1 3134   3.680   4.121   9.217
  964WAT     H2 3135   3.651   4.160   9.061
  965WAT      O 3136   9.345   1.952   3.702
  965WAT     H1 3137   9.360   1.931   3.798
  965WAT     H2 3138   9.250   1.933   3.678
  966WAT      O 3139   6.262   9.683   5.110
  966WAT     H1 3140   6.345   9.667   5.163
  966WAT     H2 3141   6.231   9.777   5.124
  967WAT      O 3142   6.544   7.572   5.427
  967WAT     H1 3143   6.567   7.490   5.480
  967WAT     H2 3144   6.621   7.635   5.429
  968WAT      O 3145   3.822   1.819   1.360
  968WAT     H1 3146   3.789   1.775   1.444
  968WAT     H2 3147   3.746   1.869   1.317
  969WAT      O 3148   0.392   5.505   2.531
  969WAT     H1 3149   0.450   5.569   2.582
  969WAT     H2 3150   0.413   5.412   2.560
  970WAT      O 3151   8.829   1.037   7.218
  970WAT     H1 3152   8.769   1.062   7.142
  970WAT     H2 3153   8.774   0.993   7.290
  971WAT      O 3154   3.944   0.552   4.667
  971WAT     H1 3155   3.928   0.650   4.650
  971WAT     H2 3156   3.994   0.513   4.589
  972WAT      O 3157   5.377   6.788   4.944
  972WAT     H1 3158   5.387   6.811   5.040
  972WAT     H2 3159   5.370   6.688   4.934
  973WAT      O 3160   3.635   5.993   9.498
  973WAT     H1 3161   3.717   5.942   9.468
  973WAT     H2 3162   3.557   5.930   9.502
  974WAT      O 3163   4.403   8.009   8.324
  974WAT     H1 3164   4.495   7.994   8.358
  974WAT     H2 3165   4.398   8.098   8.278
  975WAT      O 3166   1.580   6.626   7.945
  975WAT     H1 3167   1.649   6.698   7.949
  975WAT     H2 3168   1.593   6.562   8.021
  976WAT      O 3169   7.773   4.853   5.463
  976WAT     H1 3170   7.797   4.772   5.517
  976WAT     H2 3171   7.855   4.886   5.415
  977WAT      O 3172   3.497   0.241   7.484
  977WAT     H1 3173   3.471   0.175   7.413
  977WAT     H2 3174   3.563   0.306   7.446
  978WAT      O 3175   0.856   5.312   4.008
  978WAT     H1 3176   0.859   5.406   4.044
  978WAT     H2 3177   0.914   5.253   4.064
  979WAT      O 3178   8.464   6.306   8.125
  979WAT     H1 3179   8.468   6.218   8.076
  979WAT     H2 3180   8.370   6.322   8.156
  980WAT      O 3181   9.599   3.861   0.018
  980WAT     H1 3182   9.690   3.838   0.053
  980WAT     H2 3183   9.536   3.786   0.037
  981WAT      O 3184   0.469   5.338   3.967
  981WAT     H1 3185   0.532   5.407   3.931
  981WAT     H2 3186   0.509   5.247   3.957
  982WAT      O 3187   9.734   3.685   6.034
  982WAT     H1 3188   9.785   3.685   5.948
  982WAT     H2 3189   9.713   3.591   6.061
  983WAT      O 3190   5.829   8.701   1.073
  983WAT     H1 3191   5.825   8.604   1.048
  983WAT     H2 3192   5.786   8.756   1.001
  984WAT      O 3193   9.010   7.158   3.365
  984WAT     H1 3194   8.988   7.104   3.446
  984WAT     H2 3195   9.067   7.235   3.390
  985WAT      O 3196   9.091   2.997   8.888
  985WAT     H1 3197   9.050   2.908   8.867
  985WAT     H2 3198   9.136   3.033   8.806
  986WAT      O 3199   6.299   9.835   5.847
  986WAT     H1 3200   6.363   9.801   5.916
  986WAT     H2 3201   6.205   9.814   5.874
  987WAT      O 3202   7.963   5.030   7.752
  987WAT     H1 3203   7.927   4.936   7.744
  987WAT     H2 3204   7.935   5.069   7.840
  988WAT      O 3205   2.082   3.739   6.366
  988WAT     H1 3206   2.155   3.803   6.345
  988WAT     H2 3207   2.000   3.762   6.313
  989WAT      O 3208   3.902   6.585   6.460
  989WAT     H1 3209   3.865   6.534   6.538
  989WAT     H2 3210   3.829   6.634   6.414
  990WAT      O 3211   4.741   0.848   4.208
  990WAT     H1 3212   4.841   0.851   4.199
  990WAT     H2 3213   4.709   0.754   4.197
  991WAT      O 3214   8.311   3.544   8.511
  991WAT     H1 3215   8.288   3.637   8.538
  991WAT     H2 3216   8.252   3.480   8.560
  992WAT      O 3217   1.839   0.556   3.478
  992WAT     H1 3218   1.866   0.545   3.573
  992WAT     H2 3219   1.794   0.473   3.446
  993WAT      O 3220   0.485   8.743   8.622
  993WAT     H1 3221   0.500   8.793   8.707
  993WAT     H2 3222   0.454   8.805   8.551
  994WAT      O 3223   6.473   7.403   0.660
  994WAT     H1 3224   6.468   7.314   0.616
  994WAT     H2 3225   6.568   7.423   0.684
  995WAT      O 3226   3.023   8.845   5.099
  995WAT     H1 3227   3.098   8.852   5.033
  995WAT     H2 3228   3.048   8.892   5.184
  996WAT      O 3229   8.840   7.425   7.425
  996WAT     H1 3230   8.831   7.384   7.334
  996WAT     H2 3231   8.749   7.437   7.465
  997WAT      O 3232   1.219   1.178   1.209
  997WAT     H1 3233   1.255   1.129   1.129
  997WAT     H2 3234   1.284   1.173   1.284
  998WAT      O 3235   5.964   3.185   0.077
  998WAT     H1 3236   5.930   3.170  -0.016
  998WAT     H2 3237   5.886   3.187   0.140
  999WAT      O 3238   0.127   5.407   5.824
  999WAT     H1 3239   0.197   5.383   5.891
  999WAT     H2 3240   0.155   5.375   5.733
 1000WAT      O 3241   7.021   0.382   2.179
 1000WAT     H1 3242   7.057   0.462   2.130
 1000WAT     H2 3243   6.923   0.394   2.196
 1001WAT      O 3244   0.375   0.951   7.822
 1001WAT     H1 3245   0.361   1.016   7.896
 1001WAT     H2 3246   0.292   0.895   7.811
 1002WAT      O 3247   7.839   8.019   2.073
 1002WAT     H1 3248   7.836   8.113   2.105
 1002WAT     H2 3249   7.773   8.007   1.998
 1003WAT      O 3250   2.600   2.055   6.927
 1003WAT     H1 3251   2.688   2.012   6.908
 1003WAT     H2 3252   2.600   2.148   6.889
 1004WAT      O 3253   0.603   4.418   5.476
 1004WAT     H1 3254   0.533   4.437   5.407
 1004WAT     H2 3255   0.682   4.376   5.432
 1005WAT      O 3256   7.923   4.603   5.152
 1005WAT     H1 3257   7.840   4.626   5.101
 1005WAT     H2 3258   7.938   4.504   5.149
 1006WAT      O 3259   8.498   1.662   8.242
 1006WAT     H1 3260   8.410   1.695   8.211
 1006WAT     H2 3261   8.558   1.739   8.263
 1007WAT      O 3262   1.180   0.768   6.198
 1007WAT     H1 3263   1.271   0.785   6.236
 1007WAT     H2 3264   1.139   0.689   6.242
 1008WAT      O 3265   0.738   9.023   1.375
 1008WAT     H1 3266   0.643   9.048   1.356
 1008WAT     H2 3267   0.796   9.105   1.374
 1009WAT      O 3268   5.214   6.159   5.422
 1009WAT     H1 3269   5.204   6.241   5.478
 1009WAT     H2 3270   5.123   6.127   5.393
 1010WAT      O 3271   7.514   5.300   8.686
 1010WAT     H1 3272   7.597   5.268   8.731
 1010WAT     H2 3273   7.442   5.232   8.698
 1011WAT      O 3274   9.305   9.288   8.113
 1011WAT     H1 3275   9.267   9.226   8.045
 1011WAT     H2 3276   9.393   9.254   8.145
 1012WAT      O 3277   7.155   3.473   4.514
 1012WAT     H1 3278   7.103   3.411   4.454
 1012WAT     H2 3279   7.134   3.451   4.609
 1013WAT      O 3280   8.298   5.539   1.370
 1013WAT     H1 3281   8.213   5.487   1.362
 1013WAT     H2 3282   8.314   5.561   1.467
 1014WAT      O 3283   7.657   2.593   2.823
 1014WAT     H1 3284   7.730   2.650   2.785
 1014WAT     H2 3285   7.591   2.571   2.751
 1015WAT      O 3286   8.551   0.017   1.788
 1015WAT     H1 3287   8.532  -0.074   1.825
 1015WAT     H2 3288   8.490   0.084   1.831
 1016WAT      O 3289   4.549   9.585   8.362
 1016WAT     H1 3290   4.617   9.656   8.382
 1016WAT     H2 3291   4.537   9.527   8.443
 1017WAT      O 3292   0.324   6.040   7.066
 1017WAT     H1 3293   0.375   6.111   7.018
 1017WAT     H2 3294   0.285   6.079   7.150
 1018WAT      O 3295   8.923   0.042   6.877
 1018WAT     H1 3296   8.851  -0.027   6.873
 1018WAT     H2 3297   8.896   0.114   6.940
 1019WAT      O 3298   2.249   5.616   1.581
 1019WAT     H1 3299   2.297   5.537   1.542
 1019WAT     H2 3300   2.246   5.608   1.681
 1020WAT      O 3301   7.061   5.251   5.634
 1020WAT     H1 3302   7.000   5.269   5.557
 1020WAT     H2 3303   7.050   5.322   5.703
 1021WAT      O 3304   4.021   4.456   9.604
 1021WAT     H1 3305   4.016   4.552   9.631
 1021WAT     H2 3306   3.972   4.400   9.671
 1022WAT      O 3307   4.909   3.100   3.676
 1022WAT     H1 3308   4.959   3.049   3.746
 1022WAT     H2 3309   4.833   3.149   3.718
 1023WAT      O 3310   3.397   7.382   7.729
 1023WAT     H1 3311   3.361   7.289   7.739
 1023WAT     H2 3312   3.423   7.397   7.634
 1024WAT      O 3313   7.577   5.862   1.916
 1024WAT     H1 3314   7.606   5.767   1.908
 1024WAT     H2 3315   7.527   5.890   1.834
 1025WAT      O 3316   3.233   6.198   6.874
 1025WAT     H1 3317   3.204   6.111   6.834
 1025WAT     H2 3318   3.152   6.248   6.905
 1026WAT      O 3319   1.686   0.893   4.799
 1026WAT     H1 3320   1.751   0.868   4.871
 1026WAT     H2 3321   1.655   0.810   4.752
 1027WAT      O 3322   1.548   7.037   5.887
 1027WAT     H1 3323   1.497   6.984   5.819
 1027WAT     H2 3324   1.641   7.002   5.893
 1028WAT      O 3325   5.907   3.084   7.687
 1028WAT     H1 3326   5.909   3.037   7.599
 1028WAT     H2 3327   5.972   3.041   7.749
 1029WAT      O 3328   9.235   9.776   9.159
 1029WAT     H1 3329   9.298   9.784   9.082
 1029WAT     H2 3330   9.156   9.837   9.144
 1030WAT      O 3331   8.384   9.792   3.204
 1030WAT     H1 3332   8.436   9.817   3.123
 1030WAT     H2 3333   8.287   9.804   3.187
 1031WAT      O 3334   5.477   1.938   9.520
 1031WAT     H1 3335   5.423   2.001   9.576
 1031WAT     H2 3336   5.574   1.951   9.540
 1032WAT      O 3337   1.885   0.482   3.753
 1032WAT     H1 3338   1.803   0.532   3.780
 1032WAT     H2 3339   1.866   0.384   3.751
 1033WAT      O 3340   0.365   8.340   3.838
 1033WAT     H1 3341   0.346   8.308   3.931
 1033WAT     H2 3342   0.282   8.380   3.799
 1034WAT      O 3343   3.624   2.791   1.064
 1034WAT     H1 3344   3.638   2.855   0.988
 1034WAT     H2 3345   3.706   2.735   1.076
 1035WAT      O 3346   7.741   6.058   5.593
 1035WAT     H1 3347   7.793   6.056   5.679
 1035WAT     H2 3348   7.758   5.974   5.543
 1036WAT      O 3349   7.884   9.532   1.096
 1036WAT     H1 3350   7.863   9.620   1.054
 1036WAT     H2 3351   7.805   9.499   1.147
 1037WAT      O 3352   1.941   9.477   1.770
 1037WAT     H1 3353   2.002   9.420   1.716
 1037WAT     H2 3354   1.957   9.574   1.749
 1038WAT      O 3355   4.682   3.102   7.287
 1038WAT     H1 3356   4.747   3.120   7.361
 1038WAT     H2 3357   4.638   3.013   7.302
 1039WAT      O 3358   8.111   9.594   7.371
 1039WAT     H1 3359   8.107   9.566   7.467
 1039WAT     H2 3360   8.052   9.673   7.356
 1040WAT      O 3361   0.759   8.430   3.303
 1040WAT     H1 3362   0.674   8.388   3.270
 1040WAT     H2 3363   0.737   8.500   3.370
 1041WAT      O 3364   3.382   0.365   2.017
 1041WAT     H1 3365   3.420   0.276   1.991
 1041WAT     H2 3366   3.316   0.394   1.947
 1042WAT      O 3367   2.042   7.182   1.567
 1042WAT     H1 3368   1.962   7.141   1.524
 1042WAT     H2 3369   2.093   7.234   1.498
 1043WAT      O 3370   8.748   8.334   1.906
 1043WAT     H1 3371   8.798   8.282   1.975
 1043WAT     H2 3372   8.694   8.272   1.850
 1044WAT      O 3373   0.401   8.834   8.193
 1044WAT     H1 3374   0.340   8.855   8.116
 1044WAT     H2 3375   0.493   8.815   8.158
 1045WAT      O 3376   1.318   4.030   5.315
 1045WAT     H1 3377   1.347   4.115   5.270
 1045WAT     H2 3378   1.279   4.052   5.404
 1046WAT      O 3379   9.139   7.485   6.764
 1046WAT     H1 3380   9.218   7.543   6.743
 1046WAT     H2 3381   9.161   7.425   6.841
 1047WAT      O 3382   0.500   7.017   3.581
 1047WAT     H1 3383   0.413   7.051   3.546
 1047WAT     H2 3384   0.570   7.087   3.571
 1048WAT      O 3385   2.841   0.017   4.570
 1048WAT     H1 3386   2.772   0.080   4.534
 1048WAT     H2 3387   2.840   0.021   4.670
 1049WAT      O 3388   4.205   2.158   8.669
 1049WAT     H1 3389   4.213   2.062   8.695
 1049WAT     H2 3390   4.190   2.164   8.570
 1050WAT      O 3391   7.877   2.150   2.917
 1050WAT     H1 3392   7.788   2.136   2.872
 1050WAT     H2 3393   7.899   2.247   2.916
 1051WAT      O 3394   3.959   8.831   4.689
 1051WAT     H1 3395   3.986   8.828   4.785
 1051WAT     H2 3396   4.014   8.899   4.641
 1052WAT      O 3397   8.422   8.172   7.111
 1052WAT     H1 3398   8.443   8.194   7.206
 1052WAT     H2 3399   8.359   8.094   7.108
 1053WAT      O 3400   4.119   9.176   9.831
 1053WAT     H1 3401   4.219   9.174   9.828
 1053WAT     H2 3402   4.089   9.264   9.869
 1054WAT      O 3403   0.926   7.239   0.633
 1054WAT     H1 3404   0.859   7.314   0.638
 1054WAT     H2 3405   0.923   7.198   0.542
 1055WAT      O 3406   6.150   0.102   8.637
 1055WAT     H1 3407   6.067   0.098   8.582
 1055WAT     H2 3408   6.191   0.193   8.630
 1056WAT      O 3409   5.546   1.908   6.802
 1056WAT     H1 3410   5.500   1.820   6.791
 1056WAT     H2 3411   5.485   1.982   6.774
 1057WAT      O 3412   4.216   5.281   7.436
 1057WAT     H1 3413   4.239   5.278   7.534
 1057WAT     H2 3414   4.169   5.196   7.411
 1058WAT      O 3415   5.799   3.126   7.243
 1058WAT     H1 3416   5.881   3.155   7.194
 1058WAT     H2 3417   5.737   3.080   7.180
 1059WAT      O 3418   1.115   0.050   4.589
 1059WAT     H1 3419   1.195   0.020   4.641
 1059WAT     H2 3420   1.033   0.040   4.645
 1060WAT      O 3421   6.962   9.293   9.597
 1060WAT     H1 3422   6.866   9.278   9.619
 1060WAT     H2 3423   6.988   9.387   9.622
 1061WAT      O 3424   4.293   6.936   6.726
 1061WAT     H1 3425   4.255   6.903   6.639
 1061WAT     H2 3426   4.393   6.940   6.718
 1062WAT      O 3427   6.645   0.092   7.371
 1062WAT     H1 3428   6.699   0.047   7.300
 1062WAT     H2 3429   6.561   0.039   7.388
 1063WAT      O 3430   1.374   8.501   5.955
 1063WAT     H1 3431   1.367   8.408   5.991
 1063WAT     H2 3432   1.284   8.530   5.922
 1064WAT      O 3433   6.182   2.720   7.721
 1064WAT     H1 3434   6.274   2.738   7.685
 1064WAT     H2 3435   6.186   2.639   7.781
 1065WAT      O 3436   5.450   5.524   1.914
 1065WAT     H1 3437   5.541   5.555   1.886
 1065WAT     H2 3438   5.396   5.501   1.833
 1066WAT      O 3439   4.375   1.115   0.503
 1066WAT     H1 3440   4.473   1.132   0.498
 1066WAT     H2 3441   4.325   1.201   0.489
 1067WAT      O 3442   3.933   2.679   3.535
 1067WAT     H1 3443   3.868   2.687   3.611
 1067WAT     H2 3444   3.932   2.763   3.481
 1068WAT      O 3445   5.926   6.667   6.362
 1068WAT     H1 3446   5.940   6.569   6.378
 1068WAT     H2 3447   5.958   6.719   6.440
 1069WAT      O 3448   1.518   3.920   2.438
 1069WAT     H1 3449   1.459   3.924   2.358
 1069WAT     H2 3450   1.614   3.916   2.410
 1070WAT      O 3451   9.887   6.565   2.251
 1070WAT     H1 3452   9.836   6.651   2.243
 1070WAT     H2 3453   9.823   6.488   2.244
 1071WAT      O 3454   8.298   9.669   1.690
 1071WAT     H1 3455   8.339   9.669   1.599
 1071WAT     H2 3456   8.199   9.662   1.683
 1072WAT      O 3457   7.472   0.726   4.439
 1072WAT     H1 3458   7.376   0.742   4.417
 1072WAT     H2 3459   7.530   0.757   4.364
 1073WAT      O 3460   3.975   7.754   8.361
 1073WAT     H1 3461   4.072   7.761   8.385
 1073WAT     H2 3462   3.920   7.791   8.436
 1074WAT      O 3463   5.108   6.552   7.555
 1074WAT     H1 3464   5.064   6.493   7.487
 1074WAT     H2 3465   5.073   6.529   7.646
 1075WAT      O 3466   5.531   2.490   8.930
 1075WAT     H1 3467   5.518   2.558   9.002
 1075WAT     H2 3468   5.563   2.536   8.847
 1076WAT      O 3469   7.574   7.158   3.886
 1076WAT     H1 3470   7.565   7.060   3.866
 1076WAT     H2 3471   7.666   7.176   3.921
 1077WAT      O 3472   3.465   9.684   9.330
 1077WAT     H1 3473   3.498   9.649   9.418
 1077WAT     H2 3474   3.538   9.676   9.262
 1078WAT      O 3475   6.632   0.139   8.812
 1078WAT     H1 3476   6.606   0.177   8.724
 1078WAT     H2 3477   6.578   0.184   8.884
 1079WAT      O 3478   8.712   9.172   5.526
 1079WAT     H1 3479   8.789   9.137   5.580
 1079WAT     H2 3480   8.654   9.096   5.497
 1080WAT      O 3481   0.028   5.763   9.513
 1080WAT     H1 3482   0.117   5.748   9.556
 1080WAT     H2 3483  -0.016   5.842   9.555
 1081WAT      O 3484   8.001   2.196   0.306
 1081WAT     H1 3485   8.024   2.280   0.257
 1081WAT     H2 3486   7.917   2.210   0.358
 1082WAT      O 3487   3.484   3.264   3.369
 1082WAT     H1 3488   3.501   3.252   3.271
 1082WAT     H2 3489   3.407   3.327   3.381
 1083WAT      O 3490   6.911   0.200   3.920
 1083WAT     H1 3491   6.941   0.239   4.008
 1083WAT     H2 3492   6.991   0.182   3.863
 1084WAT      O 3493   3.807   5.221   6.702
 1084WAT     H1 3494   3.733   5.287   6.695
 1084WAT     H2 3495   3.872   5.250   6.772
 1085WAT      O 3496   4.418   2.022   9.202
 1085WAT     H1 3497   4.491   2.087   9.180
 1085WAT     H2 3498   4.380   2.044   9.291
 1086WAT      O 3499   3.210   1.301   2.254
 1086WAT     H1 3500   3.183   1.284   2.159
 1086WAT     H2 3501   3.129   1.315   2.310
 1087WAT      O 3502   9.262   4.771   0.351
 1087WAT     H1 3503   9.246   4.775   0.252
 1087WAT     H2 3504   9.207   4.697   0.389
 1088WAT      O 3505   9.847   1.593   7.768
 1088WAT     H1 3506   9.884   1.501   7.759
 1088WAT     H2 3507   9.750   1.588   7.792
 1089WAT      O 3508   1.440   1.556   7.726
 1089WAT     H1 3509   1.353   1.596   7.756
 1089WAT     H2 3510   1.492   1.625   7.675
 1090WAT      O 3511   5.610   5.930   0.792
 1090WAT     H1 3512   5.622   5.980   0.878
 1090WAT     H2 3513   5.696   5.931   0.741
 1091WAT      O 3514   7.276   9.797   4.877
 1091WAT     H1 3515   7.202   9.731   4.887
 1091WAT     H2 3516   7.348   9.778   4.944
 1092WAT      O 3517   8.457   9.598   5.877
 1092WAT     H1 3518   8.455   9.528   5.806
 1092WAT     H2 3519   8.543   9.593   5.927
 1093WAT      O 3520   7.349   0.997   5.901
 1093WAT     H1 3521   7.277   0.936   5.869
 1093WAT     H2 3522   7.308   1.070   5.956
 1094WAT      O 3523   1.909   6.329   7.960
 1094WAT     H1 3524   1.857   6.309   8.043
 1094WAT     H2 3525   1.994   6.277   7.961
 1095WAT      O 3526   7.289   6.125   9.196
 1095WAT     H1 3527   7.258   6.120   9.291
 1095WAT     H2 3528   7.389   6.126   9.193
 1096WAT      O 3529   3.216   0.337   2.433
 1096WAT     H1 3530   3.260   0.321   2.522
 1096WAT     H2 3531   3.117   0.346   2.446
 1097WAT      O 3532   9.765   6.820   6.992
 1097WAT     H1 3533   9.679   6.784   6.956
 1097WAT     H2 3534   9.816   6.745   7.034
 1098WAT      O 3535   5.421   7.464   7.016
 1098WAT     H1 3536   5.371   7.482   7.101
 1098WAT     H2 3537   5.519   7.461   7.035
 1099WAT      O 3538   4.202   7.371   6.386
 1099WAT     H1 3539   4.162   7.299   6.330
 1099WAT     H2 3540   4.245   7.440   6.327
 1100WAT      O 3541   9.738   3.239   9.202
 1100WAT     H1 3542   9.789   3.295   9.267
 1100WAT     H2 3543   9.681   3.298   9.145
 1101WAT      O 3544   7.552   2.288   9.409
 1101WAT     H1 3545   7.640   2.272   9.455
 1101WAT     H2 3546   7.480   2.297   9.477
 1102WAT      O 3547   8.721   2.635   5.719
 1102WAT     H1 3548   8.682   2.704   5.658
 1102WAT     H2 3549   8.803   2.673   5.763
 1103WAT      O 3550   3.104   2.791   8.791
 1103WAT     H1 3551   3.145   2.822   8.877
 1103WAT     H2 3552   3.110   2.863   8.723
 1104WAT      O 3553   1.362   5.596   3.727
 1104WAT     H1 3554   1.437   5.649   3.768
 1104WAT     H2 3555   1.281   5.602   3.785
 1105WAT      O 3556   1.468   0.959   2.430
 1105WAT     H1 3557   1.443   0.884   2.368
 1105WAT     H2 3558   1.563   0.984   2.414
 1106WAT      O 3559   0.128   0.342   5.914
 1106WAT     H1 3560   0.058   0.413   5.923
 1106WAT     H2 3561   0.090   0.265   5.864
 1107WAT      O 3562   7.057   2.696   8.865
 1107WAT     H1 3563   7.123   2.759   8.825
 1107WAT     H2 3564   7.071   2.691   8.964
 1108WAT      O 3565   3.241   8.108   3.914
 1108WAT     H1 3566   3.307   8.121   3.989
 1108WAT     H2 3567   3.189   8.024   3.930
 1109WAT      O 3568   5.309   0.372   4.458
 1109WAT     H1 3569   5.229   0.324   4.421
 1109WAT     H2 3570   5.387   0.309   4.460
 1110WAT      O 3571   5.298   8.624   2.290
 1110WAT     H1 3572   5.398   8.621   2.290
 1110WAT     H2 3573   5.261   8.532   2.273
 1111WAT      O 3574   2.274   6.593   0.635
 1111WAT     H1 3575   2.359   6.543   0.653
 1111WAT     H2 3576   2.285   6.648   0.552
 1112WAT      O 3577   2.464   8.985   9.867
 1112WAT     H1 3578   2.457   8.886   9.879
 1112WAT     H2 3579   2.378   9.028   9.896
 1113WAT      O 3580   8.764   0.550   7.800
 1113WAT     H1 3581   8.731   0.643   7.818
 1113WAT     H2 3582   8.720   0.514   7.718
 1114WAT      O 3583   4.871   9.201   9.251
 1114WAT     H1 3584   4.895   9.281   9.306
 1114WAT     H2 3585   4.791   9.156   9.290
 1115WAT      O 3586   2.939   9.230   1.997
 1115WAT     H1 3587   2.894   9.297   2.057
 1115WAT     H2 3588   2.890   9.143   2.001
 1116WAT      O 3589   3.232   4.126   4.368
 1116WAT     H1 3590   3.307   4.122   4.303
 1116WAT     H2 3591   3.149   4.088   4.326
 1117WAT      O 3592   5.326   8.428   9.084
 1117WAT     H1 3593   5.297   8.508   9.031
 1117WAT     H2 3594   5.278   8.427   9.172
 1118WAT      O 3595   5.393   6.887   6.125
 1118WAT     H1 3596   5.478   6.931   6.153
 1118WAT     H2 3597   5.407   6.837   6.040
 1119WAT      O 3598   9.779   6.641   1.327
 1119WAT     H1 3599   9.772   6.576   1.402
 1119WAT     H2 3600   9.875   6.664   1.312
 1120WAT      O 3601   7.856   2.598   9.770
 1120WAT     H1 3602   7.796   2.615   9.848
 1120WAT     H2 3603   7.906   2.513   9.784
 1121WAT      O 3604   5.859   3.619   9.318
 1121WAT     H1 3605   5.776   3.571   9.289
 1121WAT     H2 3606   5.834   3.696   9.376
 1122WAT      O 3607   5.848   9.637   0.433
 1122WAT     H1 3608   5.816   9.560   0.378
 1122WAT     H2 3609   5.943   9.620   0.461
 1123WAT      O 3610   4.962   1.943   2.012
 1123WAT     H1 3611   4.935   1.877   2.082
 1123WAT     H2 3612   5.022   2.012   2.052
 1124WAT      O 3613   7.172   3.364   2.687
 1124WAT     H1 3614   7.120   3.298   2.740
 1124WAT     H2 3615   7.202   3.439   2.746
 1125WAT      O 3616   4.008   6.970   6.437
 1125WAT     H1 3617   3.933   6.955   6.372
 1125WAT     H2 3618   4.095   6.941   6.395
 1126WAT      O 3619   1.654   0.792   8.369
 1126WAT     H1 3620   1.667   0.741   8.284
 1126WAT     H2 3621   1.569   0.763   8.414
 1127WAT      O 3622   0.523   9.282   1.490
 1127WAT     H1 3623   0.552   9.291   1.585
 1127WAT     H2 3624   0.424   9.277   1.486
 1128WAT      O 3625   3.133   0.083   8.602
 1128WAT     H1 3626   3.182   0.083   8.690
 1128WAT     H2 3627   3.146   0.171   8.557
 1129WAT      O 3628   5.792   2.352   0.243
 1129WAT     H1 3629   5.869   2.397   0.199
 1129WAT     H2 3630   5.707   2.400   0.221
 1130WAT      O 3631   5.033   3.985   3.414
 1130WAT     H1 3632   4.942   3.964   3.450
 1130WAT     H2 3633   5.025   4.015   3.318
 1131WAT      O 3634   6.789   2.379   8.684
 1131WAT     H1 3635   6.738   2.378   8.598
 1131WAT     H2 3636   6.787   2.471   8.722
 1132WAT      O 3637   6.595   0.235   4.722
 1132WAT     H1 3638   6.554   0.146   4.700
 1132WAT     H2 3639   6.676   0.220   4.780
 1133WAT      O 3640   1.219   9.807   3.659
 1133WAT     H1 3641   1.259   9.725   3.700
 1133WAT     H2 3642   1.121   9.792   3.645
 1134WAT      O 3643   5.977   3.369   7.447
 1134WAT     H1 3644   6.028   3.302   7.394
 1134WAT     H2 3645   5.992   3.461   7.410
 1135WAT      O 3646   8.926   9.727   5.127
 1135WAT     H1 3647   8.828   9.720   5.147
 1135WAT     H2 3648   8.948   9.672   5.046
 1136WAT      O 3649   3.180   2.454   4.474
 1136WAT     H1 3650   3.166   2.362   4.511
 1136WAT     H2 3651   3.118   2.470   4.397
 1137WAT      O 3652   5.855   8.517   7.907
 1137WAT     H1 3653   5.778   8.485   7.851
 1137WAT     H2 3654   5.892   8.602   7.868
 1138WAT      O 3655   8.692   4.621   7.410
 1138WAT     H1 3656   8.720   4.714   7.386
 1138WAT     H2 3657   8.615   4.594   7.352
 1139WAT      O 3658   1.958   2.081   1.669
 1139WAT     H1 3659   1.953   1.999   1.611
 1139WAT     H2 3660   2.001   2.155   1.617
 1140WAT      O 3661   3.808   5.546   2.395
 1140WAT     H1 3662   3.802   5.633   2.346
 1140WAT     H2 3663   3.901   5.536   2.432
 1141WAT      O 3664   3.607   7.078   5.774
 1141WAT     H1 3665   3.650   7.070   5.684
 1141WAT     H2 3666   3.568   6.990   5.800
 1142WAT      O 3667   2.624   5.930   6.787
 1142WAT     H1 3668   2.702   5.876   6.818
 1142WAT     H2 3669   2.655   5.999   6.722
 1143WAT      O 3670   1.466   3.917   1.308
 1143WAT     H1 3671   1.437   3.834   1.356
 1143WAT     H2 3672   1.518   3.975   1.371
 1144WAT      O 3673   0.343   3.160   2.467
 1144WAT     H1 3674   0.439   3.185   2.464
 1144WAT     H2 3675   0.286   3.240   2.449
 1145WAT      O 3676   9.770   5.410   8.287
 1145WAT     H1 3677   9.846   5.345   8.292
 1145WAT     H2 3678   9.807   5.503   8.282
 1146WAT      O 3679   2.234   1.326   3.785
 1146WAT     H1 3680   2.277   1.369   3.864
 1146WAT     H2 3681   2.140   1.361   3.775
 1147WAT      O 3682   1.011   6.265   9.496
 1147WAT     H1 3683   1.109   6.281   9.511
 1147WAT     H2 3684   0.986   6.176   9.536
 1148WAT      O 3685   2.655   8.734   6.206
 1148WAT     H1 3686   2.627   8.655   6.152
 1148WAT     H2 3687   2.590   8.748   6.281
 1149WAT      O 3688   5.485   2.865   1.161
 1149WAT     H1 3689   5.564   2.808   1.141
 1149WAT     H2 3690   5.512   2.940   1.222
 1150WAT      O 3691   0.431   2.045   6.908
 1150WAT     H1 3692   0.411   2.058   7.005
 1150WAT     H2 3693   0.489   2.120   6.875
 1151WAT      O 3694   6.664   3.273   9.879
 1151WAT     H1 3695   6.582   3.287   9.935
 1151WAT     H2 3696   6.733   3.341   9.904
 1152WAT      O 3697   6.509   0.199   4.278
 1152WAT     H1 3698   6.575   0.262   4.320
 1152WAT     H2 3699   6.553   0.150   4.203
 1153WAT      O 3700   4.213   5.286   2.954
 1153WAT     H1 3701   4.126   5.317   2.994
 1153WAT     H2 3702   4.289   5.314   3.013
 1154WAT      O 3703   6.395   3.133   8.565
 1154WAT     H1 3704   6.403   3.143   8.664
 1154WAT     H2 3705   6.378   3.038   8.542
 1155WAT      O 3706   4.233   4.435   1.351
 1155WAT     H1 3707   4.166   4.415   1.423
 1155WAT     H2 3708   4.219   4.372   1.275
 1156WAT      O 3709   4.665   7.036   5.115
 1156WAT     H1 3710   4.750   6.999   5.078
 1156WAT     H2 3711   4.678   7.132   5.138
 1157WAT      O 3712   4.010   9.589   5.782
 1157WAT     H1 3713   3.996   9.495   5.813
 1157WAT     H2 3714   4.057   9.641   5.853
 1158WAT      O 3715   5.018   5.774   7.929
 1158WAT     H1 3716   5.000   5.689   7.979
 1158WAT     H2 3717   4.958   5.846   7.963
 1159WAT      O 3718   8.222   2.650   8.012
 1159WAT     H1 3719   8.161   2.718   7.972
 1159WAT     H2 3720   8.305   2.642   7.957
 1160WAT      O 3721   8.918   2.039   9.828
 1160WAT     H1 3722   8.977   2.045   9.908
 1160WAT     H2 3723   8.955   2.096   9.755
 1161WAT      O 3724   0.927   2.160   6.316
 1161WAT     H1 3725   0.850   2.174   6.253
 1161WAT     H2 3726   1.012   2.188   6.272
 1162WAT      O 3727   1.275   7.676   7.149
 1162WAT     H1 3728   1.347   7.699   7.214
 1162WAT     H2 3729   1.200   7.629   7.197
 1163WAT      O 3730   5.529   0.400   5.140
 1163WAT     H1 3731   5.475   0.323   5.174
 1163WAT     H2 3732   5.470   0.462   5.088
 1164WAT      O 3733   7.490   6.451   7.925
 1164WAT     H1 3734   7.546   6.499   7.993
 1164WAT     H2 3735   7.404   6.501   7.912
 1165WAT      O 3736   0.587   5.440   8.631
 1165WAT     H1 3737   0.498   5.393   8.631
 1165WAT     H2 3738   0.577   5.531   8.592
 1166WAT      O 3739   1.638   5.266   9.238
 1166WAT     H1 3740   1.575   5.208   9.291
 1166WAT     H2 3741   1.619   5.362   9.258
 1167WAT      O 3742   0.022   0.396   3.457
 1167WAT     H1 3743   0.113   0.435   3.447
 1167WAT     H2 3744  -0.034   0.421   3.378
 1168WAT      O 3745   2.453   4.289   1.170
 1168WAT     H1 3746   2.357   4.267   1.190
 1168WAT     H2 3747   2.497   4.208   1.131
 1169WAT      O 3748   7.302   2.029   8.313
 1169WAT     H1 3749   7.356   1.987   8.386
 1169WAT     H2 3750   7.251   1.958   8.265
 1170WAT      O 3751   9.219   6.515   9.360
 1170WAT     H1 3752   9.249   6.595   9.310
 1170WAT     H2 3753   9.272   6.435   9.331
 1171WAT      O 3754   3.024   2.467   7.043
 1171WAT     H1 3755   3.063   2.558   7.034
 1171WAT     H2 3756   3.094   2.403   7.075
 1172WAT      O 3757   8.584   9.419   5.666
 1172WAT     H1 3758   8.643   9.496   5.690
 1172WAT     H2 3759   8.625   9.367   5.591
 1173WAT      O 3760   5.902   9.725   8.165
 1173WAT     H1 3761   5.965   9.800   8.184
 1173WAT     H2 3762   5.920   9.649   8.227
 1174WAT      O 3763   7.744   3.629   1.479
 1174WAT     H1 3764   7.663   3.678   1.450
 1174WAT     H2 3765   7.752   3.632   1.578
 1175WAT      O 3766   8.244   1.748   1.338
 1175WAT     H1 3767   8.223   1.706   1.249
 1175WAT     H2 3768   8.297   1.683   1.393
 1176WAT      O 3769   4.529   9.518   2.508
 1176WAT     H1 3770   4.436   9.552   2.496
 1176WAT     H2 3771   4.546   9.502   2.606
 1177WAT      O 3772   2.428   9.802   7.589
 1177WAT     H1 3773   2.370   9.835   7.663
 1177WAT     H2 3774   2.424   9.866   7.512
 1178WAT      O 3775   2.818   8.506   8.928
 1178WAT     H1 3776   2.750   8.434   8.942
 1178WAT     H2 3777   2.777   8.581   8.876
 1179WAT      O 3778   4.839   8.393   4.937
 1179WAT     H1 3779   4.831   8.312   4.880
 1179WAT     H2 3780   4.814   8.370   5.031
 1180WAT      O 3781   9.870   3.696   4.896
 1180WAT     H1 3782   9.923   3.655   4.970
 1180WAT     H2 3783   9.914   3.782   4.868
 1181WAT      O 3784   0.566   4.980   7.586
 1181WAT     H1 3785   0.555   4.887   7.551
 1181WAT     H2 3786   0.662   4.997   7.608
 1182WAT      O 3787   8.695   5.946   6.366
 1182WAT     H1 3788   8.710   6.033   6.414
 1182WAT     H2 3789   8.764   5.880   6.393
 1183WAT      O 3790   6.317   0.975   6.473
 1183WAT     H1 3791   6.350   0.986   6.567
 1183WAT     H2 3792   6.384   0.922   6.420
 1184WAT      O 3793   1.636   1.416   8.966
 1184WAT     H1 3794   1.616   1.362   8.885
 1184WAT     H2 3795   1.551   1.448   9.007
 1185WAT      O 3796   7.168   1.319   5.242
 1185WAT     H1 3797   7.135   1.331   5.335
 1185WAT     H2 3798   7.216   1.231   5.234
 1186WAT      O 3799   6.714   3.689   5.072
 1186WAT     H1 3800   6.624   3.672   5.031
 1186WAT     H2 3801   6.705   3.692   5.171
 1187WAT      O 3802   2.250   0.119   4.989
 1187WAT     H1 3803   2.268   0.021   4.997
 1187WAT     H2 3804   2.273   0.165   5.075
 1188WAT      O 3805   2.040   3.141   9.032
 1188WAT     H1 3806   2.036   3.154   8.933
 1188WAT     H2 3807   2.016   3.227   9.078
 1189WAT      O 3808   1.785   5.682   0.415
 1189WAT     H1 3809   1.837   5.677   0.500
 1189WAT     H2 3810   1.780   5.777   0.384
 1190WAT      O 3811   7.407   9.833   4.288
 1190WAT     H1 3812   7.498   9.812   4.323
 1190WAT     H2 3813   7.348   9.860   4.364
 1191WAT      O 3814   1.725   4.266   7.368
 1191WAT     H1 3815   1.770   4.356   7.368
 1191WAT     H2 3816   1.680   4.252   7.455
 1192WAT      O 3817   3.842   7.111   2.978
 1192WAT     H1 3818   3.887   7.026   2.952
 1192WAT     H2 3819   3.841   7.173   2.898
 1193WAT      O 3820   3.055   3.423   0.690
 1193WAT     H1 3821   3.054   3.323   0.685
 1193WAT     H2 3822   3.062   3.453   0.785
 1194WAT      O 3823   1.987   6.726   2.120
 1194WAT     H1 3824   1.944   6.780   2.047
 1194WAT     H2 3825   1.938   6.743   2.206
 1195WAT      O 3826   3.806   5.295   2.869
 1195WAT     H1 3827   3.853   5.245   2.795
 1195WAT     H2 3828   3.863   5.293   2.951
 1196WAT      O 3829   5.896   3.511   0.892
 1196WAT     H1 3830   5.868   3.599   0.931
 1196WAT     H2 3831   5.860   3.437   0.948
 1197WAT      O 3832   6.195   3.332   9.864
 1197WAT     H1 3833   6.115   3.280   9.894
 1197WAT     H2 3834   6.193   3.422   9.908
 1198WAT      O 3835   0.951   0.854   3.532
 1198WAT     H1 3836   0.897   0.889   3.608
 1198WAT     H2 3837   0.890   0.810   3.466
 1199WAT      O 3838   2.551   8.189   1.025
 1199WAT     H1 3839   2.499   8.141   0.954
 1199WAT     H2 3840   2.491   8.254   1.071
 1200WAT      O 3841   5.207   6.848   0.361
 1200WAT     H1 3842   5.108   6.861   0.365
 1200WAT     H2 3843   5.228   6.755   0.331
 1201WAT      O 3844   0.110   8.533   8.514
 1201WAT     H1 3845   0.032   8.593   8.531
 1201WAT     H2 3846   0.158   8.561   8.432
 1202WAT      O 3847   3.562   8.199   7.610
 1202WAT     H1 3848   3.593   8.197   7.705
 1202WAT     H2 3849   3.561   8.106   7.573
 1203WAT      O 3850   8.782   6.830   6.282
 1203WAT     H1 3851   8.705   6.791   6.332
 1203WAT     H2 3852   8.795   6.779   6.196
 1204WAT      O 3853   6.857   7.860   8.500
 1204WAT     H1 3854   6.936   7.800   8.513
 1204WAT     H2 3855   6.806   7.830   8.419
 1205WAT      O 3856   4.091   5.174   9.222
 1205WAT     H1 3857   4.096   5.092   9.279
 1205WAT     H2 3858   4.182   5.198   9.189
 1206WAT      O 3859   3.417   0.019   7.330
 1206WAT     H1 3860   3.470   0.014   7.245
 1206WAT     H2 3861   3.412  -0.071   7.372
 1207WAT      O 3862   2.413   5.944   1.598
 1207WAT     H1 3863   2.332   5.925   1.543
 1207WAT     H2 3864   2.417   5.880   1.675
 1208WAT      O 3865   3.543   6.569   9.458
 1208WAT     H1 3866   3.496   6.527   9.380
 1208WAT     H2 3867   3.501   6.658   9.477
 1209WAT      O 3868   4.845   4.484   3.339
 1209WAT     H1 3869   4.932   4.533   3.345
 1209WAT     H2 3870   4.810   4.468   3.430
 1210WAT      O 3871   2.666   7.610   7.462
 1210WAT     H1 3872   2.630   7.702   7.448
 1210WAT     H2 3873   2.611   7.544   7.410
 1211WAT      O 3874   4.990   4.164   3.633
 1211WAT     H1 3875   4.945   4.249   3.606
 1211WAT     H2 3876   4.953   4.088   3.578
 1212WAT      O 3877   4.294   7.356   1.144
 1212WAT     H1 3878   4.374   7.374   1.087
 1212WAT     H2 3879   4.254   7.442   1.174
 1213WAT      O 3880   7.015   2.688   1.763
 1213WAT     H1 3881   7.088   2.727   1.708
 1213WAT     H2 3882   6.926   2.714   1.724
 1214WAT      O 3883   2.084   4.291   5.769
 1214WAT     H1 3884   1.985   4.301   5.772
 1214WAT     H2 3885   2.126   4.377   5.739
 1215WAT      O 3886   4.367   6.680   1.630
 1215WAT     H1 3887   4.309   6.647   1.705
 1215WAT     H2 3888   4.444   6.731   1.667
 1216WAT      O 3889   9.068   1.348   6.116
 1216WAT     H1 3890   8.998   1.310   6.176
 1216WAT     H2 3891   9.088   1.283   6.043
 1217WAT      O 3892   0.752   1.657   5.176
 1217WAT     H1 3893   0.810   1.622   5.250
 1217WAT     H2 3894   0.809   1.674   5.095
 1218WAT      O 3895   4.760   1.241   4.473
 1218WAT     H1 3896   4.781   1.244   4.375
 1218WAT     H2 3897   4.680   1.183   4.488
 1219WAT      O 3898   6.562   2.673   1.666
 1219WAT     H1 3899   6.522   2.764   1.680
 1219WAT     H2 3900   6.551   2.646   1.571
 1220WAT      O 3901   1.929   8.736   8.183
 1220WAT     H1 3902   1.833   8.714   8.163
 1220WAT     H2 3903   1.959   8.684   8.263
 1221WAT      O 3904   9.176   5.145   6.021
 1221WAT     H1 3905   9.173   5.114   5.925
 1221WAT     H2 3906   9.246   5.093   6.070
 1222WAT      O 3907   1.017   3.180   7.975
 1222WAT     H1 3908   1.115   3.177   7.952
 1222WAT     H2 3909   0.965   3.129   7.906
 1223WAT      O 3910   5.428   7.741   0.375
 1223WAT     H1 3911   5.442   7.822   0.318
 1223WAT     H2 3912   5.514   7.692   0.384
 1224WAT      O 3913   2.345   5.719   7.998
 1224WAT     H1 3914   2.339   5.751   7.904
 1224WAT     H2 3915   2.404   5.638   8.003
 1225WAT      O 3916   4.136   8.492   5.305
 1225WAT     H1 3917   4.125   8.393   5.297
 1225WAT     H2 3918   4.057   8.531   5.352
 1226WAT      O 3919   4.164   9.256   5.905
 1226WAT     H1 3920   4.067   9.281   5.902
 1226WAT     H2 3921   4.175   9.175   5.962
 1227WAT      O 3922   5.075   1.101   3.110
 1227WAT     H1 3923   5.160   1.050   3.119
 1227WAT     H2 3924   4.998   1.037   3.114
 1228WAT      O 3925   7.236   3.056   9.756
 1228WAT     H1 3926   7.255   2.970   9.708
 1228WAT     H2 3927   7.316   3.083   9.809
 1229WAT      O 3928   9.836   8.907   1.445
 1229WAT     H1 3929   9.893   8.908   1.527
 1229WAT     H2 3930   9.740   8.920   1.471
 1230WAT      O 3931   8.901   1.649   2.852
 1230WAT     H1 3932   8.988   1.608   2.826
 1230WAT     H2 3933   8.838   1.577   2.883
 1231WAT      O 3934   1.884   5.223   5.289
 1231WAT     H1 3935   1.894   5.318   5.262
 1231WAT     H2 3936   1.823   5.176   5.224
 1232WAT      O 3937   9.112   9.545   1.055
 1232WAT     H1 3938   9.153   9.564   0.966
 1232WAT     H2 3939   9.034   9.483   1.043
 1233WAT      O 3940   2.369   1.806   7.138
 1233WAT     H1 3941   2.336   1.859   7.060
 1233WAT     H2 3942   2.291   1.767   7.187
 1234WAT      O 3943   9.789   9.440   1.632
 1234WAT     H1 3944   9.702   9.487   1.614
 1234WAT     H2 3945   9.771   9.342   1.640
 1235WAT      O 3946   8.893   8.395   9.183
 1235WAT     H1 3947   8.841   8.458   9.239
 1235WAT     H2 3948   8.845   8.307   9.178
 1236WAT      O 3949   3.279   1.080   1.371
 1236WAT     H1 3950   3.260   1.021   1.293
 1236WAT     H2 3951   3.374   1.069   1.399
 1237WAT      O 3952   8.137   7.287   5.508
 1237WAT     H1 3953   8.219   7.278   5.564
 1237WAT     H2 3954   8.126   7.204   5.452
 1238WAT      O 3955   5.176   2.184   0.304
 1238WAT     H1 3956   5.146   2.253   0.370
 1238WAT     H2 3957   5.143   2.208   0.213
 1239WAT      O 3958   4.229   2.366   3.133
 1239WAT     H1 3959   4.185   2.349   3.045
 1239WAT     H2 3960   4.244   2.279   3.180
 1240WAT      O 3961   6.781   1.329   8.300
 1240WAT     H1 3962   6.716   1.382   8.247
 1240WAT     H2 3963   6.792   1.370   8.391
 1241WAT      O 3964   9.881   6.989   2.102
 1241WAT     H1 3965   9.876   7.073   2.156
 1241WAT     H2 3966   9.946   7.002   2.027
 1242WAT      O 3967   2.851   0.094   1.247
 1242WAT     H1 3968   2.803   0.180   1.265
 1242WAT     H2 3969   2.897   0.099   1.158
 1243WAT      O 3970   1.210   9.509   1.082
 1243WAT     H1 3971   1.265   9.432   1.047
 1243WAT     H2 3972   1.181   9.489   1.175
 1244WAT      O 3973   1.697   4.910   6.306
 1244WAT     H1 3974   1.771   4.950   6.361
 1244WAT     H2 3975   1.736   4.862   6.227
 1245WAT      O 3976   0.950   5.421   1.741
 1245WAT     H1 3977   0.918   5.516   1.742
 1245WAT     H2 3978   0.924   5.378   1.654
 1246WAT      O 3979   9.476   5.604   8.055
 1246WAT     H1 3980   9.390   5.649   8.030
 1246WAT     H2 3981   9.485   5.518   8.005
 1247WAT      O 3982   4.701   6.986   2.555
 1247WAT     H1 3983   4.763   7.027   2.622
 1247WAT     H2 3984   4.751   6.918   2.501
 1248WAT      O 3985   6.556   8.791   8.156
 1248WAT     H1 3986   6.640   8.844   8.143
 1248WAT     H2 3987   6.506   8.786   8.070
 1249WAT      O 3988   8.031   3.882   3.223
 1249WAT     H1 3989   7.998   3.915   3.134
 1249WAT     H2 3990   7.961   3.826   3.267
 1250WAT      O 3991   1.457   3.465   1.398
 1250WAT     H1 3992   1.436   3.476   1.301
 1250WAT     H2 3993   1.473   3.368   1.418
 1251WAT      O 3994   9.079   3.466   6.595
 1251WAT     H1 3995   9.143   3.465   6.519
 1251WAT     H2 3996   8.998   3.519   6.570
 1252WAT      O 3997   2.865   1.907   5.271
 1252WAT     H1 3998   2.819   1.851   5.340
 1252WAT     H2 3999   2.799   1.969   5.228
 1253WAT      O 4000   0.994   1.833   0.136
 1253WAT     H1 4001   1.062   1.800   0.201
 1253WAT     H2 4002   1.036   1.899   0.074
 1254WAT      O 4003   6.819   9.752   8.069
 1254WAT     H1 4004   6.844   9.820   8.000
 1254WAT     H2 4005   6.724   9.766   8.097
 1255WAT      O 4006   4.097   3.191   3.000
 1255WAT     H1 4007   4.116   3.279   2.957
 1255WAT     H2 4008   4.164   3.124   2.970
 1256WAT      O 4009   8.819   6.447   9.334
 1256WAT     H1 4010   8.872   6.522   9.375
 1256WAT     H2 4011   8.834   6.363   9.386
 1257WAT      O 4012   6.803   6.236   7.316
 1257WAT     H1 4013   6.864   6.209   7.241
 1257WAT     H2 4014   6.854   6.291   7.383
 1258WAT      O 4015   2.383   2.185   0.426
 1258WAT     H1 4016   2.414   2.213   0.336
 1258WAT     H2 4017   2.296   2.135   0.417
 1259WAT      O 4018   4.632   4.534   4.826
 1259WAT     H1 4019   4.555   4.596   4.811
 1259WAT     H2 4020   4.716   4.579   4.795
 1260WAT      O 4021   5.516   1.143   5.630
 1260WAT     H1 4022   5.563   1.101   5.552
 1260WAT     H2 4023   5.489   1.071   5.695
 1261WAT      O 4024   8.080   4.897   6.399
 1261WAT     H1 4025   8.140   4.878   6.476
 1261WAT     H2 4026   7.985   4.895   6.429
 1262WAT      O 4027   0.457   3.566   2.993
 1262WAT     H1 4028   0.556   3.557   2.984
 1262WAT     H2 4029   0.415   3.567   2.902
 1263WAT      O 4030   8.612   1.953   5.494
 1263WAT     H1 4031   8.517   1.972   5.468
 1263WAT     H2 4032   8.641   2.020   5.563
 1264WAT      O 4033   5.947   2.558   3.015
 1264WAT     H1 4034   5.864   2.609   2.992
 1264WAT     H2 4035   5.951   2.474   2.961
 1265WAT      O 4036   4.035   8.756   1.494
 1265WAT     H1 4037   4.057   8.850   1.469
 1265WAT     H2 4038   4.116   8.698   1.484
 1266WAT      O 4039   7.533   1.824   3.276
 1266WAT     H1 4040   7.485   1.738   3.295
 1266WAT     H2 4041   7.595   1.811   3.199
 1267WAT      O 4042   5.555   3.850   4.785
 1267WAT     H1 4043   5.563   3.816   4.879
 1267WAT     H2 4044   5.543   3.772   4.723
 1268WAT      O 4045   7.516   0.572   9.517
 1268WAT     H1 4046   7.510   0.651   9.456
 1268WAT     H2 4047   7.465   0.591   9.601
 1269WAT      O 4048   0.836   2.171   8.930
 1269WAT     H1 4049   0.787   2.258   8.924
 1269WAT     H2 4050   0.783   2.100   8.882
 1270WAT      O 4051   4.705   8.584   9.029
 1270WAT     H1 4052   4.623   8.536   9.060
 1270WAT     H2 4053   4.704   8.678   9.063
 1271WAT      O 4054   5.047   4.625   6.828
 1271WAT     H1 4055   5.076   4.566   6.903
 1271WAT     H2 4056   5.116   4.697   6.814
 1272WAT      O 4057   3.712   6.359   4.882
 1272WAT     H1 4058   3.612   6.353   4.879
 1272WAT     H2 4059   3.739   6.455   4.892
 1273WAT      O 4060   7.498   2.037   0.649
 1273WAT     H1 4061   7.561   1.959   0.644
 1273WAT     H2 4062   7.430   2.020   0.720
 1274WAT      O 4063   2.996   1.291   7.411
 1274WAT     H1 4064   3.040   1.242   7.336
 1274WAT     H2 4065   2.911   1.332   7.379
 1275WAT      O 4066   4.311   8.537   0.011
 1275WAT     H1 4067   4.357   8.616  -0.028
 1275WAT     H2 4068   4.377   8.481   0.061
 1276WAT      O 4069   7.379   5.763   9.781
 1276WAT     H1 4070   7.354   5.728   9.872
 1276WAT     H2 4071   7.299   5.807   9.740
 1277WAT      O 4072   8.321   0.498   3.157
 1277WAT     H1 4073   8.282   0.489   3.249
 1277WAT     H2 4074   8.248   0.490   3.089
 1278WAT      O 4075   3.011   7.897   1.958
 1278WAT     H1 4076   3.024   7.992   1.987
 1278WAT     H2 4077   3.100   7.853   1.946
 1279WAT      O 4078   7.732   3.822   3.182
 1279WAT     H1 4079   7.792   3.897   3.154
 1279WAT     H2 4080   7.729   3.753   3.110
 1280WAT      O 4081   7.156   9.202   5.051
 1280WAT     H1 4082   7.111   9.127   5.101
 1280WAT     H2 4083   7.136   9.193   4.954
 1281WAT      O 4084   4.944   4.544   1.180
 1281WAT     H1 4085   5.024   4.536   1.120
 1281WAT     H2 4086   4.943   4.635   1.221
 1282WAT      O 4087   5.396   6.668   9.273
 1282WAT     H1 4088   5.330   6.632   9.208
 1282WAT     H2 4089   5.431   6.755   9.241
 1283WAT      O 4090   0.161   3.718   2.063
 1283WAT     H1 4091   0.209   3.667   1.992
 1283WAT     H2 4092   0.209   3.707   2.150
 1284WAT      O 4093   9.169   4.132   1.507
 1284WAT     H1 4094   9.104   4.194   1.549
 1284WAT     H2 4095   9.261   4.171   1.513
 1285WAT      O 4096   0.873   0.382   2.881
 1285WAT     H1 4097   0.906   0.477   2.885
 1285WAT     H2 4098   0.866   0.354   2.785
 1286WAT      O 4099   6.180   8.628   0.408
 1286WAT     H1 4100   6.190   8.710   0.351
 1286WAT     H2 4101   6.231   8.553   0.367
 1287WAT      O 4102   3.468   8.788   6.410
 1287WAT     H1 4103   3.390   8.849   6.428
 1287WAT     H2 4104   3.530   8.790   6.488
 1288WAT      O 4105   3.551   2.227   2.155
 1288WAT     H1 4106   3.461   2.219   2.111
 1288WAT     H2 4107   3.617   2.172   2.104
 1289WAT      O 4108   7.767   8.919   5.529
 1289WAT     H1 4109   7.797   9.011   5.505
 1289WAT     H2 4110   7.669   8.920   5.552
 1290WAT      O 4111   3.953   9.803   4.022
 1290WAT     H1 4112   4.050   9.817   4.005
 1290WAT     H2 4113   3.936   9.805   4.121
 1291WAT      O 4114   2.087   6.316   3.907
 1291WAT     H1 4115   1.993   6.310   3.873
 1291WAT     H2 4116   2.086   6.347   4.002
 1292WAT      O 4117   2.913   7.908   4.880
 1292WAT     H1 4118   2.843   7.971   4.913
 1292WAT     H2 4119   2.919   7.914   4.780
 1293WAT      O 4120   2.505   1.672   8.118
 1293WAT     H1 4121   2.558   1.742   8.166
 1293WAT     H2 4122   2.548   1.652   8.030
 1294WAT      O 4123   6.275   4.147   0.439
 1294WAT     H1 4124   6.274   4.053   0.473
 1294WAT     H2 4125   6.202   4.200   0.483
 1295WAT      O 4126   1.873   4.709   9.054
 1295WAT     H1 4127   1.873   4.709   8.954
 1295WAT     H2 4128   1.897   4.800   9.088
 1296WAT      O 4129   4.438   6.180   7.936
 1296WAT     H1 4130   4.487   6.229   7.863
 1296WAT     H2 4131   4.353   6.143   7.900
 1297WAT      O 4132   6.371   8.223   1.337
 1297WAT     H1 4133   6.391   8.197   1.431
 1297WAT     H2 4134   6.455   8.250   1.291
 1298WAT      O 4135   9.820   4.018   9.622
 1298WAT     H1 4136   9.773   3.932   9.641
 1298WAT     H2 4137   9.760   4.095   9.643
 1299WAT      O 4138   3.624   3.151   1.706
 1299WAT     H1 4139   3.666   3.135   1.795
 1299WAT     H2 4140   3.524   3.153   1.717
 1300WAT      O 4141   5.890   4.865   7.372
 1300WAT     H1 4142   5.945   4.782   7.369
 1300WAT     H2 4143   5.812   4.852   7.434
 1301WAT      O 4144   9.829   3.002   8.459
 1301WAT     H1 4145   9.833   2.951   8.373
 1301WAT     H2 4146   9.900   3.073   8.459
 1302WAT      O 4147   1.663   7.826   2.666
 1302WAT     H1 4148   1.598   7.813   2.590
 1302WAT     H2 4149   1.634   7.903   2.722
 1303WAT      O 4150   6.620   3.886   6.382
 1303WAT     H1 4151   6.555   3.850   6.316
 1303WAT     H2 4152   6.573   3.951   6.442
 1304WAT      O 4153   4.200   6.620   6.115
 1304WAT     H1 4154   4.223   6.590   6.207
 1304WAT     H2 4155   4.111   6.583   6.089
 1305WAT      O 4156   8.147   9.330   1.685
 1305WAT     H1 4157   8.239   9.352   1.653
 1305WAT     H2 4158   8.081   9.344   1.611
 1306WAT      O 4159   0.329   9.229   7.808
 1306WAT     H1 4160   0.291   9.211   7.899
 1306WAT     H2 4161   0.293   9.315   7.774
 1307WAT      O 4162   3.807   1.248   0.746
 1307WAT     H1 4163   3.846   1.155   0.743
 1307WAT     H2 4164   3.712   1.243   0.777
 1308WAT      O 4165   9.062   0.109   9.030
 1308WAT     H1 4166   9.027   0.180   9.091
 1308WAT     H2 4167   8.999   0.095   8.954
 1309WAT      O 4168   0.355   1.709   6.393
 1309WAT     H1 4169   0.258   1.711   6.369
 1309WAT     H2 4170   0.409   1.692   6.311
 1310WAT      O 4171   5.733   6.889   1.718
 1310WAT     H1 4172   5.760   6.982   1.745
 1310WAT     H2 4173   5.651   6.894   1.661
 1311WAT      O 4174   6.649   5.398   3.051
 1311WAT     H1 4175   6.667   5.495   3.070
 1311WAT     H2 4176   6.586   5.361   3.120
 1312WAT      O 4177   3.347   3.216   7.047
 1312WAT     H1 4178   3.324   3.248   6.955
 1312WAT     H2 4179   3.444   3.193   7.051
 1313WAT      O 4180   8.810   5.624   4.056
 1313WAT     H1 4181   8.767   5.582   4.135
 1313WAT     H2 4182   8.904   5.591   4.048
 1314WAT      O 4183   1.688   3.373   7.322
 1314WAT     H1 4184   1.735   3.288   7.299
 1314WAT     H2 4185   1.597   3.373   7.280
 1315WAT      O 4186   0.121   6.251   3.727
 1315WAT     H1 4187   0.184   6.184   3.687
 1315WAT     H2 4188   0.062   6.288   3.656
 1316WAT      O 4189   8.528   8.629   2.406
 1316WAT     H1 4190   8.582   8.688   2.346
 1316WAT     H2 4191   8.576   8.618   2.493
 1317WAT      O 4192   5.764   5.520   9.021
 1317WAT     H1 4193   5.795   5.452   8.955
 1317WAT     H2 4194   5.722   5.474   9.099
 1318WAT      O 4195   0.149   6.388   7.704
 1318WAT     H1 4196   0.228   6.428   7.749
 1318WAT     H2 4197   0.146   6.418   7.609
 1319WAT      O 4198   7.399   9.711   6.742
 1319WAT     H1 4199   7.309   9.676   6.769
 1319WAT     H2 4200   7.442   9.756   6.821
 1320WAT      O 4201   3.109   5.575   5.095
 1320WAT     H1 4202   3.111   5.543   5.189
 1320WAT     H2 4203   3.200   5.604   5.067
 1321WAT      O 4204   9.600   1.982   7.387
 1321WAT     H1 4205   9.587   2.081   7.381
 1321WAT     H2 4206   9.660   1.952   7.313
 1322WAT      O 4207   0.658   2.674   8.578
 1322WAT     H1 4208   0.654   2.574   8.584
 1322WAT     H2 4209   0.576   2.707   8.530
 1323WAT      O 4210   7.833   7.009   4.698
 1323WAT     H1 4211   7.836   6.950   4.617
 1323WAT     H2 4212   7.923   7.009   4.741
 1324WAT      O 4213   9.251   9.294   3.382
 1324WAT     H1 4214   9.161   9.318   3.421
 1324WAT     H2 4215   9.238   9.233   3.304
 1325WAT      O 4216   9.261   3.457   6.370
 1325WAT     H1 4217   9.355   3.425   6.356
 1325WAT     H2 4218   9.213   3.460   6.282
 1326WAT      O 4219   8.605   2.625   9.331
 1326WAT     H1 4220   8.680   2.580   9.283
 1326WAT     H2 4221   8.599   2.590   9.424
 1327WAT      O 4222   6.161   7.885   4.701
 1327WAT     H1 4223   6.153   7.786   4.713
 1327WAT     H2 4224   6.231   7.921   4.763
 1328WAT      O 4225   1.008   2.711   2.706
 1328WAT     H1 4226   1.103   2.715   2.675
 1328WAT     H2 4227   1.006   2.681   2.802
 1329WAT      O 4228   5.719   2.916   0.092
 1329WAT     H1 4229   5.775   2.851   0.143
 1329WAT     H2 4230   5.703   2.881   0.000
 1330WAT      O 4231   8.082   4.891   4.985
 1330WAT     H1 4232   8.125   4.938   5.063
 1330WAT     H2 4233   8.073   4.955   4.909
 1331WAT      O 4234   3.749   5.682   1.534
 1331WAT     H1 4235   3.788   5.768   1.568
 1331WAT     H2 4236   3.782   5.666   1.441
 1332WAT      O 4237   6.374   8.150   4.353
 1332WAT     H1 4238   6.318   8.078   4.393
 1332WAT     H2 4239   6.318   8.233   4.343
 1333WAT      O 4240   2.304   4.065   0.837
 1333WAT     H1 4241   2.263   4.150   0.873
 1333WAT     H2 4242   2.394   4.052   0.878
 1334WAT      O 4243   9.580   6.448   6.891
 1334WAT     H1 4244   9.676   6.423   6.907
 1334WAT     H2 4245   9.550   6.412   6.804
 1335WAT      O 4246   4.957   9.642   4.777
 1335WAT     H1 4247   4.920   9.735   4.769
 1335WAT     H2 4248   5.047   9.646   4.821
 1336WAT      O 4249   4.428   9.275   1.020
 1336WAT     H1 4250   4.432   9.358   1.076
 1336WAT     H2 4251   4.490   9.284   0.942
 1337WAT      O 4252   4.363   3.836   3.870
 1337WAT     H1 4253   4.306   3.837   3.953
 1337WAT     H2 4254   4.381   3.930   3.841
 1338WAT      O 4255   3.350   1.998   0.189
 1338WAT     H1 4256   3.437   2.027   0.231
 1338WAT     H2 4257   3.295   1.951   0.257
 1339WAT      O 4258   5.739   0.533   5.897
 1339WAT     H1 4259   5.669   0.536   5.826
 1339WAT     H2 4260   5.826   0.565   5.859
 1340WAT      O 4261   2.294   0.732   1.193
 1340WAT     H1 4262   2.344   0.708   1.276
 1340WAT     H2 4263   2.269   0.828   1.195
 1341WAT      O 4264   0.238   7.286   8.945
 1341WAT     H1 4265   0.178   7.230   8.888
 1341WAT     H2 4266   0.250   7.376   8.902
 1342WAT      O 4267   7.955   3.018   3.439
 1342WAT     H1 4268   7.893   3.007   3.362
 1342WAT     H2 4269   7.916   3.084   3.504
 1343WAT      O 4270   1.088   4.657   8.909
 1343WAT     H1 4271   1.154   4.629   8.979
 1343WAT     H2 4272   1.106   4.752   8.883
 1344WAT      O 4273   5.134   3.307   7.237
 1344WAT     H1 4274   5.081   3.227   7.210
 1344WAT     H2 4275   5.229   3.280   7.252
 1345WAT      O 4276   4.248   5.800   2.730
 1345WAT     H1 4277   4.197   5.834   2.810
 1345WAT     H2 4278   4.295   5.716   2.755
 1346WAT      O 4279   6.813   0.205   4.913
 1346WAT     H1 4280   6.803   0.237   5.007
 1346WAT     H2 4281   6.909   0.204   4.888
 1347WAT      O 4282   3.176   3.716   2.520
 1347WAT     H1 4283   3.232   3.793   2.551
 1347WAT     H2 4284   3.149   3.731   2.425
 1348WAT      O 4285   3.775   4.652   0.372
 1348WAT     H1 4286   3.848   4.719   0.384
 1348WAT     H2 4287   3.808   4.577   0.315
 1349WAT      O 4288   5.676   2.289   5.204
 1349WAT     H1 4289   5.734   2.210   5.222
 1349WAT     H2 4290   5.645   2.287   5.108
 1350WAT      O 4291   0.137   1.760   4.688
 1350WAT     H1 4292   0.089   1.846   4.669
 1350WAT     H2 4293   0.214   1.750   4.626
 1351WAT      O 4294   4.343   6.618   0.447
 1351WAT     H1 4295   4.379   6.577   0.531
 1351WAT     H2 4296   4.303   6.707   0.469
 1352WAT      O 4297   1.996   7.089   6.311
 1352WAT     H1 4298   1.914   7.056   6.262
 1352WAT     H2 4299   2.002   7.042   6.399
 1353WAT      O 4300   7.160   2.642   9.736
 1353WAT     H1 4301   7.229   2.715   9.726
 1353WAT     H2 4302   7.147   2.621   9.833
 1354WAT      O 4303   2.770   9.160   6.542
 1354WAT     H1 4304   2.782   9.257   6.520
 1354WAT     H2 4305   2.761   9.150   6.641
 1355WAT      O 4306   8.821   3.454   1.107
 1355WAT     H1 4307   8.728   3.493   1.101
 1355WAT     H2 4308   8.832   3.384   1.037
 1356WAT      O 4309   2.810   7.980   5.562
 1356WAT     H1 4310   2.848   8.053   5.506
 1356WAT     H2 4311   2.711   7.988   5.565
 1357WAT      O 4312   2.261   7.950   6.464
 1357WAT     H1 4313   2.248   7.913   6.372
 1357WAT     H2 4314   2.213   8.037   6.473
 1358WAT      O 4315   0.005   1.442   5.159
 1358WAT     H1 4316   0.035   1.537   5.148
 1358WAT     H2 4317   0.082   1.386   5.187
 1359WAT      O 4318   7.805   8.823   6.345
 1359WAT     H1 4319   7.816   8.918   6.374
 1359WAT     H2 4320   7.867   8.804   6.269
 1360WAT      O 4321   9.072   2.978   4.325
 1360WAT     H1 4322   8.975   2.960   4.340
 1360WAT     H2 4323   9.127   2.908   4.371
 1361WAT      O 4324   7.242   9.339   8.932
 1361WAT     H1 4325   7.260   9.354   9.029
 1361WAT     H2 4326   7.290   9.257   8.901
 1362WAT      O 4327   7.967   1.815   0.933
 1362WAT     H1 4328   8.063   1.844   0.942
 1362WAT     H2 4329   7.964   1.721   0.898
 1363WAT      O 4330   3.444   4.432   7.534
 1363WAT     H1 4331   3.475   4.356   7.591
 1363WAT     H2 4332   3.375   4.399   7.470
 1364WAT      O 4333   6.801   9.277   8.295
 1364WAT     H1 4334   6.807   9.247   8.200
 1364WAT     H2 4335   6.892   9.279   8.336
 1365WAT      O 4336   9.457   9.546   8.220
 1365WAT     H1 4337   9.414   9.594   8.296
 1365WAT     H2 4338   9.492   9.458   8.251
 1366WAT      O 4339   1.141   2.554   4.633
 1366WAT     H1 4340   1.211   2.581   4.699
 1366WAT     H2 4341   1.109   2.462   4.654
 1367WAT      O 4342   3.606   0.388   8.984
 1367WAT     H1 4343   3.517   0.408   9.025
 1367WAT     H2 4344   3.679   0.426   9.040
 1368WAT      O 4345   4.718   4.998   1.074
 1368WAT     H1 4346   4.763   5.082   1.045
 1368WAT     H2 4347   4.753   4.969   1.163
 1369WAT      O 4348   9.402   0.880   7.414
 1369WAT     H1 4349   9.459   0.816   7.464
 1369WAT     H2 4350   9.432   0.974   7.432
 1370WAT      O 4351   0.873   8.515   0.248
 1370WAT     H1 4352   0.930   8.436   0.269
 1370WAT     H2 4353   0.836   8.505   0.156
 1371WAT      O 4354   2.270   7.570   4.325
 1371WAT     H1 4355   2.177   7.606   4.333
 1371WAT     H2 4356   2.274   7.503   4.252
 1372WAT      O 4357   0.087   0.084   0.564
 1372WAT     H1 4358   0.127   0.027   0.636
 1372WAT     H2 4359   0.149   0.160   0.543
 1373WAT      O 4360   3.646   6.719   3.815
 1373WAT     H1 4361   3.740   6.717   3.782
 1373WAT     H2 4362   3.596   6.793   3.771
 1374WAT      O 4363   9.535   8.173   3.001
 1374WAT     H1 4364   9.481   8.231   3.062
 1374WAT     H2 4365   9.618   8.222   2.973
 1375WAT      O 4366   6.220   6.503   5.378
 1375WAT     H1 4367   6.314   6.499   5.409
 1375WAT     H2 4368   6.200   6.425   5.319
 1376WAT      O 4369   8.953   1.503   5.385
 1376WAT     H1 4370   8.856   1.485   5.400
 1376WAT     H2 4371   8.968   1.602   5.383
 1377WAT      O 4372   6.757   5.686   3.440
 1377WAT     H1 4373   6.797   5.774   3.417
 1377WAT     H2 4374   6.810   5.643   3.514
 1378WAT      O 4375   3.675   5.352   8.696
 1378WAT     H1 4376   3.684   5.446   8.727
 1378WAT     H2 4377   3.597   5.345   8.633
 1379WAT      O 4378   6.274   3.172   4.530
 1379WAT     H1 4379   6.330   3.102   4.575
 1379WAT     H2 4380   6.180   3.139   4.521
 1380WAT      O 4381   3.740   0.583   5.887
 1380WAT     H1 4382   3.731   0.541   5.797
 1380WAT     H2 4383   3.754   0.682   5.877
 1381WAT      O 4384   9.641   8.256   2.182
 1381WAT     H1 4385   9.613   8.339   2.133
 1381WAT     H2 4386   9.735   8.266   2.214
 1382WAT      O 4387   5.157   5.050   4.037
 1382WAT     H1 4388   5.109   5.096   4.112
 1382WAT     H2 4389   5.255   5.047   4.057
 1383WAT      O 4390   1.875   0.194   8.080
 1383WAT     H1 4391   1.793   0.175   8.135
 1383WAT     H2 4392   1.895   0.292   8.082
 1384WAT      O 4393   2.045   1.029   5.239
 1384WAT     H1 4394   2.017   0.933   5.237
 1384WAT     H2 4395   2.125   1.041   5.179
 1385WAT      O 4396   0.344   4.366   1.447
 1385WAT     H1 4397   0.397   4.283   1.433
 1385WAT     H2 4398   0.246   4.345   1.436
 1386WAT      O 4399   1.217   7.793   2.465
 1386WAT     H1 4400   1.170   7.838   2.389
 1386WAT     H2 4401   1.153   7.731   2.510
 1387WAT      O 4402   9.844   3.121   3.673
 1387WAT     H1 4403   9.790   3.132   3.757
 1387WAT     H2 4404   9.793   3.066   3.607
 1388WAT      O 4405   4.107   5.967   2.391
 1388WAT     H1 4406   4.197   5.949   2.432
 1388WAT     H2 4407   4.035   5.928   2.448
 1389WAT      O 4408   0.692   4.683   0.842
 1389WAT     H1 4409   0.642   4.736   0.774
 1389WAT     H2 4410   0.629   4.641   0.906
 1390WAT      O 4411   2.771   0.097   3.704
 1390WAT     H1 4412   2.679   0.080   3.669
 1390WAT     H2 4413   2.770   0.091   3.804
 1391WAT      O 4414   3.018   7.395   1.515
 1391WAT     H1 4415   2.920   7.374   1.514
 1391WAT     H2 4416   3.041   7.442   1.601
 1392WAT      O 4417   6.490   2.373   1.685
 1392WAT     H1 4418   6.524   2.412   1.771
 1392WAT     H2 4419   6.530   2.423   1.608
 1393WAT      O 4420   4.081   2.829   5.254
 1393WAT     H1 4421   4.053   2.780   5.337
 1393WAT     H2 4422   4.161   2.785   5.215
 1394WAT      O 4423   0.026   0.679   0.064
 1394WAT     H1 4424  -0.036   0.600   0.069
 1394WAT     H2 4425   0.102   0.658   0.002
 1395WAT      O 4426   1.098   3.877   9.076
 1395WAT     H1 4427   1.194   3.905   9.063
 1395WAT     H2 4428   1.078   3.798   9.017
 1396WAT      O 4429   9.384   2.402   5.408
 1396WAT     H1 4430   9.361   2.336   5.335
 1396WAT     H2 4431   9.403   2.491   5.367
 1397WAT      O 4432   9.802   5.006   4.565
 1397WAT     H1 4433   9.814   4.935   4.496
 1397WAT     H2 4434   9.719   4.988   4.617
 1398WAT      O 4435   1.382   4.874   3.498
 1398WAT     H1 4436   1.389   4.973   3.512
 1398WAT     H2 4437   1.287   4.845   3.510
 1399WAT      O 4438   5.657   6.208   1.932
 1399WAT     H1 4439   5.641   6.293   1.982
 1399WAT     H2 4440   5.626   6.219   1.837
 1400WAT      O 4441   2.298   5.768   0.094
 1400WAT     H1 4442   2.228   5.724   0.151
 1400WAT     H2 4443   2.254   5.829   0.028
 1401WAT      O 4444   8.512   7.170   6.919
 1401WAT     H1 4445   8.443   7.217   6.973
 1401WAT     H2 4446   8.585   7.235   6.894
 1402WAT      O 4447   9.557   5.948   5.100
 1402WAT     H1 4448   9.599   6.020   5.045
 1402WAT     H2 4449   9.627   5.906   5.158
 1403WAT      O 4450   4.394   9.761   0.629
 1403WAT     H1 4451   4.438   9.813   0.555
 1403WAT     H2 4452   4.457   9.754   0.706
 1404WAT      O 4453   8.566   9.531   3.042
 1404WAT     H1 4454   8.629   9.609   3.049
 1404WAT     H2 4455   8.618   9.446   3.055
 1405WAT      O 4456   1.512   2.550   4.189
 1405WAT     H1 4457   1.537   2.499   4.272
 1405WAT     H2 4458   1.471   2.487   4.123
 1406WAT      O 4459   4.449   4.208   7.021
 1406WAT     H1 4460   4.380   4.190   6.952
 1406WAT     H2 4461   4.530   4.247   6.978
 1407WAT      O 4462   0.408   3.219   5.357
 1407WAT     H1 4463   0.401   3.314   5.388
 1407WAT     H2 4464   0.323   3.171   5.380
 1408WAT      O 4465   3.007   2.963   3.966
 1408WAT     H1 4466   3.014   2.863   3.967
 1408WAT     H2 4467   3.022   2.997   3.874
 1409WAT      O 4468   3.012   0.715   1.424
 1409WAT     H1 4469   2.915   0.732   1.441
 1409WAT     H2 4470   3.027   0.705   1.325
 1410WAT      O 4471   4.551   3.498   6.245
 1410WAT     H1 4472   4.525   3.588   6.280
 1410WAT     H2 4473   4.478   3.463   6.187
 1411WAT      O 4474   0.047   1.442   8.799
 1411WAT     H1 4475  -0.010   1.390   8.736
 1411WAT     H2 4476   0.061   1.389   8.883
 1412WAT      O 4477   0.351   5.334   8.616
 1412WAT     H1 4478   0.270   5.278   8.597
 1412WAT     H2 4479   0.348   5.364   8.712
 1413WAT      O 4480   2.552   4.080   1.651
 1413WAT     H1 4481   2.528   4.022   1.729
 1413WAT     H2 4482   2.613   4.030   1.589
 1414WAT      O 4483   5.084   0.172   5.668
 1414WAT     H1 4484   5.058   0.268   5.658
 1414WAT     H2 4485   5.003   0.114   5.656
 1415WAT      O 4486   4.947   7.584   9.647
 1415WAT     H1 4487   4.940   7.484   9.654
 1415WAT     H2 4488   4.969   7.609   9.552
 1416WAT      O 4489   3.281   9.672   2.024
 1416WAT     H1 4490   3.331   9.758   2.023
 1416WAT     H2 4491   3.315   9.613   1.951
 1417WAT      O 4492   2.485   1.111   5.522
 1417WAT     H1 4493   2.419   1.056   5.471
 1417WAT     H2 4494   2.495   1.200   5.480
 1418WAT      O 4495   7.394   3.911   7.921
 1418WAT     H1 4496   7.396   3.818   7.885
 1418WAT     H2 4497   7.301   3.933   7.951
 1419WAT      O 4498   9.200   3.573   9.844
 1419WAT     H1 4499   9.159   3.545   9.930
 1419WAT     H2 4500   9.245   3.495   9.801
 1420WAT      O 4501   7.449   8.163   9.837
 1420WAT     H1 4502   7.349   8.162   9.846
 1420WAT     H2 4503   7.475   8.222   9.759
 1421WAT      O 4504   1.316   1.149   4.973
 1421WAT     H1 4505   1.308   1.221   4.905
 1421WAT     H2 4506   1.406   1.154   5.017
 1422WAT      O 4507   3.860   7.599   2.841
 1422WAT     H1 4508   3.915   7.607   2.924
 1422WAT     H2 4509   3.792   7.671   2.838
 1423WAT      O 4510   4.868   9.173   8.490
 1423WAT     H1 4511   4.949   9.126   8.455
 1423WAT     H2 4512   4.808   9.196   8.413
 1424WAT      O 4513   5.715   1.968   6.202
 1424WAT     H1 4514   5.643   2.029   6.236
 1424WAT     H2 4515   5.798   2.021   6.185
 1425WAT      O 4516   6.497   2.078   9.681
 1425WAT     H1 4517   6.534   2.042   9.767
 1425WAT     H2 4518   6.569   2.127   9.632
 1426WAT      O 4519   9.733   4.671   4.108
 1426WAT     H1 4520   9.763   4.594   4.164
 1426WAT     H2 4521   9.639   4.694   4.130
 1427WAT      O 4522   2.313   5.180   3.983
 1427WAT     H1 4523   2.408   5.158   3.962
 1427WAT     H2 4524   2.285   5.262   3.932
 1428WAT      O 4525   0.818   3.872   0.059
 1428WAT     H1 4526   0.855   3.791   0.104
 1428WAT     H2 4527   0.756   3.844  -0.014
 1429WAT      O 4528   7.395   0.357   9.141
 1429WAT     H1 4529   7.401   0.302   9.057
 1429WAT     H2 4530   7.385   0.295   9.220
 1430WAT      O 4531   1.850   9.600   4.965
 1430WAT     H1 4532   1.946   9.602   4.938
 1430WAT     H2 4533   1.795   9.651   4.899
 1431WAT      O 4534   9.518   1.826   0.121
 1431WAT     H1 4535   9.584   1.793   0.189
 1431WAT     H2 4536   9.437   1.862   0.168
 1432WAT      O 4537   8.971   3.147   8.157
 1432WAT     H1 4538   8.997   3.230   8.205
 1432WAT     H2 4539   9.028   3.071   8.189
 1433WAT      O 4540   3.379   4.424   9.653
 1433WAT     H1 4541   3.462   4.375   9.679
 1433WAT     H2 4542   3.299   4.374   9.687
 1434WAT      O 4543   0.122   5.973   3.569
 1434WAT     H1 4544   0.120   6.023   3.482
 1434WAT     H2 4545   0.213   5.935   3.583
 1435WAT      O 4546   7.689   1.032   3.514
 1435WAT     H1 4547   7.788   1.020   3.505
 1435WAT     H2 4548   7.643   0.989   3.436
 1436WAT      O 4549   3.787   5.345   0.233
 1436WAT     H1 4550   3.883   5.330   0.211
 1436WAT     H2 4551   3.773   5.330   0.331
 1437WAT      O 4552   0.927   0.100   6.052
 1437WAT     H1 4553   0.963   0.111   5.959
 1437WAT     H2 4554   0.991   0.046   6.106
 1438WAT      O 4555   2.006   7.443   2.631
 1438WAT     H1 4556   2.077   7.449   2.701
 1438WAT     H2 4557   1.961   7.532   2.621
 1439WAT      O 4558   5.506   2.136   2.918
 1439WAT     H1 4559   5.577   2.206   2.922
 1439WAT     H2 4560   5.416   2.179   2.928
 1440WAT      O 4561   9.133   3.172   4.535
 1440WAT     H1 4562   9.051   3.201   4.584
 1440WAT     H2 4563   9.107   3.113   4.459
 1441WAT      O 4564   8.578   2.160   7.479
 1441WAT     H1 4565   8.611   2.107   7.401
 1441WAT     H2 4566   8.648   2.162   7.550
 1442WAT      O 4567   8.636   5.718   7.488
 1442WAT     H1 4568   8.605   5.677   7.402
 1442WAT     H2 4569   8.675   5.808   7.470
 1443WAT      O 4570   6.899   6.351   5.263
 1443WAT     H1 4571   6.959   6.418   5.219
 1443WAT     H2 4572   6.900   6.266   5.211
 1444WAT      O 4573   9.303   6.037   5.547
 1444WAT     H1 4574   9.368   6.048   5.471
 1444WAT     H2 4575   9.210   6.043   5.512
 1445WAT      O 4576   9.719   5.531   7.558
 1445WAT     H1 4577   9.682   5.448   7.601
 1445WAT     H2 4578   9.775   5.581   7.624
 1446WAT      O 4579   0.158   5.811   4.532
 1446WAT     H1 4580   0.227   5.771   4.473
 1446WAT     H2 4581   0.181   5.906   4.550
 1447WAT      O 4582   7.186   6.367   2.515
 1447WAT     H1 4583   7.182   6.447   2.456
 1447WAT     H2 4584   7.225   6.290   2.464
 1448WAT      O 4585   5.676   6.172   7.660
 1448WAT     H1 4586   5.625   6.247   7.703
 1448WAT     H2 4587   5.647   6.085   7.699
 1449WAT      O 4588   8.859   4.840   7.748
 1449WAT     H1 4589   8.835   4.935   7.769
 1449WAT     H2 4590   8.920   4.805   7.819
 1450WAT      O 4591   2.270   8.779   3.892
 1450WAT     H1 4592   2.192   8.811   3.837
 1450WAT     H2 4593   2.274   8.679   3.890
 1451WAT      O 4594   1.791   0.929   1.846
 1451WAT     H1 4595   1.721   0.984   1.799
 1451WAT     H2 4596   1.857   0.990   1.889
 1452WAT      O 4597   5.180   2.813   9.673
 1452WAT     H1 4598   5.243   2.880   9.713
 1452WAT     H2 4599   5.141   2.851   9.588
 1453WAT      O 4600   5.340   0.189   3.353
 1453WAT     H1 4601   5.354   0.240   3.438
 1453WAT     H2 4602   5.260   0.224   3.305
 1454WAT      O 4603   6.954   3.712   5.546
 1454WAT     H1 4604   6.911   3.777   5.484
 1454WAT     H2 4605   6.919   3.725   5.639
 1455WAT      O 4606   1.326   3.755   4.687
 1455WAT     H1 4607   1.419   3.725   4.709
 1455WAT     H2 4608   1.319   3.770   4.588
 1456WAT      O 4609   7.087   2.426   6.255
 1456WAT     H1 4610   7.081   2.486   6.175
 1456WAT     H2 4611   7.166   2.452   6.310
 1457WAT      O 4612   4.106   2.817   8.774
 1457WAT     H1 4613   4.194   2.816   8.821
 1457WAT     H2 4614   4.091   2.729   8.728
 1458WAT      O 4615   9.034   3.227   8.986
 1458WAT     H1 4616   9.055   3.136   8.951
 1458WAT     H2 4617   9.104   3.292   8.957
 1459WAT      O 4618   8.853   6.352   6.414
 1459WAT     H1 4619   8.796   6.294   6.472
 1459WAT     H2 4620   8.869   6.306   6.327
 1460WAT      O 4621   3.619   2.248   6.247
 1460WAT     H1 4622   3.714   2.279   6.242
 1460WAT     H2 4623   3.584   2.262   6.340
 1461WAT      O 4624   1.668   2.466   7.729
 1461WAT     H1 4625   1.766   2.451   7.724
 1461WAT     H2 4626   1.620   2.379   7.733
 1462WAT      O 4627   8.007   9.426   7.915
 1462WAT     H1 4628   8.051   9.341   7.887
 1462WAT     H2 4629   7.910   9.410   7.932
 1463WAT      O 4630   8.501   2.195   1.924
 1463WAT     H1 4631   8.409   2.199   1.962
 1463WAT     H2 4632   8.497   2.214   1.826
 1464WAT      O 4633   1.607   7.685   4.960
 1464WAT     H1 4634   1.573   7.591   4.955
 1464WAT     H2 4635   1.660   7.706   4.878
 1465WAT      O 4636   1.739   2.928   3.437
 1465WAT     H1 4637   1.684   2.845   3.438
 1465WAT     H2 4638   1.723   2.979   3.353
 1466WAT      O 4639   4.911   9.804   1.549
 1466WAT     H1 4640   4.970   9.725   1.535
 1466WAT     H2 4641   4.838   9.803   1.479
 1467WAT      O 4642   1.487   5.488   5.178
 1467WAT     H1 4643   1.547   5.517   5.103
 1467WAT     H2 4644   1.454   5.395   5.160
 1468WAT      O 4645   0.578   4.653   9.035
 1468WAT     H1 4646   0.622   4.734   9.074
 1468WAT     H2 4647   0.648   4.588   9.006
 1469WAT      O 4648   2.065   3.746   4.877
 1469WAT     H1 4649   1.989   3.801   4.911
 1469WAT     H2 4650   2.031   3.657   4.845
 1470WAT      O 4651   5.825   1.251   1.164
 1470WAT     H1 4652   5.780   1.228   1.250
 1470WAT     H2 4653   5.765   1.310   1.110
 1471WAT      O 4654   6.515   5.660   5.258
 1471WAT     H1 4655   6.544   5.656   5.354
 1471WAT     H2 4656   6.596   5.653   5.199
 1472WAT      O 4657   6.344   1.335   9.743
 1472WAT     H1 4658   6.253   1.334   9.784
 1472WAT     H2 4659   6.385   1.425   9.754
 1473WAT      O 4660   3.058   6.266   1.485
 1473WAT     H1 4661   3.119   6.187   1.475
 1473WAT     H2 4662   2.978   6.240   1.538
 1474WAT      O 4663   9.128   4.872   6.711
 1474WAT     H1 4664   9.121   4.972   6.716
 1474WAT     H2 4665   9.127   4.835   6.804
 1475WAT      O 4666   7.767   7.191   7.723
 1475WAT     H1 4667   7.854   7.190   7.675
 1475WAT     H2 4668   7.701   7.134   7.673
 1476WAT      O 4669   6.326   8.258   0.092
 1476WAT     H1 4670   6.299   8.199   0.017
 1476WAT     H2 4671   6.396   8.323   0.061
 1477WAT      O 4672   9.667   1.127   5.939
 1477WAT     H1 4673   9.569   1.117   5.951
 1477WAT     H2 4674   9.704   1.188   6.009
 1478WAT      O 4675   5.541   9.256   6.987
 1478WAT     H1 4676   5.515   9.342   7.030
 1478WAT     H2 4677   5.459   9.203   6.966
 1479WAT      O 4678   4.273   6.801   5.138
 1479WAT     H1 4679   4.198   6.741   5.111
 1479WAT     H2 4680   4.275   6.808   5.238
 1480WAT      O 4681   5.822   0.368   6.122
 1480WAT     H1 4682   5.818   0.403   6.216
 1480WAT     H2 4683   5.796   0.441   6.059
 1481WAT      O 4684   2.044   1.304   2.323
 1481WAT     H1 4685   2.096   1.360   2.387
 1481WAT     H2 4686   1.998   1.363   2.256
 1482WAT      O 4687   8.819   4.212   4.097
 1482WAT     H1 4688   8.852   4.194   4.005
 1482WAT     H2 4689   8.837   4.308   4.121
 1483WAT      O 4690   7.687   1.193   6.064
 1483WAT     H1 4691   7.759   1.236   6.010
 1483WAT     H2 4692   7.658   1.256   6.136
 1484WAT      O 4693   7.541   3.937   4.878
 1484WAT     H1 4694   7.627   3.918   4.832
 1484WAT     H2 4695   7.518   4.034   4.868
 1485WAT      O 4696   8.112   7.912   1.450
 1485WAT     H1 4697   8.157   7.992   1.489
 1485WAT     H2 4698   8.014   7.930   1.441
 1486WAT      O 4699   1.747   8.578   5.203
 1486WAT     H1 4700   1.752   8.579   5.103
 1486WAT     H2 4701   1.728   8.670   5.237
 1487WAT      O 4702   2.421   3.053   8.219
 1487WAT     H1 4703   2.512   3.025   8.187
 1487WAT     H2 4704   2.398   3.142   8.179
 1488WAT      O 4705   1.319   5.021   1.158
 1488WAT     H1 4706   1.224   5.043   1.177
 1488WAT     H2 4707   1.360   4.979   1.239
 1489WAT      O 4708   0.719   8.917   4.857
 1489WAT     H1 4709   0.749   8.947   4.948
 1489WAT     H2 4710   0.797   8.917   4.794
 1490WAT      O 4711   1.737   2.103   4.293
 1490WAT     H1 4712   1.781   2.029   4.343
 1490WAT     H2 4713   1.806   2.170   4.265
 1491WAT      O 4714   6.873   0.133   5.780
 1491WAT     H1 4715   6.787   0.081   5.787
 1491WAT     H2 4716   6.950   0.070   5.789
 1492WAT      O 4717   7.888   9.764   7.647
 1492WAT     H1 4718   7.878   9.678   7.599
 1492WAT     H2 4719   7.956   9.754   7.720
 1493WAT      O 4720   5.645   8.411   7.761
 1493WAT     H1 4721   5.571   8.422   7.828
 1493WAT     H2 4722   5.606   8.413   7.669
 1494WAT      O 4723   2.464   1.891   4.282
 1494WAT     H1 4724   2.466   1.942   4.196
 1494WAT     H2 4725   2.483   1.954   4.358
 1495WAT      O 4726   9.891   8.329   3.250
 1495WAT     H1 4727   9.805   8.376   3.273
 1495WAT     H2 4728   9.946   8.317   3.333
 1496WAT      O 4729   5.916   0.499   0.354
 1496WAT     H1 4730   5.837   0.543   0.398
 1496WAT     H2 4731   5.894   0.481   0.258
 1497WAT      O 4732   1.791   9.007   7.515
 1497WAT     H1 4733   1.810   9.041   7.423
 1497WAT     H2 4734   1.708   8.951   7.513
 1498WAT      O 4735   3.440   6.204   4.960
 1498WAT     H1 4736   3.480   6.121   4.921
 1498WAT     H2 4737   3.372   6.242   4.897
 1499WAT      O 4738   8.109   6.068   2.202
 1499WAT     H1 4739   8.090   6.139   2.270
 1499WAT     H2 4740   8.112   5.979   2.248
 1500WAT      O 4741   5.279   8.070   9.341
 1500WAT     H1 4742   5.185   8.071   9.377
 1500WAT     H2 4743   5.276   8.085   9.242
 1501WAT      O 4744   8.957   3.254   6.216
 1501WAT     H1 4745   8.906   3.212   6.141
 1501WAT     H2 4746   8.904   3.244   6.301
 1502WAT      O 4747   2.412   6.490   6.147
 1502WAT     H1 4748   2.465   6.428   6.090
 1502WAT     H2 4749   2.448   6.582   6.139
 1503WAT      O 4750   8.570   0.356   3.715
 1503WAT     H1 4751   8.552   0.271   3.667
 1503WAT     H2 4752   8.548   0.344   3.812
 1504WAT      O 4753   4.363   4.060   7.649
 1504WAT     H1 4754   4.388   4.156   7.639
 1504WAT     H2 4755   4.383   4.031   7.743
 1505WAT      O 4756   1.781   7.289   3.672
 1505WAT     H1 4757   1.704   7.306   3.733
 1505WAT     H2 4758   1.764   7.333   3.584
 1506WAT      O 4759   5.225   8.518   9.457
 1506WAT     H1 4760   5.186   8.531   9.366
 1506WAT     H2 4761   5.210   8.601   9.511
 1507WAT      O 4762   1.505   4.954   6.497
 1507WAT     H1 4763   1.573   4.925   6.430
 1507WAT     H2 4764   1.522   5.048   6.524
 1508WAT      O 4765   7.212   2.003   5.275
 1508WAT     H1 4766   7.194   1.913   5.235
 1508WAT     H2 4767   7.293   1.997   5.334
 1509WAT      O 4768   5.691   7.515   6.356
 1509WAT     H1 4769   5.670   7.541   6.450
 1509WAT     H2 4770   5.638   7.433   6.331
 1510WAT      O 4771   4.694   9.595   3.228
 1510WAT     H1 4772   4.688   9.689   3.196
 1510WAT     H2 4773   4.602   9.562   3.253
 1511WAT      O 4774   3.569   3.227   7.286
 1511WAT     H1 4775   3.480   3.242   7.328
 1511WAT     H2 4776   3.636   3.205   7.356
 1512WAT      O 4777   5.593   4.263   2.307
 1512WAT     H1 4778   5.690   4.252   2.326
 1512WAT     H2 4779   5.551   4.320   2.378
 1513WAT      O 4780   0.711   3.619   0.736
 1513WAT     H1 4781   0.761   3.557   0.676
 1513WAT     H2 4782   0.775   3.685   0.777
 1514WAT      O 4783   6.540   8.566   7.533
 1514WAT     H1 4784   6.531   8.567   7.632
 1514WAT     H2 4785   6.484   8.492   7.495
 1515WAT      O 4786   5.669   4.402   6.146
 1515WAT     H1 4787   5.662   4.498   6.118
 1515WAT     H2 4788   5.750   4.361   6.104
 1516WAT      O 4789   3.468   4.930   8.232
 1516WAT     H1 4790   3.469   5.026   8.260
 1516WAT     H2 4791   3.456   4.873   8.313
 1517WAT      O 4792   0.481   9.202   1.901
 1517WAT     H1 4793   0.387   9.235   1.903
 1517WAT     H2 4794   0.515   9.192   1.994
 1518WAT      O 4795   0.181   8.111   6.803
 1518WAT     H1 4796   0.239   8.102   6.884
 1518WAT     H2 4797   0.104   8.047   6.810
 1519WAT      O 4798   8.878   8.648   4.307
 1519WAT     H1 4799   8.905   8.622   4.215
 1519WAT     H2 4800   8.793   8.699   4.304
 1520WAT      O 4801   6.224   0.885   5.703
 1520WAT     H1 4802   6.186   0.830   5.628
 1520WAT     H2 4803   6.301   0.836   5.744
 1521WAT      O 4804   3.920   2.008   5.235
 1521WAT     H1 4805   3.971   2.002   5.150
 1521WAT     H2 4806   3.893   2.102   5.252
 1522WAT      O 4807   1.062   2.939   0.308
 1522WAT     H1 4808   1.119   2.958   0.229
 1522WAT     H2 4809   0.970   2.915   0.277
 1523WAT      O 4810   9.345   7.236   8.318
 1523WAT     H1 4811   9.379   7.296   8.246
 1523WAT     H2 4812   9.417   7.173   8.347
 1524WAT      O 4813   3.771   1.792   4.298
 1524WAT     H1 4814   3.781   1.823   4.204
 1524WAT     H2 4815   3.836   1.717   4.315
 1525WAT      O 4816   6.887   2.834   7.369
 1525WAT     H1 4817   6.954   2.854   7.297
 1525WAT     H2 4818   6.865   2.918   7.418
 1526WAT      O 4819   8.248   2.739   0.870
 1526WAT     H1 4820   8.224   2.666   0.807
 1526WAT     H2 4821   8.290   2.814   0.820
 1527WAT      O 4822   6.167   2.835   9.598
 1527WAT     H1 4823   6.227   2.854   9.676
 1527WAT     H2 4824   6.104   2.761   9.621
 1528WAT      O 4825   6.858   9.279   4.378
 1528WAT     H1 4826   6.805   9.302   4.297
 1528WAT     H2 4827   6.952   9.256   4.352
 1529WAT      O 4828   2.028   6.031   9.538
 1529WAT     H1 4829   1.996   6.119   9.572
 1529WAT     H2 4830   2.100   6.045   9.471
 1530WAT      O 4831   8.372   2.014   0.842
 1530WAT     H1 4832   8.318   1.996   0.925
 1530WAT     H2 4833   8.459   2.055   0.868
 1531WAT      O 4834   5.224   8.686   5.356
 1531WAT     H1 4835   5.270   8.769   5.325
 1531WAT     H2 4836   5.133   8.709   5.390
 1532WAT      O 4837   5.010   1.298   1.219
 1532WAT     H1 4838   4.926   1.346   1.195
 1532WAT     H2 4839   5.028   1.309   1.316
 1533WAT      O 4840   0.853   4.654   2.272
 1533WAT     H1 4841   0.867   4.569   2.221
 1533WAT     H2 4842   0.936   4.709   2.268
 1534WAT      O 4843   6.548   8.651   5.767
 1534WAT     H1 4844   6.632   8.671   5.816
 1534WAT     H2 4845   6.512   8.562   5.798
 1535WAT      O 4846   0.913   1.472   1.186
 1535WAT     H1 4847   0.913   1.509   1.278
 1535WAT     H2 4848   1.000   1.492   1.141
 1536WAT      O 4849   3.532   2.466   0.863
 1536WAT     H1 4850   3.433   2.462   0.879
 1536WAT     H2 4851   3.580   2.422   0.938
 1537WAT      O 4852   9.106   8.940   8.071
 1537WAT     H1 4853   9.113   8.939   8.170
 1537WAT     H2 4854   9.030   8.882   8.042
 1538WAT      O 4855   6.855   6.665   6.680
 1538WAT     H1 4856   6.861   6.754   6.725
 1538WAT     H2 4857   6.947   6.625   6.674
 1539WAT      O 4858   6.322   4.122   0.748
 1539WAT     H1 4859   6.306   4.041   0.692
 1539WAT     H2 4860   6.419   4.147   0.744
 1540WAT      O 4861   1.318   7.264   5.004
 1540WAT     H1 4862   1.360   7.209   5.076
 1540WAT     H2 4863   1.236   7.310   5.040
 1541WAT      O 4864   2.739   3.569   2.826
 1541WAT     H1 4865   2.729   3.503   2.751
 1541WAT     H2 4866   2.651   3.609   2.847
 1542WAT      O 4867   5.129   1.854   7.632
 1542WAT     H1 4868   5.186   1.773   7.618
 1542WAT     H2 4869   5.055   1.831   7.695
 1543WAT      O 4870   5.829   0.688   3.504
 1543WAT     H1 4871   5.768   0.623   3.459
 1543WAT     H2 4872   5.777   0.770   3.530
 1544WAT      O 4873   1.141   1.437   5.495
 1544WAT     H1 4874   1.224   1.382   5.491
 1544WAT     H2 4875   1.156   1.516   5.554
 1545WAT      O 4876   8.761   5.925   2.618
 1545WAT     H1 4877   8.666   5.899   2.601
 1545WAT     H2 4878   8.769   6.025   2.617
 1546WAT      O 4879   1.269   4.099   8.428
 1546WAT     H1 4880   1.309   4.057   8.346
 1546WAT     H2 4881   1.236   4.191   8.406
 1547WAT      O 4882   8.267   4.492   8.561
 1547WAT     H1 4883   8.215   4.440   8.628
 1547WAT     H2 4884   8.210   4.512   8.481
 1548WAT      O 4885   1.578   9.090   5.907
 1548WAT     H1 4886   1.660   9.071   5.960
 1548WAT     H2 4887   1.527   9.005   5.890
 1549WAT      O 4888   9.542   4.899   5.907
 1549WAT     H1 4889   9.509   4.805   5.897
 1549WAT     H2 4890   9.641   4.901   5.893
 1550WAT      O 4891   8.418   2.581   8.947
 1550WAT     H1 4892   8.352   2.600   9.019
 1550WAT     H2 4893   8.485   2.514   8.980
 1551WAT      O 4894   5.177   5.698   0.120
 1551WAT     H1 4895   5.187   5.637   0.041
 1551WAT     H2 4896   5.197   5.647   0.204
 1552WAT      O 4897   4.327   1.605   6.537
 1552WAT     H1 4898   4.326   1.649   6.627
 1552WAT     H2 4899   4.402   1.643   6.482
 1553WAT      O 4900   8.710   2.511   2.043
 1553WAT     H1 4901   8.617   2.479   2.056
 1553WAT     H2 4902   8.765   2.440   1.999
 1554WAT      O 4903   0.646   9.157   4.404
 1554WAT     H1 4904   0.588   9.124   4.329
 1554WAT     H2 4905   0.615   9.118   4.490
 1555WAT      O 4906   9.269   0.702   1.851
 1555WAT     H1 4907   9.258   0.677   1.755
 1555WAT     H2 4908   9.180   0.726   1.890
 1556WAT      O 4909   2.462   8.541   2.195
 1556WAT     H1 4910   2.538   8.511   2.253
 1556WAT     H2 4911   2.376   8.533   2.245
 1557WAT      O 4912   9.023   7.428   8.414
 1557WAT     H1 4913   9.089   7.385   8.476
 1557WAT     H2 4914   9.065   7.506   8.369
 1558WAT      O 4915   7.769   7.490   2.811
 1558WAT     H1 4916   7.695   7.423   2.816
 1558WAT     H2 4917   7.774   7.526   2.718
 1559WAT      O 4918   7.555   0.222   4.606
 1559WAT     H1 4919   7.589   0.156   4.673
 1559WAT     H2 4920   7.600   0.207   4.519
 1560WAT      O 4921   4.291   0.217   0.565
 1560WAT     H1 4922   4.363   0.184   0.505
 1560WAT     H2 4923   4.326   0.225   0.658
 1561WAT      O 4924   8.636   8.947   2.258
 1561WAT     H1 4925   8.576   8.984   2.187
 1561WAT     H2 4926   8.720   9.001   2.264
 1562WAT      O 4927   7.084   6.886   5.887
 1562WAT     H1 4928   6.999   6.849   5.923
 1562WAT     H2 4929   7.064   6.965   5.829
 1563WAT      O 4930   9.053   8.493   8.572
 1563WAT     H1 4931   9.012   8.575   8.532
 1563WAT     H2 4932   9.001   8.466   8.654
 1564WAT      O 4933   3.254   7.348   4.601
 1564WAT     H1 4934   3.155   7.358   4.592
 1564WAT     H2 4935   3.293   7.319   4.513
 1565WAT      O 4936   6.143   7.347   0.743
 1565WAT     H1 4937   6.205   7.290   0.689
 1565WAT     H2 4938   6.158   7.328   0.840
 1566WAT      O 4939   2.487   8.993   0.976
 1566WAT     H1 4940   2.544   8.923   1.018
 1566WAT     H2 4941   2.533   9.081   0.980
 1567WAT      O 4942   5.513   1.711   6.323
 1567WAT     H1 4943   5.462   1.783   6.369
 1567WAT     H2 4944   5.576   1.751   6.257
 1568WAT      O 4945   1.251   5.161   8.004
 1568WAT     H1 4946   1.295   5.076   7.974
 1568WAT     H2 4947   1.246   5.225   7.927
 1569WAT      O 4948   5.833   0.925   6.604
 1569WAT     H1 4949   5.827   0.888   6.511
 1569WAT     H2 4950   5.883   1.011   6.602
 1570WAT      O 4951   5.819   8.887   8.433
 1570WAT     H1 4952   5.808   8.922   8.340
 1570WAT     H2 4953   5.882   8.946   8.484
 1571WAT      O 4954   7.342   9.140   9.306
 1571WAT     H1 4955   7.379   9.227   9.273
 1571WAT     H2 4956   7.242   9.147   9.314
 1572WAT      O 4957   3.610   4.146   2.666
 1572WAT     H1 4958   3.551   4.172   2.743
 1572WAT     H2 4959   3.578   4.190   2.583
 1573WAT      O 4960   7.482   4.125   7.721
 1573WAT     H1 4961   7.420   4.197   7.752
 1573WAT     H2 4962   7.458   4.038   7.764
 1574WAT      O 4963   9.803   6.186   0.604
 1574WAT     H1 4964   9.713   6.217   0.635
 1574WAT     H2 4965   9.830   6.237   0.522
 1575WAT      O 4966   8.624   9.309   2.830
 1575WAT     H1 4967   8.637   9.211   2.813
 1575WAT     H2 4968   8.549   9.342   2.773
 1576WAT      O 4969   5.813   6.276   4.530
 1576WAT     H1 4970   5.820   6.249   4.626
 1576WAT     H2 4971   5.857   6.366   4.518
 1577WAT      O 4972   4.663   1.472   2.743
 1577WAT     H1 4973   4.734   1.540   2.724
 1577WAT     H2 4974   4.616   1.495   2.828
 1578WAT      O 4975   0.535   8.524   5.811
 1578WAT     H1 4976   0.554   8.580   5.730
 1578WAT     H2 4977   0.550   8.579   5.893
 1579WAT      O 4978   1.128   0.526   6.291
 1579WAT     H1 4979   1.133   0.501   6.388
 1579WAT     H2 4980   1.051   0.479   6.248
 1580WAT      O 4981   2.674   5.637   4.619
 1580WAT     H1 4982   2.676   5.559   4.556
 1580WAT     H2 4983   2.675   5.604   4.713
 1581WAT      O 4984   2.873   0.741   5.739
 1581WAT     H1 4985   2.786   0.749   5.786
 1581WAT     H2 4986   2.882   0.816   5.672
 1582WAT      O 4987   6.368   3.715   2.617
 1582WAT     H1 4988   6.407   3.807   2.620
 1582WAT     H2 4989   6.296   3.708   2.686
 1583WAT      O 4990   8.943   5.799   7.260
 1583WAT     H1 4991   9.010   5.758   7.321
 1583WAT     H2 4992   8.893   5.871   7.308
 1584WAT      O 4993   3.036   2.652   3.459
 1584WAT     H1 4994   2.937   2.638   3.446
 1584WAT     H2 4995   3.054   2.747   3.483
 1585WAT      O 4996   8.787   8.802   3.066
 1585WAT     H1 4997   8.720   8.872   3.041
 1585WAT     H2 4998   8.743   8.712   3.069
 1586WAT      O 4999   2.232   8.952   0.571
 1586WAT     H1 5000   2.312   8.921   0.623
 1586WAT     H2 5001   2.259   8.974   0.478
 1587WAT      O 5002   8.817   2.536   7.356
 1587WAT     H1 5003   8.906   2.524   7.312
 1587WAT     H2 5004   8.826   2.520   7.455
 1588WAT      O 5005   6.435   6.113   5.310
 1588WAT     H1 5006   6.421   6.129   5.408
 1588WAT     H2 5007   6.407   6.020   5.287
 1589WAT      O 5008   3.262   7.354   8.115
 1589WAT     H1 5009   3.256   7.347   8.215
 1589WAT     H2 5010   3.220   7.440   8.086
 1590WAT      O 5011   5.273   6.186   1.163
 1590WAT     H1 5012   5.184   6.196   1.208
 1590WAT     H2 5013   5.345   6.179   1.231
 1591WAT      O 5014   3.942   6.931   1.494
 1591WAT     H1 5015   3.900   6.941   1.584
 1591WAT     H2 5016   3.873   6.944   1.423
 1592WAT      O 5017   0.165   2.694   0.854
 1592WAT     H1 5018   0.142   2.650   0.940
 1592WAT     H2 5019   0.248   2.749   0.866
 1593WAT      O 5020   7.122   7.655   0.172
 1593WAT     H1 5021   7.143   7.670   0.076
 1593WAT     H2 5022   7.100   7.558   0.187
 1594WAT      O 5023   6.443   7.201   8.564
 1594WAT     H1 5024   6.488   7.114   8.545
 1594WAT     H2 5025   6.509   7.276   8.556
 1595WAT      O 5026   5.471   9.435   3.101
 1595WAT     H1 5027   5.544   9.475   3.155
 1595WAT     H2 5028   5.429   9.505   3.043
 1596WAT      O 5029   3.745   4.003   7.415
 1596WAT     H1 5030   3.671   3.937   7.429
 1596WAT     H2 5031   3.722   4.064   7.339
 1597WAT      O 5032   3.633   9.718   4.562
 1597WAT     H1 5033   3.574   9.682   4.489
 1597WAT     H2 5034   3.719   9.666   4.563
 1598WAT      O 5035   3.624   6.091   0.399
 1598WAT     H1 5036   3.548   6.071   0.337
 1598WAT     H2 5037   3.593   6.084   0.494
 1599WAT      O 5038   6.351   3.272   9.658
 1599WAT     H1 5039   6.293   3.316   9.727
 1599WAT     H2 5040   6.393   3.190   9.697
 1600WAT      O 5041   0.794   3.965   6.944
 1600WAT     H1 5042   0.868   4.023   6.978
 1600WAT     H2 5043   0.749   4.011   6.867
 1601WAT      O 5044   5.162   7.873   1.700
 1601WAT     H1 5045   5.129   7.861   1.607
 1601WAT     H2 5046   5.088   7.908   1.757
 1602WAT      O 5047   0.449   4.250   0.753
 1602WAT     H1 5048   0.486   4.248   0.846
 1602WAT     H2 5049   0.441   4.345   0.723
 1603WAT      O 5050   2.282   6.168   8.993
 1603WAT     H1 5051   2.289   6.069   9.006
 1603WAT     H2 5052   2.186   6.194   8.989
 1604WAT      O 5053   0.618   5.285   1.779
 1604WAT     H1 5054   0.615   5.278   1.878
 1604WAT     H2 5055   0.539   5.239   1.740
 1605WAT      O 5056   7.269   9.051   8.481
 1605WAT     H1 5057   7.228   9.036   8.571
 1605WAT     H2 5058   7.210   9.109   8.426
 1606WAT      O 5059   5.720   5.279   2.384
 1606WAT     H1 5060   5.683   5.190   2.411
 1606WAT     H2 5061   5.689   5.301   2.291
 1607WAT      O 5062   0.799   5.581   6.236
 1607WAT     H1 5063   0.803   5.542   6.143
 1607WAT     H2 5064   0.868   5.652   6.245
 1608WAT      O 5065   6.541   9.185   4.195
 1608WAT     H1 5066   6.520   9.201   4.292
 1608WAT     H2 5067   6.590   9.264   4.158
 1609WAT      O 5068   7.746   3.302   9.007
 1609WAT     H1 5069   7.648   3.321   8.999
 1609WAT     H2 5070   7.796   3.388   9.006
 1610WAT      O 5071   2.000   3.487   5.804
 1610WAT     H1 5072   2.032   3.525   5.890
 1610WAT     H2 5073   2.031   3.393   5.795
 1611WAT      O 5074   7.283   6.628   9.882
 1611WAT     H1 5075   7.242   6.705   9.833
 1611WAT     H2 5076   7.329   6.568   9.817
 1612WAT      O 5077   9.783   8.910   8.095
 1612WAT     H1 5078   9.798   8.993   8.149
 1612WAT     H2 5079   9.713   8.853   8.139
 1613WAT      O 5080   2.614   3.734   9.550
 1613WAT     H1 5081   2.624   3.642   9.513
 1613WAT     H2 5082   2.558   3.789   9.488
 1614WAT      O 5083   7.523   8.843   8.166
 1614WAT     H1 5084   7.603   8.849   8.107
 1614WAT     H2 5085   7.448   8.800   8.116
 1615WAT      O 5086   9.175   3.215   2.670
 1615WAT     H1 5087   9.076   3.215   2.655
 1615WAT     H2 5088   9.222   3.236   2.583
 1616WAT      O 5089   0.767   1.428   8.894
 1616WAT     H1 5090   0.708   1.419   8.814
 1616WAT     H2 5091   0.712   1.428   8.977
 1617WAT      O 5092   2.074   5.282   6.210
 1617WAT     H1 5093   1.983   5.284   6.251
 1617WAT     H2 5094   2.090   5.192   6.169
 1618WAT      O 5095   5.534   7.981   7.739
 1618WAT     H1 5096   5.534   7.884   7.762
 1618WAT     H2 5097   5.617   8.002   7.687
 1619WAT      O 5098   4.194   5.909   9.597
 1619WAT     H1 5099   4.171   5.954   9.684
 1619WAT     H2 5100   4.122   5.845   9.573
 1620WAT      O 5101   2.705   9.712   1.303
 1620WAT     H1 5102   2.767   9.791   1.298
 1620WAT     H2 5103   2.696   9.684   1.399
 1621WAT      O 5104   3.678   0.961   3.916
 1621WAT     H1 5105   3.700   0.944   4.012
 1621WAT     H2 5106   3.628   1.047   3.907
 1622WAT      O 5107   2.775   2.824   7.215
 1622WAT     H1 5108   2.800   2.903   7.159
 1622WAT     H2 5109   2.858   2.784   7.254
 1623WAT      O 5110   7.279   1.261   2.144
 1623WAT     H1 5111   7.181   1.240   2.142
 1623WAT     H2 5112   7.296   1.347   2.095
 1624WAT      O 5113   2.301   7.065   3.198
 1624WAT     H1 5114   2.391   7.036   3.165
 1624WAT     H2 5115   2.292   7.164   3.188
 1625WAT      O 5116   6.312   6.544   4.128
 1625WAT     H1 5117   6.288   6.496   4.044
 1625WAT     H2 5118   6.229   6.565   4.179
 1626WAT      O 5119   2.045   0.343   2.723
 1626WAT     H1 5120   2.137   0.383   2.721
 1626WAT     H2 5121   2.034   0.281   2.645
 1627WAT      O 5122   2.368   0.337   8.229
 1627WAT     H1 5123   2.354   0.391   8.147
 1627WAT     H2 5124   2.378   0.397   8.308
 1628WAT      O 5125   8.360   2.283   7.348
 1628WAT     H1 5126   8.408   2.363   7.312
 1628WAT     H2 5127   8.426   2.221   7.390
 1629WAT      O 5128   1.469   4.752   5.195
 1629WAT     H1 5129   1.459   4.835   5.250
 1629WAT     H2 5130   1.559   4.752   5.151
 1630WAT      O 5131   8.147   7.581   8.043
 1630WAT     H1 5132   8.059   7.624   8.064
 1630WAT     H2 5133   8.174   7.523   8.121
 1631WAT      O 5134   5.063   6.747   3.716
 1631WAT     H1 5135   5.021   6.788   3.797
 1631WAT     H2 5136   5.144   6.801   3.690
 1632WAT      O 5137   0.178   3.580   6.945
 1632WAT     H1 5138   0.208   3.665   6.988
 1632WAT     H2 5139   0.225   3.503   6.989
 1633WAT      O 5140   3.521   8.074   8.567
 1633WAT     H1 5141   3.590   8.021   8.617
 1633WAT     H2 5142   3.555   8.167   8.553
 1634WAT      O 5143   1.878   5.848   7.727
 1634WAT     H1 5144   1.784   5.847   7.761
 1634WAT     H2 5145   1.887   5.920   7.658
 1635WAT      O 5146   1.578   1.867   0.593
 1635WAT     H1 5147   1.675   1.891   0.595
 1635WAT     H2 5148   1.551   1.831   0.682
 1636WAT      O 5149   8.297   0.760   0.253
 1636WAT     H1 5150   8.276   0.858   0.257
 1636WAT     H2 5151   8.388   0.744   0.289
 1637WAT      O 5152   1.985   9.499   9.335
 1637WAT     H1 5153   1.987   9.444   9.251
 1637WAT     H2 5154   1.909   9.564   9.330
 1638WAT      O 5155   7.799   7.145   2.017
 1638WAT     H1 5156   7.888   7.104   2.042
 1638WAT     H2 5157   7.799   7.168   1.920
 1639WAT      O 5158   6.275   4.027   9.870
 1639WAT     H1 5159   6.178   4.037   9.892
 1639WAT     H2 5160   6.287   4.019   9.771
 1640WAT      O 5161   6.327   8.732   3.126
 1640WAT     H1 5162   6.314   8.751   3.223
 1640WAT     H2 5163   6.423   8.707   3.110
 1641WAT      O 5164   5.082   1.639   0.096
 1641WAT     H1 5165   5.003   1.635   0.036
 1641WAT     H2 5166   5.155   1.580   0.059
 1642WAT      O 5167   0.088   3.371   1.852
 1642WAT     H1 5168   0.141   3.455   1.846
 1642WAT     H2 5169   0.150   3.292   1.855
 1643WAT      O 5170   4.783   9.598   1.183
 1643WAT     H1 5171   4.862   9.538   1.171
 1643WAT     H2 5172   4.759   9.641   1.095
 1644WAT      O 5173   0.506   0.616   7.038
 1644WAT     H1 5174   0.473   0.695   6.987
 1644WAT     H2 5175   0.562   0.647   7.115
 1645WAT      O 5176   8.834   2.759   7.634
 1645WAT     H1 5177   8.903   2.687   7.633
 1645WAT     H2 5178   8.870   2.840   7.586
 1646WAT      O 5179   5.317   7.496   6.086
 1646WAT     H1 5180   5.362   7.505   6.174
 1646WAT     H2 5181   5.325   7.582   6.035
 1647WAT      O 5182   3.004   3.860   4.882
 1647WAT     H1 5183   2.962   3.928   4.941
 1647WAT     H2 5184   3.097   3.889   4.859
 1648WAT      O 5185   3.385   9.540   9.080
 1648WAT     H1 5186   3.378   9.579   9.172
 1648WAT     H2 5187   3.435   9.604   9.021
 1649WAT      O 5188   8.263   1.412   7.899
 1649WAT     H1 5189   8.196   1.452   7.961
 1649WAT     H2 5190   8.258   1.312   7.903
 1650WAT      O 5191   8.676   2.272   7.934
 1650WAT     H1 5192   8.710   2.249   7.843
 1650WAT     H2 5193   8.585   2.232   7.946
 1651WAT      O 5194   6.505   9.749   6.021
 1651WAT     H1 5195   6.477   9.798   6.104
 1651WAT     H2 5196   6.521   9.653   6.043
 1652WAT      O 5197   5.579   9.022   0.586
 1652WAT     H1 5198   5.613   8.947   0.529
 1652WAT     H2 5199   5.479   9.020   0.588
 1653WAT      O 5200   3.192   1.592   3.306
 1653WAT     H1 5201   3.260   1.534   3.350
 1653WAT     H2 5202   3.200   1.686   3.340
 1654WAT      O 5203   8.854   3.729   2.893
 1654WAT     H1 5204   8.933   3.732   2.831
 1654WAT     H2 5205   8.784   3.794   2.862
 1655WAT      O 5206   7.451   4.296   7.359
 1655WAT     H1 5207   7.516   4.354   7.408
 1655WAT     H2 5208   7.359   4.334   7.367
 1656WAT      O 5209   8.430   4.638   8.195
 1656WAT     H1 5210   8.500   4.691   8.243
 1656WAT     H2 5211   8.422   4.548   8.238
 1657WAT      O 5212   3.544   3.908   5.015
 1657WAT     H1 5213   3.487   3.990   5.013
 1657WAT     H2 5214   3.596   3.902   4.930
 1658WAT      O 5215   3.823   3.886   7.015
 1658WAT     H1 5216   3.916   3.883   6.977
 1658WAT     H2 5217   3.793   3.793   7.035
 1659WAT      O 5218   2.750   3.945   1.516
 1659WAT     H1 5219   2.814   3.950   1.439
 1659WAT     H2 5220   2.796   3.905   1.595
 1660WAT      O 5221   4.463   5.770   0.059
 1660WAT     H1 5222   4.520   5.810   0.130
 1660WAT     H2 5223   4.498   5.796  -0.031
 1661WAT      O 5224   4.646   1.692   5.681
 1661WAT     H1 5225   4.601   1.628   5.619
 1661WAT     H2 5226   4.724   1.647   5.725
 1662WAT      O 5227   0.069   4.959   5.461
 1662WAT     H1 5228   0.098   4.923   5.372
 1662WAT     H2 5229  -0.004   4.901   5.498
 1663WAT      O 5230   5.784   8.890   1.654
 1663WAT     H1 5231   5.860   8.945   1.619
 1663WAT     H2 5232   5.707   8.893   1.590
 1664WAT      O 5233   3.830   7.832   6.485
 1664WAT     H1 5234   3.891   7.756   6.505
 1664WAT     H2 5235   3.808   7.881   6.569
 1665WAT      O 5236   2.086   0.949   0.118
 1665WAT     H1 5237   2.013   0.917   0.058
 1665WAT     H2 5238   2.048   1.012   0.186
 1666WAT      O 5239   0.287   4.800   6.664
 1666WAT     H1 5240   0.254   4.712   6.632
 1666WAT     H2 5241   0.286   4.801   6.764
 1667WAT      O 5242   3.404   8.390   7.751
 1667WAT     H1 5243   3.316   8.393   7.705
 1667WAT     H2 5244   3.459   8.316   7.713
 1668WAT      O 5245   1.488   4.852   8.619
 1668WAT     H1 5246   1.443   4.767   8.589
 1668WAT     H2 5247   1.494   4.916   8.543
 1669WAT      O 5248   3.044   7.435   3.007
 1669WAT     H1 5249   3.039   7.346   3.052
 1669WAT     H2 5250   3.039   7.507   3.075
 1670WAT      O 5251   5.230   6.960   7.111
 1670WAT     H1 5252   5.267   6.948   7.018
 1670WAT     H2 5253   5.196   6.872   7.144
 1671WAT      O 5254   5.104   4.692   8.065
 1671WAT     H1 5255   5.030   4.626   8.055
 1671WAT     H2 5256   5.106   4.728   8.158
 1672WAT      O 5257   0.302   2.173   7.713
 1672WAT     H1 5258   0.254   2.193   7.798
 1672WAT     H2 5259   0.241   2.186   7.635
 1673WAT      O 5260   5.898   6.192   0.988
 1673WAT     H1 5261   5.985   6.221   1.027
 1673WAT     H2 5262   5.903   6.096   0.961
 1674WAT      O 5263   5.128   3.289   0.335
 1674WAT     H1 5264   5.082   3.376   0.351
 1674WAT     H2 5265   5.074   3.215   0.374
 1675WAT      O 5266   1.808   7.678   6.440
 1675WAT     H1 5267   1.778   7.631   6.358
 1675WAT     H2 5268   1.907   7.666   6.452
 1676WAT      O 5269   7.135   8.103   1.426
 1676WAT     H1 5270   7.179   8.040   1.362
 1676WAT     H2 5271   7.040   8.116   1.399
 1677WAT      O 5272   3.247   7.422   3.832
 1677WAT     H1 5273   3.185   7.496   3.803
 1677WAT     H2 5274   3.320   7.411   3.765
 1678WAT      O 5275   2.985   5.065   0.744
 1678WAT     H1 5276   2.940   5.144   0.786
 1678WAT     H2 5277   2.957   4.982   0.793
 1679WAT      O 5278   9.405   8.512   0.427
 1679WAT     H1 5279   9.448   8.592   0.470
 1679WAT     H2 5280   9.306   8.517   0.439
 1680WAT      O 5281   8.166   1.785   5.532
 1680WAT     H1 5282   8.246   1.754   5.584
 1680WAT     H2 5283   8.100   1.711   5.526
 1681WAT      O 5284   3.576   9.831   5.900
 1681WAT     H1 5285   3.548   9.863   5.810
 1681WAT     H2 5286   3.591   9.732   5.897
 1682WAT      O 5287   7.069   9.200   9.345
 1682WAT     H1 5288   7.031   9.222   9.435
 1682WAT     H2 5289   6.999   9.152   9.291
 1683WAT      O 5290   1.163   8.965   4.213
 1683WAT     H1 5291   1.223   8.910   4.155
 1683WAT     H2 5292   1.138   9.049   4.165
 1684WAT      O 5293   0.700   4.157   2.266
 1684WAT     H1 5294   0.631   4.092   2.234
 1684WAT     H2 5295   0.788   4.111   2.276
 1685WAT      O 5296   7.589   9.281   4.249
 1685WAT     H1 5297   7.566   9.244   4.159
 1685WAT     H2 5298   7.681   9.252   4.274
 1686WAT      O 5299   2.410   6.138   1.362
 1686WAT     H1 5300   2.381   6.212   1.422
 1686WAT     H2 5301   2.371   6.052   1.395
 1687WAT      O 5302   5.920   0.756   1.662
 1687WAT     H1 5303   6.009   0.738   1.620
 1687WAT     H2 5304   5.913   0.705   1.748
 1688WAT      O 5305   8.488   8.528   7.480
 1688WAT     H1 5306   8.392   8.551   7.472
 1688WAT     H2 5307   8.502   8.432   7.456
 1689WAT      O 5308   9.528   4.753   4.277
 1689WAT     H1 5309   9.507   4.797   4.364
 1689WAT     H2 5310   9.453   4.693   4.252
 1690WAT      O 5311   7.727   3.553   4.093
 1690WAT     H1 5312   7.756   3.563   4.188
 1690WAT     H2 5313   7.660   3.478   4.086
 1691WAT      O 5314   3.020   6.550   4.306
 1691WAT     H1 5315   2.929   6.557   4.266
 1691WAT     H2 5316   3.012   6.526   4.403
 1692WAT      O 5317   7.092   6.352   8.276
 1692WAT     H1 5318   7.035   6.434   8.276
 1692WAT     H2 5319   7.148   6.349   8.193
 1693WAT      O 5320   2.564   7.339   2.497
 1693WAT     H1 5321   2.554   7.422   2.552
 1693WAT     H2 5322   2.598   7.362   2.406
 1694WAT      O 5323   0.436   5.243   2.616
 1694WAT     H1 5324   0.480   5.180   2.552
 1694WAT     H2 5325   0.350   5.204   2.648
 1695WAT      O 5326   0.788   1.798   6.986
 1695WAT     H1 5327   0.784   1.791   6.886
 1695WAT     H2 5328   0.741   1.720   7.027
 1696WAT      O 5329   9.107   6.190   9.867
 1696WAT     H1 5330   9.067   6.235   9.787
 1696WAT     H2 5331   9.201   6.223   9.879
 1697WAT      O 5332   8.676   5.057   7.008
 1697WAT     H1 5333   8.602   5.122   7.024
 1697WAT     H2 5334   8.637   4.971   6.973
 1698WAT      O 5335   0.787   5.661   5.584
 1698WAT     H1 5336   0.721   5.735   5.570
 1698WAT     H2 5337   0.880   5.697   5.575
 1699WAT      O 5338   8.704   2.326   9.677
 1699WAT     H1 5339   8.680   2.420   9.652
 1699WAT     H2 5340   8.751   2.326   9.765
 1700WAT      O 5341   2.600   1.756   0.214
 1700WAT     H1 5342   2.623   1.850   0.239
 1700WAT     H2 5343   2.510   1.755   0.169
 1701WAT      O 5344   0.136   8.500   2.279
 1701WAT     H1 5345   0.194   8.513   2.199
 1701WAT     H2 5346   0.076   8.579   2.290
 1702WAT      O 5347   7.795   0.487   0.968
 1702WAT     H1 5348   7.894   0.475   0.960
 1702WAT     H2 5349   7.760   0.535   0.887
 1703WAT      O 5350   0.554   1.487   0.566
 1703WAT     H1 5351   0.641   1.453   0.530
 1703WAT     H2 5352   0.481   1.465   0.501
 1704WAT      O 5353   5.302   0.224   5.194
 1704WAT     H1 5354   5.292   0.195   5.289
 1704WAT     H2 5355   5.217   0.267   5.164
 1705WAT      O 5356   2.871   0.673   5.099
 1705WAT     H1 5357   2.932   0.741   5.056
 1705WAT     H2 5358   2.894   0.582   5.064
 1706WAT      O 5359   3.712   4.446   3.798
 1706WAT     H1 5360   3.795   4.501   3.807
 1706WAT     H2 5361   3.704   4.412   3.704
 1707WAT      O 5362   4.706   1.295   7.808
 1707WAT     H1 5363   4.803   1.305   7.785
 1707WAT     H2 5364   4.688   1.339   7.896
 1708WAT      O 5365   8.754   1.852   8.006
 1708WAT     H1 5366   8.784   1.839   8.100
 1708WAT     H2 5367   8.790   1.938   7.970
 1709WAT      O 5368   4.028   5.050   1.706
 1709WAT     H1 5369   4.048   4.991   1.628
 1709WAT     H2 5370   4.068   5.141   1.690
 1710WAT      O 5371   1.296   8.610   8.487
 1710WAT     H1 5372   1.249   8.653   8.410
 1710WAT     H2 5373   1.310   8.512   8.468
 1711WAT      O 5374   7.769   7.796   2.208
 1711WAT     H1 5375   7.769   7.879   2.152
 1711WAT     H2 5376   7.693   7.799   2.272
 1712WAT      O 5377   2.247   4.549   0.680
 1712WAT     H1 5378   2.242   4.456   0.643
 1712WAT     H2 5379   2.328   4.595   0.643
 1713WAT      O 5380   4.396   7.259   7.737
 1713WAT     H1 5381   4.493   7.253   7.715
 1713WAT     H2 5382   4.383   7.330   7.807
 1714WAT      O 5383   2.521   0.796   6.101
 1714WAT     H1 5384   2.426   0.801   6.068
 1714WAT     H2 5385   2.529   0.846   6.187
 1715WAT      O 5386   8.606   8.009   6.053
 1715WAT     H1 5387   8.674   8.047   5.990
 1715WAT     H2 5388   8.537   8.078   6.073
 1716WAT      O 5389   0.816   1.341   1.515
 1716WAT     H1 5390   0.895   1.280   1.509
 1716WAT     H2 5391   0.770   1.345   1.427
 1717WAT      O 5392   9.455   4.587   5.073
 1717WAT     H1 5393   9.524   4.591   5.145
 1717WAT     H2 5394   9.437   4.491   5.049
 1718WAT      O 5395   2.822   9.025   3.292
 1718WAT     H1 5396   2.831   8.930   3.263
 1718WAT     H2 5397   2.754   9.031   3.365
 1719WAT      O 5398   1.832   2.095   8.937
 1719WAT     H1 5399   1.733   2.079   8.926
 1719WAT     H2 5400   1.846   2.180   8.988
 1720WAT      O 5401   9.446   7.424   4.871
 1720WAT     H1 5402   9.448   7.476   4.786
 1720WAT     H2 5403   9.490   7.336   4.857
 1721WAT      O 5404   1.695   0.551   4.184
 1721WAT     H1 5405   1.607   0.513   4.213
 1721WAT     H2 5406   1.713   0.636   4.233
 1722WAT      O 5407   5.994   7.980   3.627
 1722WAT     H1 5408   6.014   7.915   3.701
 1722WAT     H2 5409   6.072   8.041   3.614
 1723WAT      O 5410   2.860   7.716   0.936
 1723WAT     H1 5411   2.841   7.779   0.861
 1723WAT     H2 5412   2.807   7.741   1.016
 1724WAT      O 5413   5.030   2.421   2.368
 1724WAT     H1 5414   5.121   2.463   2.364
 1724WAT     H2 5415   4.988   2.440   2.456
 1725WAT      O 5416   1.881   4.517   7.374
 1725WAT     H1 5417   1.855   4.601   7.422
 1725WAT     H2 5418   1.900   4.538   7.278
 1726WAT      O 5419   4.873   5.889   0.254
 1726WAT     H1 5420   4.939   5.865   0.182
 1726WAT     H2 5421   4.876   5.988   0.270
 1727WAT      O 5422   7.818   3.412   5.280
 1727WAT     H1 5423   7.903   3.376   5.243
 1727WAT     H2 5424   7.813   3.393   5.378
 1728WAT      O 5425   8.634   2.811   0.967
 1728WAT     H1 5426   8.629   2.888   1.031
 1728WAT     H2 5427   8.729   2.780   0.960
 1729WAT      O 5428   0.709   0.220   1.457
 1729WAT     H1 5429   0.678   0.154   1.525
 1729WAT     H2 5430   0.681   0.312   1.485
 1730WAT      O 5431   4.637   3.589   9.851
 1730WAT     H1 5432   4.542   3.578   9.878
 1730WAT     H2 5433   4.654   3.684   9.825
 1731WAT      O 5434   9.559   1.695   3.722
 1731WAT     H1 5435   9.476   1.694   3.779
 1731WAT     H2 5436   9.591   1.789   3.712
 1732WAT      O 5437   9.253   4.661   8.259
 1732WAT     H1 5438   9.313   4.585   8.284
 1732WAT     H2 5439   9.169   4.626   8.218
 1733WAT      O 5440   6.248   1.868   4.421
 1733WAT     H1 5441   6.261   1.769   4.434
 1733WAT     H2 5442   6.245   1.913   4.510
 1734WAT      O 5443   2.934   4.680   7.737
 1734WAT     H1 5444   2.918   4.739   7.658
 1734WAT     H2 5445   2.998   4.724   7.799
 1735WAT      O 5446   5.586   2.558   0.227
 1735WAT     H1 5447   5.523   2.488   0.193
 1735WAT     H2 5448   5.535   2.627   0.278
 1736WAT      O 5449   8.434   5.568   1.631
 1736WAT     H1 5450   8.353   5.553   1.688
 1736WAT     H2 5451   8.515   5.531   1.676
 1737WAT      O 5452   2.897   0.393   9.806
 1737WAT     H1 5453   2.927   0.489   9.806
 1737WAT     H2 5454   2.810   0.385   9.854
 1738WAT      O 5455   5.753   7.814   8.111
 1738WAT     H1 5456   5.767   7.725   8.069
 1738WAT     H2 5457   5.773   7.809   8.209
 1739WAT      O 5458   7.742   9.588   7.227
 1739WAT     H1 5459   7.778   9.669   7.181
 1739WAT     H2 5460   7.813   9.517   7.227
 1740WAT      O 5461   8.243   8.653   3.895
 1740WAT     H1 5462   8.237   8.710   3.813
 1740WAT     H2 5463   8.329   8.674   3.943
 1741WAT      O 5464   2.050   7.275   5.486
 1741WAT     H1 5465   2.036   7.328   5.403
 1741WAT     H2 5466   2.103   7.329   5.552
 1742WAT      O 5467   0.548   2.686   1.153
 1742WAT     H1 5468   0.548   2.668   1.055
 1742WAT     H2 5469   0.456   2.715   1.182
 1743WAT      O 5470   1.433   5.419   4.824
 1743WAT     H1 5471   1.490   5.470   4.889
 1743WAT     H2 5472   1.380   5.350   4.872
 1744WAT      O 5473   4.921   2.518   6.193
 1744WAT     H1 5474   4.828   2.549   6.173
 1744WAT     H2 5475   4.939   2.433   6.143
 1745WAT      O 5476   6.446   5.594   8.959
 1745WAT     H1 5477   6.435   5.570   9.055
 1745WAT     H2 5478   6.376   5.547   8.904
 1746WAT      O 5479   5.231   8.792   9.548
 1746WAT     H1 5480   5.131   8.792   9.561
 1746WAT     H2 5481   5.259   8.880   9.509
 1747WAT      O 5482   5.859   3.933   0.246
 1747WAT     H1 5483   5.935   3.868   0.248
 1747WAT     H2 5484   5.847   3.974   0.336
 1748WAT      O 5485   7.795   2.044   2.256
 1748WAT     H1 5486   7.860   2.056   2.331
 1748WAT     H2 5487   7.793   2.127   2.200
 1749WAT      O 5488   6.674   3.328   6.281
 1749WAT     H1 5489   6.693   3.230   6.280
 1749WAT     H2 5490   6.589   3.345   6.230
 1750WAT      O 5491   5.026   7.543   3.042
 1750WAT     H1 5492   4.943   7.578   3.085
 1750WAT     H2 5493   5.024   7.443   3.044
 1751WAT      O 5494   7.868   6.102   4.850
 1751WAT     H1 5495   7.902   6.129   4.940
 1751WAT     H2 5496   7.785   6.047   4.861
 1752WAT      O 5497   1.069   1.235   2.954
 1752WAT     H1 5498   1.002   1.251   3.026
 1752WAT     H2 5499   1.159   1.219   2.995
 1753WAT      O 5500   4.655   5.251   1.619
 1753WAT     H1 5501   4.559   5.246   1.593
 1753WAT     H2 5502   4.712   5.236   1.538
 1754WAT      O 5503   8.524   6.334   0.477
 1754WAT     H1 5504   8.494   6.263   0.541
 1754WAT     H2 5505   8.623   6.332   0.468
 1755WAT      O 5506   9.704   3.291   8.290
 1755WAT     H1 5507   9.632   3.301   8.359
 1755WAT     H2 5508   9.790   3.268   8.335
 1756WAT      O 5509   9.805   1.941   9.005
 1756WAT     H1 5510   9.797   1.891   8.918
 1756WAT     H2 5511   9.796   1.876   9.081
 1757WAT      O 5512   0.136   8.641   7.793
 1757WAT     H1 5513   0.051   8.694   7.792
 1757WAT     H2 5514   0.206   8.690   7.741
 1758WAT      O 5515   8.514   4.596   5.523
 1758WAT     H1 5516   8.570   4.643   5.591
 1758WAT     H2 5517   8.508   4.651   5.440
 1759WAT      O 5518   0.324   0.446   0.839
 1759WAT     H1 5519   0.260   0.513   0.802
 1759WAT     H2 5520   0.288   0.409   0.925
 1760WAT      O 5521   6.155   7.150   8.449
 1760WAT     H1 5522   6.250   7.180   8.461
 1760WAT     H2 5523   6.144   7.110   8.358
 1761WAT      O 5524   1.750   6.266   0.807
 1761WAT     H1 5525   1.833   6.266   0.752
 1761WAT     H2 5526   1.684   6.201   0.768
 1762WAT      O 5527   9.131   0.684   3.743
 1762WAT     H1 5528   9.086   0.725   3.822
 1762WAT     H2 5529   9.230   0.698   3.750
 1763WAT      O 5530   6.479   2.811   0.295
 1763WAT     H1 5531   6.458   2.905   0.321
 1763WAT     H2 5532   6.547   2.774   0.358
 1764WAT      O 5533   9.576   2.503   1.749
 1764WAT     H1 5534   9.552   2.488   1.845
 1764WAT     H2 5535   9.517   2.448   1.691
 1765WAT      O 5536   2.094   2.793   8.955
 1765WAT     H1 5537   2.106   2.828   9.048
 1765WAT     H2 5538   2.184   2.785   8.911
 1766WAT      O 5539   7.161   0.554   8.362
 1766WAT     H1 5540   7.220   0.473   8.366
 1766WAT     H2 5541   7.214   0.635   8.389
 1767WAT      O 5542   5.122   6.178   3.185
 1767WAT     H1 5543   5.187   6.116   3.227
 1767WAT     H2 5544   5.030   6.140   3.193
 1768WAT      O 5545   8.141   4.654   6.028
 1768WAT     H1 5546   8.196   4.685   6.105
 1768WAT     H2 5547   8.190   4.669   5.942
 1769WAT      O 5548   8.692   2.245   1.582
 1769WAT     H1 5549   8.756   2.185   1.630
 1769WAT     H2 5550   8.603   2.242   1.628
 1770WAT      O 5551   5.831   1.455   6.287
 1770WAT     H1 5552   5.747   1.406   6.262
 1770WAT     H2 5553   5.836   1.541   6.236
 1771WAT      O 5554   1.494   5.300   8.997
 1771WAT     H1 5555   1.495   5.250   8.910
 1771WAT     H2 5556   1.545   5.247   9.065
 1772WAT      O 5557   9.362   6.991   2.661
 1772WAT     H1 5558   9.310   7.067   2.700
 1772WAT     H2 5559   9.448   7.025   2.624
 1773WAT      O 5560   8.844   6.166   9.121
 1773WAT     H1 5561   8.869   6.244   9.063
 1773WAT     H2 5562   8.745   6.166   9.136
 1774WAT      O 5563   4.012   1.662   1.695
 1774WAT     H1 5564   4.032   1.758   1.711
 1774WAT     H2 5565   4.097   1.614   1.670
 1775WAT      O 5566   1.772   4.670   3.677
 1775WAT     H1 5567   1.850   4.729   3.699
 1775WAT     H2 5568   1.772   4.591   3.740
 1776WAT      O 5569   7.947   5.885   6.687
 1776WAT     H1 5570   7.919   5.958   6.624
 1776WAT     H2 5571   8.040   5.903   6.718
 1777WAT      O 5572   5.107   6.158   0.101
 1777WAT     H1 5573   5.151   6.196   0.183
 1777WAT     H2 5574   5.127   6.217   0.023
 1778WAT      O 5575   9.588   3.358   2.997
 1778WAT     H1 5576   9.685   3.379   3.008
 1778WAT     H2 5577   9.573   3.260   3.011
 1779WAT      O 5578   2.282   7.164   9.206
 1779WAT     H1 5579   2.314   7.079   9.249
 1779WAT     H2 5580   2.345   7.238   9.229
 1780WAT      O 5581   2.511   0.710   0.831
 1780WAT     H1 5582   2.424   0.727   0.785
 1780WAT     H2 5583   2.541   0.616   0.812
 1781WAT      O 5584   4.085   3.934   6.431
 1781WAT     H1 5585   4.028   3.916   6.351
 1781WAT     H2 5586   4.087   4.032   6.449
 1782WAT      O 5587   5.632   2.444   2.020
 1782WAT     H1 5588   5.696   2.379   1.978
 1782WAT     H2 5589   5.547   2.397   2.043
 1783WAT      O 5590   0.319   6.831   0.928
 1783WAT     H1 5591   0.308   6.903   0.859
 1783WAT     H2 5592   0.391   6.858   0.992
 1784WAT      O 5593   4.821   2.784   4.001
 1784WAT     H1 5594   4.779   2.812   4.087
 1784WAT     H2 5595   4.766   2.711   3.959
 1785WAT      O 5596   2.952   7.774   8.626
 1785WAT     H1 5597   2.966   7.682   8.589
 1785WAT     H2 5598   2.944   7.769   8.725
 1786WAT      O 5599   0.742   4.763   4.192
 1786WAT     H1 5600   0.655   4.714   4.194
 1786WAT     H2 5601   0.789   4.744   4.106
 1787WAT      O 5602   5.838   2.868   9.252
 1787WAT     H1 5603   5.819   2.806   9.328
 1787WAT     H2 5604   5.753   2.890   9.205
 1788WAT      O 5605   6.260   2.646   5.309
 1788WAT     H1 5606   6.350   2.610   5.333
 1788WAT     H2 5607   6.189   2.580   5.334
 1789WAT      O 5608   3.169   1.291   3.497
 1789WAT     H1 5609   3.245   1.235   3.464
 1789WAT     H2 5610   3.082   1.246   3.474
 1790WAT      O 5611   1.752   3.413   4.179
 1790WAT     H1 5612   1.683   3.484   4.185
 1790WAT     H2 5613   1.730   3.339   4.243
 1791WAT      O 5614   2.228   8.516   3.822
 1791WAT     H1 5615   2.206   8.468   3.738
 1791WAT     H2 5616   2.248   8.449   3.894
 1792WAT      O 5617   7.659   1.439   0.605
 1792WAT     H1 5618   7.751   1.449   0.567
 1792WAT     H2 5619   7.648   1.348   0.644
 1793WAT      O 5620   2.439   4.199   9.610
 1793WAT     H1 5621   2.376   4.267   9.647
 1793WAT     H2 5622   2.515   4.245   9.564
 1794WAT      O 5623   3.149   0.674   6.409
 1794WAT     H1 5624   3.056   0.638   6.401
 1794WAT     H2 5625   3.166   0.702   6.503
 1795WAT      O 5626   1.577   6.113   7.649
 1795WAT     H1 5627   1.522   6.121   7.565
 1795WAT     H2 5628   1.673   6.100   7.624
 1796WAT      O 5629   3.844   1.535   7.257
 1796WAT     H1 5630   3.836   1.590   7.339
 1796WAT     H2 5631   3.827   1.439   7.280
 1797WAT      O 5632   6.053   0.882   6.330
 1797WAT     H1 5633   6.084   0.894   6.235
 1797WAT     H2 5634   6.108   0.939   6.390
 1798WAT      O 5635   0.108   5.272   2.483
 1798WAT     H1 5636   0.101   5.311   2.391
 1798WAT     H2 5637   0.075   5.178   2.481
 1799WAT      O 5638   9.192   1.124   0.460
 1799WAT     H1 5639   9.107   1.170   0.436
 1799WAT     H2 5640   9.190   1.099   0.557
 1800WAT      O 5641   0.786   1.737   8.419
 1800WAT     H1 5642   0.790   1.819   8.476
 1800WAT     H2 5643   0.879   1.704   8.402
 1801WAT      O 5644   4.710   9.010   4.114
 1801WAT     H1 5645   4.749   9.097   4.084
 1801WAT     H2 5646   4.774   8.936   4.095
 1802WAT      O 5647   6.521   7.654   2.187
 1802WAT     H1 5648   6.607   7.641   2.139
 1802WAT     H2 5649   6.457   7.581   2.160
 1803WAT      O 5650   1.032   1.826   6.366
 1803WAT     H1 5651   1.106   1.864   6.421
 1803WAT     H2 5652   0.954   1.889   6.368
 1804WAT      O 5653   8.455   6.131   0.661
 1804WAT     H1 5654   8.367   6.122   0.615
 1804WAT     H2 5655   8.459   6.066   0.737
 1805WAT      O 5656   1.626   5.495   1.393
 1805WAT     H1 5657   1.658   5.582   1.355
 1805WAT     H2 5658   1.705   5.435   1.409
 1806WAT      O 5659   5.183   3.165   8.197
 1806WAT     H1 5660   5.125   3.206   8.126
 1806WAT     H2 5661   5.231   3.238   8.246
 1807WAT      O 5662   8.003   1.700   2.719
 1807WAT     H1 5663   7.931   1.681   2.785
 1807WAT     H2 5664   8.051   1.616   2.696
 1808WAT      O 5665   8.302   8.551   3.575
 1808WAT     H1 5666   8.388   8.548   3.625
 1808WAT     H2 5667   8.312   8.504   3.488
 1809WAT      O 5668   3.476   8.904   2.247
 1809WAT     H1 5669   3.402   8.951   2.199
 1809WAT     H2 5670   3.485   8.942   2.339
 1810WAT      O 5671   9.708   2.590   3.872
 1810WAT     H1 5672   9.651   2.666   3.903
 1810WAT     H2 5673   9.728   2.600   3.775
 1811WAT      O 5674   9.063   5.146   7.185
 1811WAT     H1 5675   9.093   5.051   7.193
 1811WAT     H2 5676   9.002   5.156   7.106
 1812WAT      O 5677   3.089   0.253   8.228
 1812WAT     H1 5678   3.018   0.319   8.252
 1812WAT     H2 5679   3.142   0.230   8.309
 1813WAT      O 5680   7.487   8.336   4.719
 1813WAT     H1 5681   7.451   8.248   4.750
 1813WAT     H2 5682   7.444   8.361   4.632
 1814WAT      O 5683   4.874   7.899   7.788
 1814WAT     H1 5684   4.970   7.890   7.763
 1814WAT     H2 5685   4.853   7.835   7.862
 1815WAT      O 5686   0.612   3.082   9.576
 1815WAT     H1 5687   0.527   3.110   9.531
 1815WAT     H2 5688   0.689   3.098   9.515
 1816WAT      O 5689   1.480   6.042   3.634
 1816WAT     H1 5690   1.479   5.988   3.718
 1816WAT     H2 5691   1.438   5.990   3.560
 1817WAT      O 5692   8.680   7.629   7.024
 1817WAT     H1 5693   8.654   7.695   7.094
 1817WAT     H2 5694   8.780   7.621   7.022
 1818WAT      O 5695   2.761   4.093   0.126
 1818WAT     H1 5696   2.701   4.028   0.080
 1818WAT     H2 5697   2.803   4.153   0.058
 1819WAT      O 5698   8.414   8.227   9.034
 1819WAT     H1 5699   8.492   8.174   9.004
 1819WAT     H2 5700   8.409   8.226   9.134
 1820WAT      O 5701   3.060   8.696   8.800
 1820WAT     H1 5702   3.143   8.749   8.784
 1820WAT     H2 5703   3.081   8.598   8.796
 1821WAT      O 5704   6.461   2.461   8.892
 1821WAT     H1 5705   6.452   2.555   8.925
 1821WAT     H2 5706   6.550   2.425   8.920
 1822WAT      O 5707   1.937   8.276   2.381
 1822WAT     H1 5708   1.897   8.263   2.290
 1822WAT     H2 5709   2.036   8.263   2.376
 1823WAT      O 5710   8.762   0.448   8.058
 1823WAT     H1 5711   8.782   0.518   8.125
 1823WAT     H2 5712   8.770   0.486   7.966
 1824WAT      O 5713   7.563   6.151   9.169
 1824WAT     H1 5714   7.570   6.134   9.070
 1824WAT     H2 5715   7.579   6.247   9.188
 1825WAT      O 5716   8.909   1.027   4.457
 1825WAT     H1 5717   8.901   1.081   4.541
 1825WAT     H2 5718   8.847   0.949   4.463
 1826WAT      O 5719   5.433   2.954   9.829
 1826WAT     H1 5720   5.415   2.970   9.732
 1826WAT     H2 5721   5.530   2.971   9.848
 1827WAT      O 5722   5.136   7.069   7.376
 1827WAT     H1 5723   5.162   6.988   7.429
 1827WAT     H2 5724   5.142   7.049   7.278
 1828WAT      O 5725   5.811   3.348   8.826
 1828WAT     H1 5726   5.834   3.331   8.922
 1828WAT     H2 5727   5.864   3.425   8.792
 1829WAT      O 5728   8.355   4.641   6.662
 1829WAT     H1 5729   8.343   4.663   6.565
 1829WAT     H2 5730   8.453   4.634   6.683
 1830WAT      O 5731   9.514   9.551   5.471
 1830WAT     H1 5732   9.435   9.491   5.476
 1830WAT     H2 5733   9.584   9.520   5.536
 1831WAT      O 5734   8.723   4.582   4.387
 1831WAT     H1 5735   8.649   4.620   4.442
 1831WAT     H2 5736   8.803   4.566   4.444
 1832WAT      O 5737   5.361   5.953   4.124
 1832WAT     H1 5738   5.317   6.019   4.185
 1832WAT     H2 5739   5.427   5.899   4.176
 1833WAT      O 5740   2.084   7.583   8.979
 1833WAT     H1 5741   2.054   7.637   8.900
 1833WAT     H2 5742   2.148   7.636   9.034
 1834WAT      O 5743   3.720   4.905   7.162
 1834WAT     H1 5744   3.810   4.862   7.156
 1834WAT     H2 5745   3.673   4.895   7.074
 1835WAT      O 5746   8.129   4.346   7.988
 1835WAT     H1 5747   8.194   4.392   7.927
 1835WAT     H2 5748   8.175   4.316   8.071
 1836WAT      O 5749   8.693   7.742   7.420
 1836WAT     H1 5750   8.781   7.788   7.434
 1836WAT     H2 5751   8.638   7.795   7.355
 1837WAT      O 5752   2.142   3.277   4.387
 1837WAT     H1 5753   2.115   3.316   4.300
 1837WAT     H2 5754   2.241   3.287   4.400
 1838WAT      O 5755   4.552   2.938   6.142
 1838WAT     H1 5756   4.524   2.861   6.085
 1838WAT     H2 5757   4.551   3.022   6.087
 1839WAT      O 5758   5.612   7.656   3.850
 1839WAT     H1 5759   5.530   7.699   3.888
 1839WAT     H2 5760   5.669   7.727   3.808
 1840WAT      O 5761   3.465   4.161   0.029
 1840WAT     H1 5762   3.510   4.077   0.061
 1840WAT     H2 5763   3.394   4.188   0.095
 1841WAT      O 5764   4.456   6.878   3.637
 1841WAT     H1 5765   4.554   6.892   3.630
 1841WAT     H2 5766   4.434   6.784   3.608
 1842WAT      O 5767   3.319   3.466   3.091
 1842WAT     H1 5768   3.367   3.481   3.005
 1842WAT     H2 5769   3.362   3.389   3.140
 1843WAT      O 5770   0.792   1.259   1.079
 1843WAT     H1 5771   0.749   1.184   1.129
 1843WAT     H2 5772   0.825   1.328   1.144
 1844WAT      O 5773   2.758   5.827   4.926
 1844WAT     H1 5774   2.669   5.844   4.884
 1844WAT     H2 5775   2.790   5.735   4.902
 1845WAT      O 5776   8.123   3.521   1.544
 1845WAT     H1 5777   8.178   3.439   1.562
 1845WAT     H2 5778   8.053   3.530   1.614
 1846WAT      O 5779   3.949   0.703   0.957
 1846WAT     H1 5780   3.993   0.613   0.962
 1846WAT     H2 5781   3.965   0.752   1.042
 1847WAT      O 5782   4.460   5.507   1.824
 1847WAT     H1 5783   4.413   5.595   1.827
 1847WAT     H2 5784   4.559   5.522   1.826
 1848WAT      O 5785   8.899   3.224   4.666
 1848WAT     H1 5786   8.841   3.146   4.691
 1848WAT     H2 5787   8.843   3.298   4.631
 1849WAT      O 5788   4.284   7.140   4.089
 1849WAT     H1 5789   4.336   7.221   4.115
 1849WAT     H2 5790   4.345   7.072   4.048
 1850WAT      O 5791   4.579   1.433   8.558
 1850WAT     H1 5792   4.519   1.361   8.522
 1850WAT     H2 5793   4.675   1.406   8.548
 1851WAT      O 5794   3.274   5.087   6.994
 1851WAT     H1 5795   3.338   5.160   7.018
 1851WAT     H2 5796   3.323   5.014   6.946
 1852WAT      O 5797   3.971   6.761   7.417
 1852WAT     H1 5798   3.991   6.859   7.414
 1852WAT     H2 5799   3.890   6.745   7.473
 1853WAT      O 5800   6.421   2.159   7.741
 1853WAT     H1 5801   6.495   2.144   7.807
 1853WAT     H2 5802   6.459   2.204   7.659
 1854WAT      O 5803   8.843   3.817   4.849
 1854WAT     H1 5804   8.841   3.857   4.758
 1854WAT     H2 5805   8.848   3.718   4.842
 1855WAT      O 5806   5.118   3.024   5.694
 1855WAT     H1 5807   5.033   3.073   5.712
 1855WAT     H2 5808   5.178   3.031   5.773
 1856WAT      O 5809   1.148   8.782   5.050
 1856WAT     H1 5810   1.060   8.736   5.063
 1856WAT     H2 5811   1.157   8.810   4.954
 1857WAT      O 5812   8.193   5.671   2.786
 1857WAT     H1 5813   8.094   5.679   2.798
 1857WAT     H2 5814   8.213   5.652   2.690
 1858WAT      O 5815   5.749   0.653   3.791
 1858WAT     H1 5816   5.829   0.677   3.847
 1858WAT     H2 5817   5.749   0.708   3.708
 1859WAT      O 5818   5.131   4.467   3.585
 1859WAT     H1 5819   5.056   4.501   3.641
 1859WAT     H2 5820   5.163   4.380   3.621
 1860WAT      O 5821   7.444   5.541   7.043
 1860WAT     H1 5822   7.459   5.590   6.958
 1860WAT     H2 5823   7.518   5.562   7.108
 1861WAT      O 5824   9.402   4.353   4.942
 1861WAT     H1 5825   9.498   4.338   4.918
 1861WAT     H2 5826   9.353   4.390   4.864
 1862WAT      O 5827   4.837   0.559   8.092
 1862WAT     H1 5828   4.900   0.538   8.167
 1862WAT     H2 5829   4.888   0.571   8.007
 1863WAT      O 5830   3.475   3.218   3.090
 1863WAT     H1 5831   3.549   3.237   3.026
 1863WAT     H2 5832   3.409   3.156   3.048
 1864WAT      O 5833   7.917   4.775   8.862
 1864WAT     H1 5834   7.993   4.833   8.833
 1864WAT     H2 5835   7.884   4.722   8.784
 1865WAT      O 5836   7.823   1.408   6.587
 1865WAT     H1 5837   7.873   1.364   6.512
 1865WAT     H2 5838   7.825   1.349   6.667
 1866WAT      O 5839   9.462   8.397   0.171
 1866WAT     H1 5840   9.458   8.435   0.263
 1866WAT     H2 5841   9.442   8.469   0.105
 1867WAT      O 5842   2.577   5.164   2.728
 1867WAT     H1 5843   2.578   5.165   2.828
 1867WAT     H2 5844   2.629   5.242   2.693
 1868WAT      O 5845   8.145   5.341   9.883
 1868WAT     H1 5846   8.196   5.386   9.809
 1868WAT     H2 5847   8.047   5.356   9.870
 1869WAT      O 5848   9.426   6.771   3.748
 1869WAT     H1 5849   9.393   6.866   3.750
 1869WAT     H2 5850   9.485   6.758   3.669
 1870WAT      O 5851   6.883   1.274   1.121
 1870WAT     H1 5852   6.846   1.353   1.171
 1870WAT     H2 5853   6.983   1.277   1.124
 1871WAT      O 5854   0.259   5.663   1.043
 1871WAT     H1 5855   0.293   5.585   1.096
 1871WAT     H2 5856   0.238   5.739   1.105
 1872WAT      O 5857   9.411   9.484   7.520
 1872WAT     H1 5858   9.455   9.438   7.597
 1872WAT     H2 5859   9.315   9.458   7.515
 1873WAT      O 5860   1.160   3.554   0.581
 1873WAT     H1 5861   1.079   3.499   0.601
 1873WAT     H2 5862   1.210   3.512   0.505
 1874WAT      O 5863   2.658   8.698   1.952
 1874WAT     H1 5864   2.581   8.637   1.936
 1874WAT     H2 5865   2.728   8.651   2.005
 1875WAT      O 5866   0.274   6.492   4.323
 1875WAT     H1 5867   0.308   6.577   4.283
 1875WAT     H2 5868   0.342   6.455   4.386
 1876WAT      O 5869   0.325   1.636   8.274
 1876WAT     H1 5870   0.421   1.664   8.265
 1876WAT     H2 5871   0.266   1.712   8.247
 1877WAT      O 5872   0.312   9.300   9.656
 1877WAT     H1 5873   0.303   9.331   9.751
 1877WAT     H2 5874   0.323   9.200   9.655
 1878WAT      O 5875   8.799   4.684   8.891
 1878WAT     H1 5876   8.701   4.670   8.901
 1878WAT     H2 5877   8.831   4.633   8.811
 1879WAT      O 5878   0.535   2.025   7.461
 1879WAT     H1 5879   0.493   1.967   7.531
 1879WAT     H2 5880   0.470   2.041   7.387
 1880WAT      O 5881   3.090   3.262   7.943
 1880WAT     H1 5882   3.140   3.199   7.884
 1880WAT     H2 5883   3.070   3.216   8.030
 1881WAT      O 5884   1.730   9.112   2.689
 1881WAT     H1 5885   1.827   9.097   2.708
 1881WAT     H2 5886   1.682   9.133   2.774
 1882WAT      O 5887   1.637   6.805   4.504
 1882WAT     H1 5888   1.633   6.879   4.437
 1882WAT     H2 5889   1.547   6.794   4.546
 1883WAT      O 5890   5.894   7.255   5.666
 1883WAT     H1 5891   5.844   7.195   5.728
 1883WAT     H2 5892   5.933   7.201   5.591
 1884WAT      O 5893   8.021   1.264   9.003
 1884WAT     H1 5894   7.931   1.221   9.006
 1884WAT     H2 5895   8.030   1.329   9.078
 1885WAT      O 5896   9.861   9.350   4.596
 1885WAT     H1 5897   9.852   9.250   4.594
 1885WAT     H2 5898   9.941   9.375   4.651
 1886WAT      O 5899   2.212   8.600   6.599
 1886WAT     H1 5900   2.298   8.563   6.563
 1886WAT     H2 5901   2.199   8.569   6.693
 1887WAT      O 5902   1.634   2.113   3.638
 1887WAT     H1 5903   1.650   2.179   3.564
 1887WAT     H2 5904   1.651   2.020   3.605
 1888WAT      O 5905   1.178   4.824   5.069
 1888WAT     H1 5906   1.263   4.784   5.104
 1888WAT     H2 5907   1.140   4.763   5.000
 1889WAT      O 5908   2.734   2.102   0.516
 1889WAT     H1 5909   2.731   2.079   0.613
 1889WAT     H2 5910   2.768   2.195   0.505
 1890WAT      O 5911   3.471   2.949   6.479
 1890WAT     H1 5912   3.406   2.878   6.452
 1890WAT     H2 5913   3.458   3.030   6.423
 1891WAT      O 5914   5.562   3.266   8.020
 1891WAT     H1 5915   5.591   3.236   7.929
 1891WAT     H2 5916   5.517   3.191   8.068
 1892WAT      O 5917   7.000   0.455   4.456
 1892WAT     H1 5918   6.987   0.475   4.553
 1892WAT     H2 5919   6.925   0.396   4.424
 1893WAT      O 5920   6.477   2.246   4.438
 1893WAT     H1 5921   6.509   2.312   4.370
 1893WAT     H2 5922   6.476   2.154   4.398
 1894WAT      O 5923   5.569   9.511   0.723
 1894WAT     H1 5924   5.589   9.488   0.818
 1894WAT     H2 5925   5.616   9.595   0.698
 1895WAT      O 5926   3.003   5.845   5.032
 1895WAT     H1 5927   3.041   5.755   5.054
 1895WAT     H2 5928   2.910   5.833   4.995
 1896WAT      O 5929   6.951   4.183   4.900
 1896WAT     H1 5930   7.027   4.154   4.841
 1896WAT     H2 5931   6.914   4.104   4.949
 1897WAT      O 5932   3.186   7.585   0.752
 1897WAT     H1 5933   3.260   7.521   0.731
 1897WAT     H2 5934   3.098   7.537   0.750
 1898WAT      O 5935   4.347   4.729   9.805
 1898WAT     H1 5936   4.266   4.787   9.795
 1898WAT     H2 5937   4.385   4.740   9.897
 1899WAT      O 5938   9.712   6.375   4.363
 1899WAT     H1 5939   9.662   6.459   4.340
 1899WAT     H2 5940   9.791   6.399   4.420
 1900WAT      O 5941   5.736   8.472   2.044
 1900WAT     H1 5942   5.727   8.529   1.962
 1900WAT     H2 5943   5.673   8.396   2.039
 1901WAT      O 5944   5.378   4.182   1.353
 1901WAT     H1 5945   5.341   4.200   1.262
 1901WAT     H2 5946   5.346   4.251   1.417
 1902WAT      O 5947   7.792   2.940   9.626
 1902WAT     H1 5948   7.890   2.956   9.613
 1902WAT     H2 5949   7.774   2.842   9.621
 1903WAT      O 5950   3.012   1.317   9.529
 1903WAT     H1 5951   3.028   1.360   9.617
 1903WAT     H2 5952   3.099   1.300   9.483
 1904WAT      O 5953   7.253   1.829   8.099
 1904WAT     H1 5954   7.349   1.801   8.105
 1904WAT     H2 5955   7.194   1.749   8.116
 1905WAT      O 5956   3.067   6.174   8.074
 1905WAT     H1 5957   3.019   6.191   7.988
 1905WAT     H2 5958   3.143   6.110   8.058
 1906WAT      O 5959   2.931   9.702   5.707
 1906WAT     H1 5960   2.835   9.686   5.730
 1906WAT     H2 5961   2.938   9.738   5.614
 1907WAT      O 5962   7.547   7.831   5.316
 1907WAT     H1 5963   7.614   7.771   5.274
 1907WAT     H2 5964   7.515   7.898   5.249
 1908WAT      O 5965   2.152   7.152   4.162
 1908WAT     H1 5966   2.201   7.167   4.248
 1908WAT     H2 5967   2.123   7.056   4.156
 1909WAT      O 5968   6.149   7.278   6.947
 1909WAT     H1 5969   6.130   7.197   6.893
 1909WAT     H2 5970   6.067   7.306   6.998
 1910WAT      O 5971   3.148   1.837   8.532
 1910WAT     H1 5972   3.197   1.849   8.447
 1910WAT     H2 5973   3.188   1.761   8.584
 1911WAT      O 5974   3.237   6.116   5.402
 1911WAT     H1 5975   3.302   6.149   5.333
 1911WAT     H2 5976   3.283   6.050   5.461
 1912WAT      O 5977   1.221   7.657   8.066
 1912WAT     H1 5978   1.252   7.721   8.136
 1912WAT     H2 5979   1.186   7.574   8.109
 1913WAT      O 5980   2.852   0.978   3.765
 1913WAT     H1 5981   2.808   0.888   3.767
 1913WAT     H2 5982   2.782   1.049   3.770
 1914WAT      O 5983   1.002   3.193   5.704
 1914WAT     H1 5984   1.043   3.260   5.765
 1914WAT     H2 5985   1.072   3.129   5.671
 1915WAT      O 5986   1.886   7.683   2.649
 1915WAT     H1 5987   1.807   7.742   2.668
 1915WAT     H2 5988   1.958   7.702   2.714
 1916WAT      O 5989   4.219   2.331   8.412
 1916WAT     H1 5990   4.190   2.289   8.327
 1916WAT     H2 5991   4.303   2.288   8.444
 1917WAT      O 5992   3.099   5.511   7.087
 1917WAT     H1 5993   3.139   5.452   7.017
 1917WAT     H2 5994   3.146   5.498   7.174
 1918WAT      O 5995   9.413   0.913   5.689
 1918WAT     H1 5996   9.426   0.883   5.784
 1918WAT     H2 5997   9.502   0.920   5.645
 1919WAT      O 5998   7.377   8.809   7.105
 1919WAT     H1 5999   7.372   8.908   7.108
 1919WAT     H2 6000   7.451   8.778   7.164
 1920WAT      O 6001   9.399   4.809   3.261
 1920WAT     H1 6002   9.334   4.875   3.300
 1920WAT     H2 6003   9.482   4.857   3.232
 1921WAT      O 6004   8.319   1.387   0.515
 1921WAT     H1 6005   8.231   1.342   0.498
 1921WAT     H2 6006   8.383   1.321   0.555
 1922WAT      O 6007   2.417   3.244   3.411
 1922WAT     H1 6008   2.477   3.300   3.354
 1922WAT     H2 6009   2.374   3.301   3.481
 1923WAT      O 6010   1.476   0.137   4.557
 1923WAT     H1 6011   1.418   0.118   4.637
 1923WAT     H2 6012   1.547   0.067   4.551
 1924WAT      O 6013   0.420   8.675   6.320
 1924WAT     H1 6014   0.414   8.774   6.303
 1924WAT     H2 6015   0.328   8.638   6.333
 1925WAT      O 6016   1.118   8.210   7.674
 1925WAT     H1 6017   1.193   8.253   7.623
 1925WAT     H2 6018   1.145   8.199   7.769
 1926WAT      O 6019   2.401   2.841   3.374
 1926WAT     H1 6020   2.496   2.872   3.372
 1926WAT     H2 6021   2.357   2.863   3.287
 1927WAT      O 6022   9.235   8.835   3.799
 1927WAT     H1 6023   9.318   8.842   3.855
 1927WAT     H2 6024   9.161   8.883   3.845
 1928WAT      O 6025   0.296   6.503   7.895
 1928WAT     H1 6026   0.240   6.448   7.957
 1928WAT     H2 6027   0.393   6.486   7.913
 1929WAT      O 6028   1.485   7.261   8.421
 1929WAT     H1 6029   1.563   7.304   8.377
 1929WAT     H2 6030   1.516   7.183   8.476
 1930WAT      O 6031   0.007   2.178   0.969
 1930WAT     H1 6032  -0.042   2.138   1.046
 1930WAT     H2 6033   0.096   2.212   0.999
 1931WAT      O 6034   9.260   8.826   4.891
 1931WAT     H1 6035   9.298   8.814   4.800
 1931WAT     H2 6036   9.210   8.912   4.895
 1932WAT      O 6037   2.559   3.125   0.996
 1932WAT     H1 6038   2.565   3.029   0.969
 1932WAT     H2 6039   2.649   3.167   0.992
 1933WAT      O 6040   6.439   6.614   4.537
 1933WAT     H1 6041   6.478   6.523   4.547
 1933WAT     H2 6042   6.499   6.681   4.581
 1934WAT      O 6043   2.926   4.235   8.010
 1934WAT     H1 6044   3.023   4.218   8.022
 1934WAT     H2 6045   2.912   4.313   7.950
 1935WAT      O 6046   9.237   7.523   3.663
 1935WAT     H1 6047   9.235   7.468   3.580
 1935WAT     H2 6048   9.290   7.606   3.646
 1936WAT      O 6049   8.158   7.900   7.979
 1936WAT     H1 6050   8.215   7.818   7.994
 1936WAT     H2 6051   8.102   7.887   7.897
 1937WAT      O 6052   9.144   6.315   1.146
 1937WAT     H1 6053   9.077   6.281   1.080
 1937WAT     H2 6054   9.129   6.269   1.234
 1938WAT      O 6055   8.215   1.476   5.313
 1938WAT     H1 6056   8.282   1.407   5.338
 1938WAT     H2 6057   8.253   1.536   5.243
 1939WAT      O 6058   3.853   5.197   6.451
 1939WAT     H1 6059   3.836   5.211   6.549
 1939WAT     H2 6060   3.784   5.135   6.414
 1940WAT      O 6061   4.442   3.670   4.679
 1940WAT     H1 6062   4.446   3.749   4.740
 1940WAT     H2 6063   4.491   3.594   4.721
 1941WAT      O 6064   2.739   7.059   3.725
 1941WAT     H1 6065   2.756   7.145   3.773
 1941WAT     H2 6066   2.730   6.985   3.791
 1942WAT      O 6067   3.583   5.144   3.939
 1942WAT     H1 6068   3.595   5.150   3.840
 1942WAT     H2 6069   3.672   5.146   3.984
 1943WAT      O 6070   0.272   8.431   2.919
 1943WAT     H1 6071   0.178   8.405   2.945
 1943WAT     H2 6072   0.336   8.388   2.982
 1944WAT      O 6073   3.718   7.924   0.920
 1944WAT     H1 6074   3.813   7.931   0.948
 1944WAT     H2 6075   3.662   7.897   0.999
 1945WAT      O 6076   7.240   8.590   7.017
 1945WAT     H1 6077   7.311   8.521   7.005
 1945WAT     H2 6078   7.282   8.676   7.048
 1946WAT      O 6079   0.817   7.123   6.231
 1946WAT     H1 6080   0.819   7.212   6.184
 1946WAT     H2 6081   0.763   7.059   6.177
 1947WAT      O 6082   0.471   6.288   2.023
 1947WAT     H1 6083   0.543   6.269   1.956
 1947WAT     H2 6084   0.417   6.367   1.993
 1948WAT      O 6085   3.376   3.434   1.240
 1948WAT     H1 6086   3.413   3.491   1.314
 1948WAT     H2 6087   3.321   3.491   1.179
 1949WAT      O 6088   1.491   0.011   0.963
 1949WAT     H1 6089   1.545   0.081   1.009
 1949WAT     H2 6090   1.447   0.050   0.883
 1950WAT      O 6091   2.639   8.258   6.249
 1950WAT     H1 6092   2.728   8.302   6.262
 1950WAT     H2 6093   2.634   8.176   6.306
 1951WAT      O 6094   1.288   9.621   4.774
 1951WAT     H1 6095   1.320   9.657   4.862
 1951WAT     H2 6096   1.362   9.569   4.730
 1952WAT      O 6097   4.400   8.553   7.751
 1952WAT     H1 6098   4.305   8.564   7.719
 1952WAT     H2 6099   4.438   8.643   7.771
 1953WAT      O 6100   8.739   6.650   8.951
 1953WAT     H1 6101   8.641   6.639   8.971
 1953WAT     H2 6102   8.761   6.748   8.951
 1954WAT      O 6103   9.528   0.971   3.853
 1954WAT     H1 6104   9.564   1.031   3.924
 1954WAT     H2 6105   9.575   0.883   3.858
 1955WAT      O 6106   2.134   5.375   8.448
 1955WAT     H1 6107   2.072   5.441   8.407
 1955WAT     H2 6108   2.084   5.318   8.513
 1956WAT      O 6109   8.324   0.726   7.965
 1956WAT     H1 6110   8.384   0.782   7.909
 1956WAT     H2 6111   8.271   0.665   7.905
 1957WAT      O 6112   8.766   0.515   5.831
 1957WAT     H1 6113   8.817   0.440   5.789
 1957WAT     H2 6114   8.706   0.557   5.763
 1958WAT      O 6115   4.427   6.923   3.935
 1958WAT     H1 6116   4.371   6.869   3.997
 1958WAT     H2 6117   4.399   6.906   3.840
 1959WAT      O 6118   5.167   9.114   7.828
 1959WAT     H1 6119   5.217   9.070   7.903
 1959WAT     H2 6120   5.138   9.044   7.762
 1960WAT      O 6121   6.770   1.182   6.825
 1960WAT     H1 6122   6.709   1.247   6.779
 1960WAT     H2 6123   6.749   1.089   6.794
 1961WAT      O 6124   7.442   8.386   7.032
 1961WAT     H1 6125   7.538   8.359   7.028
 1961WAT     H2 6126   7.385   8.306   7.051
 1962WAT      O 6127   2.681   2.963   4.822
 1962WAT     H1 6128   2.762   2.983   4.767
 1962WAT     H2 6129   2.600   3.001   4.777
 1963WAT      O 6130   8.522   5.686   6.249
 1963WAT     H1 6131   8.456   5.754   6.218
 1963WAT     H2 6132   8.614   5.725   6.245
 1964WAT      O 6133   6.816   0.924   5.896
 1964WAT     H1 6134   6.887   0.979   5.939
 1964WAT     H2 6135   6.779   0.973   5.816
 1965WAT      O 6136   9.057   6.943   6.079
 1965WAT     H1 6137   9.099   6.916   5.993
 1965WAT     H2 6138   9.060   6.867   6.144
 1966WAT      O 6139   1.887   8.343   1.635
 1966WAT     H1 6140   1.813   8.290   1.594
 1966WAT     H2 6141   1.904   8.425   1.580
 1967WAT      O 6142   0.546   2.040   2.738
 1967WAT     H1 6143   0.577   2.129   2.770
 1967WAT     H2 6144   0.466   2.012   2.791
 1968WAT      O 6145   4.060   3.590   8.110
 1968WAT     H1 6146   4.084   3.577   8.206
 1968WAT     H2 6147   4.070   3.687   8.086
 1969WAT      O 6148   1.688   3.033   8.832
 1969WAT     H1 6149   1.611   3.016   8.771
 1969WAT     H2 6150   1.768   2.980   8.801
 1970WAT      O 6151   1.180   9.817   8.864
 1970WAT     H1 6152   1.161   9.767   8.780
 1970WAT     H2 6153   1.104   9.879   8.884
 1971WAT      O 6154   5.399   6.623   2.306
 1971WAT     H1 6155   5.481   6.675   2.282
 1971WAT     H2 6156   5.410   6.528   2.278
 1972WAT      O 6157   6.559   3.092   0.647
 1972WAT     H1 6158   6.555   3.017   0.713
 1972WAT     H2 6159   6.498   3.072   0.570
 1973WAT      O 6160   8.804   1.901   9.623
 1973WAT     H1 6161   8.855   1.921   9.707
 1973WAT     H2 6162   8.740   1.826   9.640
 1974WAT      O 6163   1.936   0.910   4.123
 1974WAT     H1 6164   1.975   0.867   4.205
 1974WAT     H2 6165   2.009   0.954   4.071
 1975WAT      O 6166   3.690   5.001   8.053
 1975WAT     H1 6167   3.645   4.986   8.142
 1975WAT     H2 6168   3.686   5.098   8.031
 1976WAT      O 6169   1.492   4.928   2.001
 1976WAT     H1 6170   1.445   4.996   2.056
 1976WAT     H2 6171   1.561   4.881   2.057
 1977WAT      O 6172   7.613   1.098   8.104
 1977WAT     H1 6173   7.678   1.157   8.056
 1977WAT     H2 6174   7.587   1.022   8.045
 1978WAT      O 6175   0.113   7.767   5.287
 1978WAT     H1 6176   0.062   7.683   5.267
 1978WAT     H2 6177   0.093   7.835   5.216
 1979WAT      O 6178   9.353   5.463   5.802
 1979WAT     H1 6179   9.428   5.397   5.790
 1979WAT     H2 6180   9.388   5.548   5.841
 1980WAT      O 6181   6.664   3.863   3.812
 1980WAT     H1 6182   6.725   3.926   3.859
 1980WAT     H2 6183   6.614   3.912   3.741
 1981WAT      O 6184   2.495   3.296   5.125
 1981WAT     H1 6185   2.405   3.305   5.169
 1981WAT     H2 6186   2.513   3.200   5.105
 1982WAT      O 6187   7.968   6.050   0.547
 1982WAT     H1 6188   7.931   6.135   0.512
 1982WAT     H2 6189   7.906   6.012   0.616
 1983WAT      O 6190   2.740   1.356   7.884
 1983WAT     H1 6191   2.760   1.271   7.933
 1983WAT     H2 6192   2.817   1.378   7.823
 1984WAT      O 6193   1.476   9.834   3.436
 1984WAT     H1 6194   1.385   9.859   3.469
 1984WAT     H2 6195   1.468   9.783   3.351
 1985WAT      O 6196   6.117   5.498   0.163
 1985WAT     H1 6197   6.035   5.556   0.155
 1985WAT     H2 6198   6.094   5.404   0.136
 1986WAT      O 6199   3.892   7.037   9.179
 1986WAT     H1 6200   3.849   7.021   9.268
 1986WAT     H2 6201   3.849   7.114   9.134
 1987WAT      O 6202   1.750   8.192   4.756
 1987WAT     H1 6203   1.704   8.251   4.689
 1987WAT     H2 6204   1.849   8.204   4.748
 1988WAT      O 6205   9.164   9.240   2.171
 1988WAT     H1 6206   9.175   9.144   2.145
 1988WAT     H2 6207   9.088   9.281   2.121
 1989WAT      O 6208   3.771   9.589   1.419
 1989WAT     H1 6209   3.779   9.569   1.322
 1989WAT     H2 6210   3.853   9.637   1.450
 1990WAT      O 6211   8.754   1.023   0.940
 1990WAT     H1 6212   8.682   1.092   0.942
 1990WAT     H2 6213   8.841   1.066   0.912
 1991WAT      O 6214   4.224   6.393   7.985
 1991WAT     H1 6215   4.319   6.372   8.009
 1991WAT     H2 6216   4.214   6.395   7.885
 1992WAT      O 6217   8.100   8.381   4.450
 1992WAT     H1 6218   8.091   8.477   4.480
 1992WAT     H2 6219   8.096   8.377   4.350
 1993WAT      O 6220   0.702   5.579   0.341
 1993WAT     H1 6221   0.610   5.584   0.303
 1993WAT     H2 6222   0.723   5.484   0.365
 1994WAT      O 6223   6.610   6.782   7.152
 1994WAT     H1 6224   6.631   6.716   7.080
 1994WAT     H2 6225   6.526   6.755   7.198
 1995WAT      O 6226   9.023   5.436   7.795
 1995WAT     H1 6227   9.109   5.384   7.798
 1995WAT     H2 6228   9.042   5.528   7.763
 1996WAT      O 6229   0.243   0.036   5.417
 1996WAT     H1 6230   0.270  -0.032   5.484
 1996WAT     H2 6231   0.296   0.025   5.333
 1997WAT      O 6232   9.633   0.642   1.898
 1997WAT     H1 6233   9.695   0.699   1.953
 1997WAT     H2 6234   9.639   0.670   1.802
 1998WAT      O 6235   2.758   8.164   8.307
 1998WAT     H1 6236   2.782   8.089   8.369
 1998WAT     H2 6237   2.676   8.140   8.256
 1999WAT      O 6238   3.048   7.695   7.173
 1999WAT     H1 6239   3.085   7.761   7.238
 1999WAT     H2 6240   3.119   7.672   7.106
 2000WAT      O 6241   1.739   6.217   1.303
 2000WAT     H1 6242   1.831   6.221   1.265
 2000WAT     H2 6243   1.676   6.184   1.234
 2001WAT      O 6244   8.297   4.545   7.950
 2001WAT     H1 6245   8.287   4.603   7.868
 2001WAT     H2 6246   8.346   4.597   8.021
 2002WAT      O 6247   9.393   2.775   0.401
 2002WAT     H1 6248   9.438   2.864   0.413
 2002WAT     H2 6249   9.455   2.712   0.354
 2003WAT      O 6250   7.594   3.835   6.608
 2003WAT     H1 6251   7.693   3.845   6.617
 2003WAT     H2 6252   7.574   3.767   6.537
 2004WAT      O 6253   3.843   2.248   5.293
 2004WAT     H1 6254   3.752   2.283   5.269
 2004WAT     H2 6255   3.896   2.319   5.338
 2005WAT      O 6256   8.066   5.316   8.421
 2005WAT     H1 6257   8.153   5.301   8.468
 2005WAT     H2 6258   7.991   5.288   8.480
 2006WAT      O 6259   9.441   3.882   6.757
 2006WAT     H1 6260   9.495   3.914   6.835
 2006WAT     H2 6261   9.410   3.788   6.774
 2007WAT      O 6262   1.406   7.529   5.129
 2007WAT     H1 6263   1.325   7.477   5.159
 2007WAT     H2 6264   1.379   7.595   5.058
 2008WAT      O 6265   6.454   4.181   2.740
 2008WAT     H1 6266   6.499   4.215   2.658
 2008WAT     H2 6267   6.441   4.256   2.805
 2009WAT      O 6268   5.706   8.092   8.644
 2009WAT     H1 6269   5.709   8.167   8.578
 2009WAT     H2 6270   5.784   8.031   8.628
 2010WAT      O 6271   2.210   4.090   7.097
 2010WAT     H1 6272   2.194   4.186   7.119
 2010WAT     H2 6273   2.172   4.070   7.007
 2011WAT      O 6274   0.241   0.149   6.267
 2011WAT     H1 6275   0.248   0.248   6.283
 2011WAT     H2 6276   0.175   0.131   6.195
 2012WAT      O 6277   4.795   3.470   5.569
 2012WAT     H1 6278   4.790   3.383   5.521
 2012WAT     H2 6279   4.808   3.453   5.667
 2013WAT      O 6280   0.519   2.372   6.117
 2013WAT     H1 6281   0.466   2.307   6.063
 2013WAT     H2 6282   0.457   2.427   6.173
 2014WAT      O 6283   0.476   0.172   2.185
 2014WAT     H1 6284   0.538   0.229   2.131
 2014WAT     H2 6285   0.529   0.108   2.240
 2015WAT      O 6286   7.532   3.155   3.474
 2015WAT     H1 6287   7.572   3.232   3.425
 2015WAT     H2 6288   7.524   3.077   3.412
 2016WAT      O 6289   7.680   8.291   1.869
 2016WAT     H1 6290   7.757   8.337   1.913
 2016WAT     H2 6291   7.594   8.327   1.906
 2017WAT      O 6292   6.236   6.422   6.833
 2017WAT     H1 6293   6.287   6.454   6.753
 2017WAT     H2 6294   6.247   6.488   6.908
 2018WAT      O 6295   4.037   1.321   4.041
 2018WAT     H1 6296   4.129   1.302   4.006
 2018WAT     H2 6297   4.042   1.388   4.115
 2019WAT      O 6298   1.324   2.079   2.777
 2019WAT     H1 6299   1.281   1.990   2.759
 2019WAT     H2 6300   1.290   2.146   2.711
 2020WAT      O 6301   0.363   3.479   8.359
 2020WAT     H1 6302   0.343   3.489   8.457
 2020WAT     H2 6303   0.345   3.385   8.330
 2021WAT      O 6304   5.400   7.594   6.325
 2021WAT     H1 6305   5.376   7.690   6.313
 2021WAT     H2 6306   5.495   7.587   6.356
 2022WAT      O 6307   3.399   1.199   3.401
 2022WAT     H1 6308   3.485   1.150   3.419
 2022WAT     H2 6309   3.389   1.213   3.302
 2023WAT      O 6310   3.746   3.933   8.752
 2023WAT     H1 6311   3.730   3.937   8.654
 2023WAT     H2 6312   3.774   3.840   8.777
 2024WAT      O 6313   9.271   6.976   6.370
 2024WAT     H1 6314   9.239   6.885   6.344
 2024WAT     H2 6315   9.201   7.021   6.426
 2025WAT      O 6316   2.725   1.140   0.398
 2025WAT     H1 6317   2.650   1.134   0.464
 2025WAT     H2 6318   2.746   1.049   0.363
 2026WAT      O 6319   2.955   3.427   2.884
 2026WAT     H1 6320   2.876   3.488   2.874
 2026WAT     H2 6321   3.000   3.445   2.972
 2027WAT      O 6322   4.017   5.197   7.741
 2027WAT     H1 6323   3.955   5.146   7.681
 2027WAT     H2 6324   4.029   5.290   7.705
 2028WAT      O 6325   3.587   1.529   5.147
 2028WAT     H1 6326   3.613   1.623   5.167
 2028WAT     H2 6327   3.573   1.519   5.048
 2029WAT      O 6328   3.630   7.238   8.181
 2029WAT     H1 6329   3.546   7.203   8.140
 2029WAT     H2 6330   3.641   7.335   8.159
 2030WAT      O 6331   1.283   7.996   6.494
 2030WAT     H1 6332   1.381   7.991   6.513
 2030WAT     H2 6333   1.256   7.916   6.441
 2031WAT      O 6334   4.835   1.870   1.520
 2031WAT     H1 6335   4.753   1.899   1.471
 2031WAT     H2 6336   4.809   1.808   1.594
 2032WAT      O 6337   0.761   5.202   7.919
 2032WAT     H1 6338   0.662   5.208   7.912
 2032WAT     H2 6339   0.785   5.147   7.999
 2033WAT      O 6340   9.664   2.775   4.361
 2033WAT     H1 6341   9.758   2.746   4.378
 2033WAT     H2 6342   9.650   2.866   4.401
 2034WAT      O 6343   7.269   7.379   5.891
 2034WAT     H1 6344   7.217   7.302   5.928
 2034WAT     H2 6345   7.260   7.458   5.951
 2035WAT      O 6346   2.030   6.911   8.785
 2035WAT     H1 6347   2.116   6.954   8.812
 2035WAT     H2 6348   1.982   6.878   8.865
 2036WAT      O 6349   7.574   7.615   8.720
 2036WAT     H1 6350   7.570   7.648   8.814
 2036WAT     H2 6351   7.527   7.679   8.660
 2037WAT      O 6352   5.308   5.845   1.791
 2037WAT     H1 6353   5.360   5.891   1.863
 2037WAT     H2 6354   5.210   5.862   1.805
 2038WAT      O 6355   4.831   3.760   3.740
 2038WAT     H1 6356   4.880   3.673   3.726
 2038WAT     H2 6357   4.733   3.746   3.726
 2039WAT      O 6358   0.974   0.117   6.986
 2039WAT     H1 6359   1.007   0.035   6.938
 2039WAT     H2 6360   1.050   0.180   6.999
 2040WAT      O 6361   5.241   8.969   8.494
 2040WAT     H1 6362   5.334   8.982   8.528
 2040WAT     H2 6363   5.217   8.872   8.498
 2041WAT      O 6364   7.635   5.536   0.261
 2041WAT     H1 6365   7.666   5.603   0.328
 2041WAT     H2 6366   7.712   5.482   0.229
 2042WAT      O 6367   4.697   6.933   2.187
 2042WAT     H1 6368   4.671   6.841   2.215
 2042WAT     H2 6369   4.694   6.940   2.087
 2043WAT      O 6370   0.137   8.334   4.221
 2043WAT     H1 6371   0.165   8.266   4.153
 2043WAT     H2 6372   0.078   8.402   4.179
 2044WAT      O 6373   1.432   1.625   3.398
 2044WAT     H1 6374   1.462   1.532   3.419
 2044WAT     H2 6375   1.347   1.645   3.447
 2045WAT      O 6376   1.861   5.059   6.470
 2045WAT     H1 6377   1.848   5.154   6.443
 2045WAT     H2 6378   1.956   5.043   6.495
 2046WAT      O 6379   0.905   3.476   4.938
 2046WAT     H1 6380   0.968   3.510   4.867
 2046WAT     H2 6381   0.958   3.430   5.009
 2047WAT      O 6382   8.126   6.373   4.085
 2047WAT     H1 6383   8.220   6.339   4.097
 2047WAT     H2 6384   8.062   6.298   4.102
 2048WAT      O 6385   5.099   6.568   2.929
 2048WAT     H1 6386   5.189   6.524   2.933
 2048WAT     H2 6387   5.029   6.504   2.958
 2049WAT      O 6388   0.530   1.347   9.871
 2049WAT     H1 6389   0.557   1.364   9.776
 2049WAT     H2 6390   0.612   1.325   9.925
 2050WAT      O 6391   5.454   4.849   7.304
 2050WAT     H1 6392   5.440   4.826   7.208
 2050WAT     H2 6393   5.371   4.828   7.356
 2051WAT      O 6394   1.086   7.180   4.469
 2051WAT     H1 6395   1.064   7.276   4.489
 2051WAT     H2 6396   1.185   7.170   4.458
 2052WAT      O 6397   7.423   3.603   1.911
 2052WAT     H1 6398   7.443   3.505   1.905
 2052WAT     H2 6399   7.407   3.639   1.820
 2053WAT      O 6400   0.690   0.734   4.961
 2053WAT     H1 6401   0.751   0.759   4.886
 2053WAT     H2 6402   0.736   0.670   5.022
 2054WAT      O 6403   2.534   4.729   4.504
 2054WAT     H1 6404   2.558   4.706   4.598
 2054WAT     H2 6405   2.613   4.769   4.458
 2055WAT      O 6406   1.688   6.409   8.479
 2055WAT     H1 6407   1.720   6.461   8.559
 2055WAT     H2 6408   1.725   6.317   8.481
 2056WAT      O 6409   6.896   8.787   5.494
 2056WAT     H1 6410   6.974   8.725   5.489
 2056WAT     H2 6411   6.888   8.823   5.587
 2057WAT      O 6412   4.809   5.541   5.178
 2057WAT     H1 6413   4.886   5.521   5.117
 2057WAT     H2 6414   4.725   5.546   5.124
 2058WAT      O 6415   3.940   2.892   1.609
 2058WAT     H1 6416   3.957   2.990   1.599
 2058WAT     H2 6417   3.854   2.878   1.659
 2059WAT      O 6418   3.979   7.033   0.982
 2059WAT     H1 6419   3.964   7.131   0.980
 2059WAT     H2 6420   3.927   6.993   1.058
 2060WAT      O 6421   5.706   7.250   0.844
 2060WAT     H1 6422   5.727   7.254   0.746
 2060WAT     H2 6423   5.626   7.307   0.864
 2061WAT      O 6424   4.551   5.174   2.989
 2061WAT     H1 6425   4.486   5.144   3.058
 2061WAT     H2 6426   4.608   5.248   3.026
 2062WAT      O 6427   7.578   4.108   2.547
 2062WAT     H1 6428   7.552   4.011   2.541
 2062WAT     H2 6429   7.571   4.150   2.456
 2063WAT      O 6430   2.198   3.447   6.749
 2063WAT     H1 6431   2.154   3.479   6.833
 2063WAT     H2 6432   2.253   3.521   6.711
 2064WAT      O 6433   6.108   9.329   5.807
 2064WAT     H1 6434   6.071   9.337   5.714
 2064WAT     H2 6435   6.207   9.317   5.803
 2065WAT      O 6436   6.822   2.259   0.628
 2065WAT     H1 6437   6.828   2.310   0.713
 2065WAT     H2 6438   6.845   2.163   0.644
 2066WAT      O 6439   9.471   5.258   9.161
 2066WAT     H1 6440   9.388   5.210   9.133
 2066WAT     H2 6441   9.462   5.356   9.140
 2067WAT      O 6442   7.956   5.881   3.741
 2067WAT     H1 6443   7.881   5.886   3.808
 2067WAT     H2 6444   8.040   5.916   3.782
 2068WAT      O 6445   2.539   4.286   7.667
 2068WAT     H1 6446   2.446   4.260   7.642
 2068WAT     H2 6447   2.577   4.217   7.729
 2069WAT      O 6448   2.029   5.668   8.339
 2069WAT     H1 6449   1.995   5.666   8.433
 2069WAT     H2 6450   1.980   5.599   8.285
 2070WAT      O 6451   9.687   0.350   8.877
 2070WAT     H1 6452   9.679   0.437   8.926
 2070WAT     H2 6453   9.777   0.345   8.833
 2071WAT      O 6454   1.294   4.516   6.316
 2071WAT     H1 6455   1.278   4.450   6.242
 2071WAT     H2 6456   1.217   4.514   6.379
 2072WAT      O 6457   7.994   3.849   7.347
 2072WAT     H1 6458   7.980   3.851   7.248
 2072WAT     H2 6459   8.070   3.789   7.369
 2073WAT      O 6460   3.834   1.809   7.128
 2073WAT     H1 6461   3.832   1.886   7.192
 2073WAT     H2 6462   3.837   1.723   7.179
 2074WAT      O 6463   2.618   9.231   9.519
 2074WAT     H1 6464   2.675   9.179   9.455
 2074WAT     H2 6465   2.534   9.260   9.473
 2075WAT      O 6466   7.235   9.816   2.371
 2075WAT     H1 6467   7.161   9.769   2.419
 2075WAT     H2 6468   7.312   9.753   2.358
 2076WAT      O 6469   2.311   3.304   7.398
 2076WAT     H1 6470   2.233   3.346   7.352
 2076WAT     H2 6471   2.285   3.213   7.430
 2077WAT      O 6472   5.000   5.158   4.847
 2077WAT     H1 6473   5.025   5.140   4.942
 2077WAT     H2 6474   4.952   5.079   4.810
 2078WAT      O 6475   4.302   2.115   9.436
 2078WAT     H1 6476   4.202   2.115   9.429
 2078WAT     H2 6477   4.329   2.087   9.528
 2079WAT      O 6478   0.490   3.789   1.983
 2079WAT     H1 6479   0.459   3.733   2.060
 2079WAT     H2 6480   0.589   3.785   1.976
 2080WAT      O 6481   0.146   7.475   2.827
 2080WAT     H1 6482   0.083   7.548   2.855
 2080WAT     H2 6483   0.142   7.464   2.727
 2081WAT      O 6484   1.998   6.487   4.093
 2081WAT     H1 6485   2.036   6.549   4.161
 2081WAT     H2 6486   1.917   6.528   4.050
 2082WAT      O 6487   3.163   0.617   3.881
 2082WAT     H1 6488   3.242   0.616   3.821
 2082WAT     H2 6489   3.140   0.711   3.905
 2083WAT      O 6490   5.429   0.026   1.361
 2083WAT     H1 6491   5.395  -0.026   1.439
 2083WAT     H2 6492   5.454   0.118   1.392
 2084WAT      O 6493   2.555   7.033   1.832
 2084WAT     H1 6494   2.541   7.110   1.770
 2084WAT     H2 6495   2.619   7.060   1.905
 2085WAT      O 6496   6.931   1.446   4.377
 2085WAT     H1 6497   6.908   1.542   4.395
 2085WAT     H2 6498   6.847   1.392   4.374
 2086WAT      O 6499   9.382   8.589   9.860
 2086WAT     H1 6500   9.467   8.605   9.809
 2086WAT     H2 6501   9.311   8.556   9.797
 2087WAT      O 6502   3.920   1.265   8.695
 2087WAT     H1 6503   4.011   1.226   8.681
 2087WAT     H2 6504   3.881   1.228   8.780
 2088WAT      O 6505   2.251   8.851   2.009
 2088WAT     H1 6506   2.209   8.766   2.040
 2088WAT     H2 6507   2.180   8.920   1.992
 2089WAT      O 6508   7.881   1.075   5.681
 2089WAT     H1 6509   7.817   1.140   5.721
 2089WAT     H2 6510   7.943   1.123   5.619
 2090WAT      O 6511   4.662   7.286   5.474
 2090WAT     H1 6512   4.694   7.333   5.557
 2090WAT     H2 6513   4.567   7.258   5.487
 2091WAT      O 6514   6.001   4.148   8.890
 2091WAT     H1 6515   6.095   4.144   8.924
 2091WAT     H2 6516   5.984   4.073   8.827
 2092WAT      O 6517   2.675   1.207   2.951
 2092WAT     H1 6518   2.733   1.145   2.898
 2092WAT     H2 6519   2.730   1.250   3.022
 2093WAT      O 6520   0.095   8.936   1.661
 2093WAT     H1 6521   0.054   8.975   1.743
 2093WAT     H2 6522   0.194   8.954   1.661
 2094WAT      O 6523   2.299   5.464   6.608
 2094WAT     H1 6524   2.398   5.472   6.599
 2094WAT     H2 6525   2.259   5.555   6.622
 2095WAT      O 6526   4.190   7.851   7.365
 2095WAT     H1 6527   4.230   7.919   7.303
 2095WAT     H2 6528   4.166   7.895   7.451
 2096WAT      O 6529   6.412   2.955   3.711
 2096WAT     H1 6530   6.338   2.912   3.660
 2096WAT     H2 6531   6.500   2.926   3.674
 2097WAT      O 6532   3.220   5.993   6.047
 2097WAT     H1 6533   3.203   6.075   5.991
 2097WAT     H2 6534   3.268   5.925   5.991
 2098WAT      O 6535   4.749   9.800   9.847
 2098WAT     H1 6536   4.815   9.849   9.904
 2098WAT     H2 6537   4.749   9.703   9.872
 2099WAT      O 6538   4.544   2.107   0.707
 2099WAT     H1 6539   4.535   2.018   0.752
 2099WAT     H2 6540   4.563   2.093   0.610
 2100WAT      O 6541   9.763   6.609   0.267
 2100WAT     H1 6542   9.664   6.617   0.282
 2100WAT     H2 6543   9.785   6.640   0.174
 2101WAT      O 6544   4.074   1.815   9.483
 2101WAT     H1 6545   4.023   1.840   9.401
 2101WAT     H2 6546   4.138   1.889   9.506
 2102WAT      O 6547   7.656   2.076   4.947
 2102WAT     H1 6548   7.591   2.062   4.872
 2102WAT     H2 6549   7.635   2.014   5.022
 2103WAT      O 6550   4.877   5.325   1.928
 2103WAT     H1 6551   4.893   5.329   2.026
 2103WAT     H2 6552   4.860   5.230   1.901
 2104WAT      O 6553   7.374   2.789   5.749
 2104WAT     H1 6554   7.420   2.875   5.728
 2104WAT     H2 6555   7.360   2.782   5.847
 2105WAT      O 6556   4.359   3.861   0.043
 2105WAT     H1 6557   4.396   3.768   0.038
 2105WAT     H2 6558   4.390   3.905   0.128
 2106WAT      O 6559   0.046   5.847   6.996
 2106WAT     H1 6560   0.057   5.769   6.935
 2106WAT     H2 6561   0.116   5.845   7.066
 2107WAT      O 6562   1.690   6.252   9.799
 2107WAT     H1 6563   1.718   6.276   9.892
 2107WAT     H2 6564   1.659   6.335   9.752
 2108WAT      O 6565   9.769   8.774   7.857
 2108WAT     H1 6566   9.728   8.700   7.911
 2108WAT     H2 6567   9.787   8.852   7.917
 2109WAT      O 6568   6.713   4.958   7.897
 2109WAT     H1 6569   6.799   5.001   7.867
 2109WAT     H2 6570   6.726   4.915   7.986
 2110WAT      O 6571   0.517   9.038   4.625
 2110WAT     H1 6572   0.572   9.028   4.708
 2110WAT     H2 6573   0.422   9.014   4.646
 2111WAT      O 6574   3.004   6.758   5.155
 2111WAT     H1 6575   2.973   6.710   5.073
 2111WAT     H2 6576   3.021   6.692   5.228
 2112WAT      O 6577   2.952   9.146   7.731
 2112WAT     H1 6578   2.950   9.093   7.816
 2112WAT     H2 6579   3.039   9.132   7.685
 2113WAT      O 6580   9.199   8.211   4.054
 2113WAT     H1 6581   9.291   8.174   4.042
 2113WAT     H2 6582   9.133   8.154   4.006
 2114WAT      O 6583   8.981   1.543   8.436
 2114WAT     H1 6584   8.913   1.496   8.492
 2114WAT     H2 6585   9.011   1.483   8.362
 2115WAT      O 6586   3.644   1.503   8.899
 2115WAT     H1 6587   3.620   1.589   8.943
 2115WAT     H2 6588   3.707   1.452   8.958
 2116WAT      O 6589   1.166   4.643   2.007
 2116WAT     H1 6590   1.172   4.699   2.090
 2116WAT     H2 6591   1.070   4.635   1.980
 2117WAT      O 6592   4.549   3.337   9.138
 2117WAT     H1 6593   4.604   3.311   9.217
 2117WAT     H2 6594   4.514   3.255   9.093
 2118WAT      O 6595   7.269   7.777   6.856
 2118WAT     H1 6596   7.337   7.754   6.926
 2118WAT     H2 6597   7.301   7.743   6.767
 2119WAT      O 6598   0.394   1.901   1.249
 2119WAT     H1 6599   0.446   1.867   1.327
 2119WAT     H2 6600   0.423   1.994   1.227
 2120WAT      O 6601   3.293   4.267   0.214
 2120WAT     H1 6602   3.229   4.324   0.164
 2120WAT     H2 6603   3.247   4.228   0.294
 2121WAT      O 6604   6.984   4.666   8.056
 2121WAT     H1 6605   6.917   4.739   8.042
 2121WAT     H2 6606   6.945   4.595   8.114
 2122WAT      O 6607   3.838   0.620   4.932
 2122WAT     H1 6608   3.876   0.611   4.840
 2122WAT     H2 6609   3.743   0.652   4.926
 2123WAT      O 6610   2.584   6.385   7.234
 2123WAT     H1 6611   2.644   6.444   7.181
 2123WAT     H2 6612   2.493   6.426   7.239
 2124WAT      O 6613   1.417   3.379   5.151
 2124WAT     H1 6614   1.464   3.457   5.193
 2124WAT     H2 6615   1.386   3.405   5.059
 2125WAT      O 6616   3.597   2.230   3.770
 2125WAT     H1 6617   3.513   2.273   3.802
 2125WAT     H2 6618   3.657   2.211   3.847
 2126WAT      O 6619   7.493   5.116   6.369
 2126WAT     H1 6620   7.514   5.164   6.284
 2126WAT     H2 6621   7.395   5.097   6.374
 2127WAT      O 6622   2.812   5.732   0.780
 2127WAT     H1 6623   2.781   5.821   0.747
 2127WAT     H2 6624   2.869   5.688   0.711
 2128WAT      O 6625   4.619   8.042   6.993
 2128WAT     H1 6626   4.533   8.000   6.965
 2128WAT     H2 6627   4.694   8.001   6.942
 2129WAT      O 6628   7.827   9.154   5.407
 2129WAT     H1 6629   7.736   9.192   5.421
 2129WAT     H2 6630   7.858   9.174   5.315
 2130WAT      O 6631   6.572   8.784   6.028
 2130WAT     H1 6632   6.494   8.725   6.047
 2130WAT     H2 6633   6.652   8.752   6.079
 2131WAT      O 6634   9.065   7.760   8.746
 2131WAT     H1 6635   8.979   7.757   8.696
 2131WAT     H2 6636   9.060   7.831   8.817
 2132WAT      O 6637   9.797   5.798   0.857
 2132WAT     H1 6638   9.805   5.839   0.948
 2132WAT     H2 6639   9.826   5.702   0.861
 2133WAT      O 6640   9.190   9.418   7.813
 2133WAT     H1 6641   9.174   9.431   7.715
 2133WAT     H2 6642   9.196   9.321   7.833
 2134WAT      O 6643   9.128   6.728   3.574
 2134WAT     H1 6644   9.184   6.761   3.650
 2134WAT     H2 6645   9.057   6.795   3.552
 2135WAT      O 6646   9.144   9.691   4.012
 2135WAT     H1 6647   9.090   9.775   4.015
 2135WAT     H2 6648   9.086   9.614   4.040
 2136WAT      O 6649   6.392   9.565   9.635
 2136WAT     H1 6650   6.392   9.658   9.599
 2136WAT     H2 6651   6.366   9.565   9.731
 2137WAT      O 6652   7.353   9.404   9.179
 2137WAT     H1 6653   7.334   9.479   9.242
 2137WAT     H2 6654   7.427   9.431   9.117
 2138WAT      O 6655   5.456   1.680   7.339
 2138WAT     H1 6656   5.447   1.687   7.240
 2138WAT     H2 6657   5.528   1.742   7.370
 2139WAT      O 6658   3.184   6.014   1.439
 2139WAT     H1 6659   3.131   5.937   1.404
 2139WAT     H2 6660   3.177   6.017   1.538
 2140WAT      O 6661   3.559   0.114   0.441
 2140WAT     H1 6662   3.530   0.201   0.402
 2140WAT     H2 6663   3.549   0.042   0.372
 2141WAT      O 6664   8.318   8.050   1.848
 2141WAT     H1 6665   8.272   8.139   1.839
 2141WAT     H2 6666   8.417   8.064   1.841
 2142WAT      O 6667   6.340   8.427   0.961
 2142WAT     H1 6668   6.317   8.372   1.042
 2142WAT     H2 6669   6.297   8.517   0.969
 2143WAT      O 6670   5.722   6.037   3.687
 2143WAT     H1 6671   5.721   5.940   3.712
 2143WAT     H2 6672   5.707   6.092   3.769
 2144WAT      O 6673   5.483   1.553   3.515
 2144WAT     H1 6674   5.476   1.454   3.525
 2144WAT     H2 6675   5.440   1.597   3.594
 2145WAT      O 6676   2.138   1.143   4.826
 2145WAT     H1 6677   2.112   1.049   4.848
 2145WAT     H2 6678   2.185   1.145   4.738
 2146WAT      O 6679   6.394   3.524   0.558
 2146WAT     H1 6680   6.482   3.571   0.551
 2146WAT     H2 6681   6.343   3.561   0.636
 2147WAT      O 6682   5.091   6.131   2.247
 2147WAT     H1 6683   5.068   6.035   2.263
 2147WAT     H2 6684   5.057   6.160   2.157
 2148WAT      O 6685   5.441   1.896   9.258
 2148WAT     H1 6686   5.438   1.920   9.356
 2148WAT     H2 6687   5.430   1.798   9.248
 2149WAT      O 6688   4.548   8.186   7.821
 2149WAT     H1 6689   4.573   8.095   7.855
 2149WAT     H2 6690   4.628   8.232   7.783
 2150WAT      O 6691   0.658   5.422   3.545
 2150WAT     H1 6692   0.610   5.497   3.590
 2150WAT     H2 6693   0.753   5.449   3.527
 2151WAT      O 6694   1.963   6.744   0.815
 2151WAT     H1 6695   1.880   6.761   0.763
 2151WAT     H2 6696   2.040   6.791   0.770
 2152WAT      O 6697   1.677   0.090   1.305
 2152WAT     H1 6698   1.682   0.053   1.398
 2152WAT     H2 6699   1.584   0.078   1.270
 2153WAT      O 6700   4.245   7.374   2.177
 2153WAT     H1 6701   4.295   7.357   2.262
 2153WAT     H2 6702   4.210   7.287   2.141
 2154WAT      O 6703   4.664   0.216   1.360
 2154WAT     H1 6704   4.742   0.239   1.302
 2154WAT     H2 6705   4.664   0.117   1.377
 2155WAT      O 6706   4.751   9.633   7.912
 2155WAT     H1 6707   4.829   9.599   7.860
 2155WAT     H2 6708   4.784   9.689   7.989
 2156WAT      O 6709   1.119   6.022   4.586
 2156WAT     H1 6710   1.196   5.963   4.561
 2156WAT     H2 6711   1.033   5.974   4.570
 2157WAT      O 6712   4.294   0.558   0.197
 2157WAT     H1 6713   4.288   0.652   0.232
 2157WAT     H2 6714   4.351   0.503   0.259
 2158WAT      O 6715   3.892   4.958   4.692
 2158WAT     H1 6716   3.823   4.892   4.661
 2158WAT     H2 6717   3.964   4.967   4.623
 2159WAT      O 6718   1.157   1.163   9.650
 2159WAT     H1 6719   1.209   1.188   9.731
 2159WAT     H2 6720   1.146   1.064   9.647
 2160WAT      O 6721   6.957   8.774   9.387
 2160WAT     H1 6722   6.910   8.860   9.406
 2160WAT     H2 6723   6.922   8.702   9.447
 2161WAT      O 6724   2.538   2.285   9.525
 2161WAT     H1 6725   2.497   2.358   9.580
 2161WAT     H2 6726   2.480   2.203   9.531
 2162WAT      O 6727   3.306   4.101   3.590
 2162WAT     H1 6728   3.338   4.194   3.609
 2162WAT     H2 6729   3.310   4.084   3.491
 2163WAT      O 6730   8.525   6.756   1.764
 2163WAT     H1 6731   8.586   6.761   1.843
 2163WAT     H2 6732   8.432   6.734   1.794
 2164WAT      O 6733   4.334   3.609   5.959
 2164WAT     H1 6734   4.337   3.685   6.024
 2164WAT     H2 6735   4.378   3.636   5.873
 2165WAT      O 6736   3.811   5.687   6.676
 2165WAT     H1 6737   3.843   5.781   6.661
 2165WAT     H2 6738   3.772   5.651   6.591
 2166WAT      O 6739   4.178   0.413   6.583
 2166WAT     H1 6740   4.131   0.413   6.495
 2166WAT     H2 6741   4.119   0.452   6.653
 2167WAT      O 6742   2.312   4.995   9.442
 2167WAT     H1 6743   2.340   5.041   9.527
 2167WAT     H2 6744   2.213   4.981   9.443
 2168WAT      O 6745   3.835   0.609   6.391
 2168WAT     H1 6746   3.904   0.539   6.376
 2168WAT     H2 6747   3.744   0.571   6.373
 2169WAT      O 6748   7.182   3.644   2.458
 2169WAT     H1 6749   7.237   3.580   2.405
 2169WAT     H2 6750   7.086   3.613   2.457
 2170WAT      O 6751   4.024   0.548   8.891
 2170WAT     H1 6752   3.977   0.576   8.808
 2170WAT     H2 6753   4.112   0.596   8.898
 2171WAT      O 6754   5.961   8.591   8.842
 2171WAT     H1 6755   5.985   8.685   8.817
 2171WAT     H2 6756   6.034   8.529   8.813
 2172WAT      O 6757   1.999   0.084   1.490
 2172WAT     H1 6758   2.044   0.131   1.415
 2172WAT     H2 6759   1.906   0.058   1.462
 2173WAT      O 6760   1.167   8.261   6.248
 2173WAT     H1 6761   1.105   8.330   6.210
 2173WAT     H2 6762   1.248   8.306   6.286
 2174WAT      O 6763   8.787   9.247   8.125
 2174WAT     H1 6764   8.841   9.182   8.179
 2174WAT     H2 6765   8.805   9.232   8.028
 2175WAT      O 6766   8.946   5.228   0.223
 2175WAT     H1 6767   9.006   5.255   0.299
 2175WAT     H2 6768   8.924   5.309   0.168
 2176WAT      O 6769   7.708   2.371   8.963
 2176WAT     H1 6770   7.608   2.380   8.961
 2176WAT     H2 6771   7.747   2.446   9.016
 2177WAT      O 6772   3.272   6.997   1.333
 2177WAT     H1 6773   3.229   7.063   1.396
 2177WAT     H2 6774   3.346   7.042   1.284
 2178WAT      O 6775   1.870   5.402   3.130
 2178WAT     H1 6776   1.934   5.440   3.064
 2178WAT     H2 6777   1.892   5.437   3.222
 2179WAT      O 6778   6.254   4.103   4.747
 2179WAT     H1 6779   6.155   4.116   4.749
 2179WAT     H2 6780   6.289   4.132   4.658
 2180WAT      O 6781   4.501   1.831   0.786
 2180WAT     H1 6782   4.470   1.736   0.779
 2180WAT     H2 6783   4.591   1.840   0.742
 2181WAT      O 6784   6.320   0.807   8.165
 2181WAT     H1 6785   6.309   0.718   8.121
 2181WAT     H2 6786   6.235   0.858   8.160
 2182WAT      O 6787   0.629   8.736   6.002
 2182WAT     H1 6788   0.652   8.706   6.095
 2182WAT     H2 6789   0.553   8.800   6.005
 2183WAT      O 6790   2.205   9.420   6.193
 2183WAT     H1 6791   2.234   9.398   6.100
 2183WAT     H2 6792   2.282   9.457   6.244
 2184WAT      O 6793   4.705   9.013   5.842
 2184WAT     H1 6794   4.791   9.061   5.825
 2184WAT     H2 6795   4.694   8.940   5.774
 2185WAT      O 6796   8.113   6.215   6.288
 2185WAT     H1 6797   8.168   6.299   6.293
 2185WAT     H2 6798   8.173   6.136   6.297
 2186WAT      O 6799   2.636   7.664   3.757
 2186WAT     H1 6800   2.587   7.744   3.792
 2186WAT     H2 6801   2.591   7.581   3.790
 2187WAT      O 6802   7.897   5.108   4.344
 2187WAT     H1 6803   7.957   5.176   4.302
 2187WAT     H2 6804   7.813   5.101   4.291
 2188WAT      O 6805   1.255   5.012   8.990
 2188WAT     H1 6806   1.257   5.107   8.956
 2188WAT     H2 6807   1.173   4.999   9.046
 2189WAT      O 6808   8.216   0.290   2.952
 2189WAT     H1 6809   8.126   0.317   2.917
 2189WAT     H2 6810   8.287   0.330   2.895
 2190WAT      O 6811   3.868   2.574   0.351
 2190WAT     H1 6812   3.920   2.563   0.435
 2190WAT     H2 6813   3.923   2.624   0.284
 2191WAT      O 6814   4.639   6.193   9.524
 2191WAT     H1 6815   4.598   6.150   9.605
 2191WAT     H2 6816   4.737   6.171   9.520
 2192WAT      O 6817   4.661   7.911   9.485
 2192WAT     H1 6818   4.659   7.812   9.474
 2192WAT     H2 6819   4.639   7.935   9.580
 2193WAT      O 6820   7.520   3.527   3.758
 2193WAT     H1 6821   7.557   3.464   3.826
 2193WAT     H2 6822   7.572   3.519   3.673
 2194WAT      O 6823   3.122   3.421   0.953
 2194WAT     H1 6824   3.160   3.505   0.991
 2194WAT     H2 6825   3.078   3.369   1.026
 2195WAT      O 6826   2.111   1.404   0.978
 2195WAT     H1 6827   2.100   1.443   1.070
 2195WAT     H2 6828   2.106   1.478   0.910
 2196WAT      O 6829   5.014   8.455   3.231
 2196WAT     H1 6830   5.105   8.495   3.238
 2196WAT     H2 6831   4.970   8.454   3.321
 2197WAT      O 6832   7.007   4.528   1.959
 2197WAT     H1 6833   7.030   4.501   1.865
 2197WAT     H2 6834   7.068   4.600   1.989
 2198WAT      O 6835   4.105   3.028   3.616
 2198WAT     H1 6836   4.143   3.115   3.645
 2198WAT     H2 6837   4.155   2.953   3.660
 2199WAT      O 6838   1.951   2.498   7.403
 2199WAT     H1 6839   1.998   2.414   7.430
 2199WAT     H2 6840   1.858   2.476   7.376
 2200WAT      O 6841   3.369   8.546   7.347
 2200WAT     H1 6842   3.347   8.642   7.336
 2200WAT     H2 6843   3.467   8.537   7.368
 2201WAT      O 6844   8.862   2.335   4.682
 2201WAT     H1 6845   8.946   2.354   4.630
 2201WAT     H2 6846   8.798   2.410   4.670
 2202WAT      O 6847   5.253   9.375   7.793
 2202WAT     H1 6848   5.352   9.367   7.807
 2202WAT     H2 6849   5.210   9.286   7.806
 2203WAT      O 6850   6.133   7.895   0.921
 2203WAT     H1 6851   6.173   7.840   0.995
 2203WAT     H2 6852   6.036   7.910   0.939
 2204WAT      O 6853   9.794   5.819   7.570
 2204WAT     H1 6854   9.721   5.876   7.533
 2204WAT     H2 6855   9.882   5.860   7.547
 2205WAT      O 6856   8.214   8.261   9.866
 2205WAT     H1 6857   8.171   8.245   9.777
 2205WAT     H2 6858   8.229   8.173   9.912
 2206WAT      O 6859   8.332   3.444   5.114
 2206WAT     H1 6860   8.395   3.461   5.038
 2206WAT     H2 6861   8.309   3.347   5.118
 2207WAT      O 6862   8.108   4.070   4.791
 2207WAT     H1 6863   8.205   4.074   4.813
 2207WAT     H2 6864   8.090   4.123   4.709
 2208WAT      O 6865   5.772   5.662   2.482
 2208WAT     H1 6866   5.838   5.733   2.458
 2208WAT     H2 6867   5.706   5.651   2.408
 2209WAT      O 6868   6.175   7.362   2.563
 2209WAT     H1 6869   6.121   7.363   2.478
 2209WAT     H2 6870   6.208   7.270   2.581
 2210WAT      O 6871   6.612   0.558   6.092
 2210WAT     H1 6872   6.591   0.515   6.180
 2210WAT     H2 6873   6.530   0.556   6.034
 2211WAT      O 6874   4.882   6.357   5.110
 2211WAT     H1 6875   4.867   6.265   5.073
 2211WAT     H2 6876   4.824   6.423   5.061
 2212WAT      O 6877   9.685   5.342   2.482
 2212WAT     H1 6878   9.669   5.244   2.495
 2212WAT     H2 6879   9.783   5.359   2.475
 2213WAT      O 6880   5.352   8.292   2.855
 2213WAT     H1 6881   5.340   8.267   2.759
 2213WAT     H2 6882   5.450   8.298   2.875
 2214WAT      O 6883   6.835   8.834   4.938
 2214WAT     H1 6884   6.847   8.792   4.848
 2214WAT     H2 6885   6.758   8.791   4.985
 2215WAT      O 6886   7.079   4.328   6.088
 2215WAT     H1 6887   7.003   4.305   6.149
 2215WAT     H2 6888   7.044   4.382   6.011
 2216WAT      O 6889   3.732   2.475   2.961
 2216WAT     H1 6890   3.802   2.472   2.889
 2216WAT     H2 6891   3.777   2.480   3.050
 2217WAT      O 6892   9.202   4.667   4.988
 2217WAT     H1 6893   9.276   4.624   5.039
 2217WAT     H2 6894   9.180   4.613   4.907
 2218WAT      O 6895   5.265   1.632   7.852
 2218WAT     H1 6896   5.356   1.658   7.819
 2218WAT     H2 6897   5.218   1.579   7.781
 2219WAT      O 6898   8.280   8.880   8.094
 2219WAT     H1 6899   8.265   8.821   8.173
 2219WAT     H2 6900   8.212   8.954   8.094
 2220WAT      O 6901   9.189   1.784   0.557
 2220WAT     H1 6902   9.089   1.788   0.549
 2220WAT     H2 6903   9.227   1.747   0.472
 2221WAT      O 6904   7.346   2.309   9.598
 2221WAT     H1 6905   7.330   2.389   9.540
 2221WAT     H2 6906   7.348   2.336   9.694
 2222WAT      O 6907   9.564   8.628   3.651
 2222WAT     H1 6908   9.498   8.647   3.577
 2222WAT     H2 6909   9.623   8.552   3.624
 2223WAT      O 6910   1.887   4.013   2.501
 2223WAT     H1 6911   1.849   4.007   2.409
 2223WAT     H2 6912   1.906   3.921   2.535
 2224WAT      O 6913   1.178   8.752   1.580
 2224WAT     H1 6914   1.227   8.769   1.494
 2224WAT     H2 6915   1.199   8.825   1.644
 2225WAT      O 6916   4.813   7.885   5.428
 2225WAT     H1 6917   4.874   7.946   5.376
 2225WAT     H2 6918   4.840   7.887   5.525
 2226WAT      O 6919   0.379   2.800   2.883
 2226WAT     H1 6920   0.335   2.797   2.794
 2226WAT     H2 6921   0.452   2.869   2.882
 2227WAT      O 6922   4.945   3.097   0.386
 2227WAT     H1 6923   4.959   3.114   0.483
 2227WAT     H2 6924   4.854   3.057   0.372
 2228WAT      O 6925   5.956   0.386   6.879
 2228WAT     H1 6926   5.917   0.360   6.967
 2228WAT     H2 6927   5.887   0.434   6.825
 2229WAT      O 6928   2.817   4.206   9.315
 2229WAT     H1 6929   2.874   4.200   9.233
 2229WAT     H2 6930   2.868   4.173   9.394
 2230WAT      O 6931   1.071   4.711   1.427
 2230WAT     H1 6932   1.159   4.669   1.451
 2230WAT     H2 6933   1.064   4.717   1.327
 2231WAT      O 6934   4.967   6.057   5.334
 2231WAT     H1 6935   4.928   6.122   5.269
 2231WAT     H2 6936   4.939   6.081   5.427
 2232WAT      O 6937   9.375   8.301   5.711
 2232WAT     H1 6938   9.384   8.388   5.760
 2232WAT     H2 6939   9.281   8.289   5.680
 2233WAT      O 6940   9.596   0.755   1.601
 2233WAT     H1 6941   9.658   0.808   1.543
 2233WAT     H2 6942   9.600   0.659   1.573
 2234WAT      O 6943   8.722   6.729   3.031
 2234WAT     H1 6944   8.777   6.727   3.115
 2234WAT     H2 6945   8.692   6.822   3.013
 2235WAT      O 6946   2.141   3.663   0.996
 2235WAT     H1 6947   2.138   3.679   0.897
 2235WAT     H2 6948   2.112   3.569   1.015
 2236WAT      O 6949   1.036   7.639   2.563
 2236WAT     H1 6950   0.962   7.661   2.627
 2236WAT     H2 6951   1.044   7.540   2.553
 2237WAT      O 6952   4.580   2.835   0.543
 2237WAT     H1 6953   4.553   2.903   0.611
 2237WAT     H2 6954   4.498   2.794   0.504
 2238WAT      O 6955   2.514   9.733   9.767
 2238WAT     H1 6956   2.543   9.827   9.754
 2238WAT     H2 6957   2.570   9.690   9.839
 2239WAT      O 6958   7.330   8.917   9.156
 2239WAT     H1 6959   7.256   8.853   9.176
 2239WAT     H2 6960   7.328   8.992   9.223
 2240WAT      O 6961   2.562   1.802   9.794
 2240WAT     H1 6962   2.615   1.791   9.710
 2240WAT     H2 6963   2.569   1.719   9.849
 2241WAT      O 6964   9.220   4.949   4.708
 2241WAT     H1 6965   9.210   5.041   4.668
 2241WAT     H2 6966   9.204   4.954   4.806
 2242WAT      O 6967   4.245   1.670   8.333
 2242WAT     H1 6968   4.181   1.739   8.367
 2242WAT     H2 6969   4.324   1.666   8.394
 2243WAT      O 6970   7.765   7.955   7.298
 2243WAT     H1 6971   7.816   7.870   7.282
 2243WAT     H2 6972   7.819   8.033   7.265
 2244WAT      O 6973   7.786   9.822   6.048
 2244WAT     H1 6974   7.860   9.861   6.104
 2244WAT     H2 6975   7.822   9.751   5.989
 2245WAT      O 6976   2.144   5.922   7.528
 2245WAT     H1 6977   2.110   5.828   7.518
 2245WAT     H2 6978   2.241   5.925   7.502
 2246WAT      O 6979   5.673   5.020   1.261
 2246WAT     H1 6980   5.769   5.010   1.290
 2246WAT     H2 6981   5.621   5.065   1.333
 2247WAT      O 6982   1.756   0.192   2.913
 2247WAT     H1 6983   1.823   0.252   2.957
 2247WAT     H2 6984   1.758   0.207   2.814
 2248WAT      O 6985   5.187   3.587   8.271
 2248WAT     H1 6986   5.265   3.616   8.214
 2248WAT     H2 6987   5.102   3.610   8.224
 2249WAT      O 6988   6.907   2.530   8.369
 2249WAT     H1 6989   6.981   2.587   8.408
 2249WAT     H2 6990   6.857   2.487   8.443
 2250WAT      O 6991   7.759   4.159   9.117
 2250WAT     H1 6992   7.792   4.180   9.025
 2250WAT     H2 6993   7.822   4.197   9.185
 2251WAT      O 6994   2.031   2.699   1.142
 2251WAT     H1 6995   1.937   2.723   1.164
 2251WAT     H2 6996   2.091   2.728   1.216
 2252WAT      O 6997   3.433   1.545   6.156
 2252WAT     H1 6998   3.498   1.608   6.114
 2252WAT     H2 6999   3.342   1.561   6.118
 2253WAT      O 7000   0.875   5.480   5.112
 2253WAT     H1 7001   0.918   5.404   5.064
 2253WAT     H2 7002   0.945   5.535   5.157
 2254WAT      O 7003   5.239   0.896   7.440
 2254WAT     H1 7004   5.161   0.840   7.411
 2254WAT     H2 7005   5.206   0.971   7.498
 2255WAT      O 7006   5.912   1.178   9.592
 2255WAT     H1 7007   5.929   1.247   9.663
 2255WAT     H2 7008   5.974   1.193   9.515
 2256WAT      O 7009   2.291   5.695   8.455
 2256WAT     H1 7010   2.290   5.648   8.543
 2256WAT     H2 7011   2.211   5.666   8.401
 2257WAT      O 7012   7.639   5.944   7.461
 2257WAT     H1 7013   7.583   6.023   7.435
 2257WAT     H2 7014   7.635   5.875   7.389
 2258WAT      O 7015   6.831   4.174   0.236
 2258WAT     H1 7016   6.815   4.251   0.298
 2258WAT     H2 7017   6.930   4.166   0.219
 2259WAT      O 7018   3.650   0.811   4.838
 2259WAT     H1 7019   3.720   0.881   4.822
 2259WAT     H2 7020   3.572   0.827   4.778
 2260WAT      O 7021   0.639   0.467   1.631
 2260WAT     H1 7022   0.647   0.526   1.710
 2260WAT     H2 7023   0.560   0.495   1.576
 2261WAT      O 7024   4.317   2.592   8.410
 2261WAT     H1 7025   4.271   2.669   8.366
 2261WAT     H2 7026   4.260   2.510   8.402
 2262WAT      O 7027   3.986   0.602   8.344
 2262WAT     H1 7028   3.935   0.589   8.429
 2262WAT     H2 7029   4.033   0.690   8.346
 2263WAT      O 7030   4.176   7.414   6.639
 2263WAT     H1 7031   4.175   7.329   6.691
 2263WAT     H2 7032   4.191   7.395   6.542
 2264WAT      O 7033   6.872   5.181   8.007
 2264WAT     H1 7034   6.845   5.276   8.023
 2264WAT     H2 7035   6.911   5.172   7.916
 2265WAT      O 7036   6.382   5.513   7.931
 2265WAT     H1 7037   6.314   5.550   7.867
 2265WAT     H2 7038   6.428   5.588   7.977
 2266WAT      O 7039   6.015   0.689   4.816
 2266WAT     H1 7040   5.984   0.651   4.728
 2266WAT     H2 7041   6.108   0.658   4.835
 2267WAT      O 7042   5.419   0.394   3.598
 2267WAT     H1 7043   5.514   0.408   3.626
 2267WAT     H2 7044   5.388   0.472   3.545
 2268WAT      O 7045   3.544   5.883   1.178
 2268WAT     H1 7046   3.536   5.983   1.177
 2268WAT     H2 7047   3.614   5.855   1.112
 2269WAT      O 7048   8.481   3.411   3.863
 2269WAT     H1 7049   8.441   3.327   3.827
 2269WAT     H2 7050   8.435   3.490   3.823
 2270WAT      O 7051   1.117   7.851   2.228
 2270WAT     H1 7052   1.130   7.949   2.212
 2270WAT     H2 7053   1.197   7.801   2.195
 2271WAT      O 7054   5.479   0.634   3.849
 2271WAT     H1 7055   5.448   0.713   3.794
 2271WAT     H2 7056   5.577   0.621   3.836
 2272WAT      O 7057   3.839   5.828   7.893
 2272WAT     H1 7058   3.916   5.804   7.953
 2272WAT     H2 7059   3.757   5.780   7.925
 2273WAT      O 7060   5.485   4.312   8.412
 2273WAT     H1 7061   5.399   4.337   8.457
 2273WAT     H2 7062   5.499   4.370   8.331
 2274WAT      O 7063   8.999   3.763   0.885
 2274WAT     H1 7064   9.044   3.697   0.946
 2274WAT     H2 7065   8.976   3.846   0.937
 2275WAT      O 7066   7.572   1.281   2.971
 2275WAT     H1 7067   7.658   1.294   2.922
 2275WAT     H2 7068   7.544   1.185   2.964
 2276WAT      O 7069   7.897   5.544   1.445
 2276WAT     H1 7070   7.991   5.523   1.469
 2276WAT     H2 7071   7.844   5.561   1.528
 2277WAT      O 7072   4.818   7.881   7.141
 2277WAT     H1 7073   4.818   7.870   7.240
 2277WAT     H2 7074   4.746   7.945   7.115
 2278WAT      O 7075   9.251   6.866   8.822
 2278WAT     H1 7076   9.294   6.790   8.774
 2278WAT     H2 7077   9.242   6.943   8.759
 2279WAT      O 7078   1.282   3.597   7.442
 2279WAT     H1 7079   1.289   3.570   7.346
 2279WAT     H2 7080   1.358   3.656   7.466
 2280WAT      O 7081   0.730   5.895   0.800
 2280WAT     H1 7082   0.651   5.844   0.766
 2280WAT     H2 7083   0.745   5.872   0.896
 2281WAT      O 7084   2.098   1.285   7.235
 2281WAT     H1 7085   2.159   1.224   7.286
 2281WAT     H2 7086   2.024   1.316   7.295
 2282WAT      O 7087   8.329   7.739   2.838
 2282WAT     H1 7088   8.330   7.723   2.937
 2282WAT     H2 7089   8.423   7.742   2.804
 2283WAT      O 7090   2.331   7.411   4.107
 2283WAT     H1 7091   2.304   7.315   4.111
 2283WAT     H2 7092   2.428   7.419   4.129
 2284WAT      O 7093   3.398   9.222   1.880
 2284WAT     H1 7094   3.494   9.215   1.853
 2284WAT     H2 7095   3.391   9.220   1.980
 2285WAT      O 7096   0.743   3.748   6.034
 2285WAT     H1 7097   0.649   3.782   6.032
 2285WAT     H2 7098   0.789   3.774   5.949
 2286WAT      O 7099   9.104   0.236   0.919
 2286WAT     H1 7100   9.138   0.296   0.847
 2286WAT     H2 7101   9.145   0.262   1.007
 2287WAT      O 7102   4.639   0.578   4.136
 2287WAT     H1 7103   4.598   0.488   4.125
 2287WAT     H2 7104   4.672   0.610   4.048
 2288WAT      O 7105   1.479   6.319   7.853
 2288WAT     H1 7106   1.421   6.399   7.836
 2288WAT     H2 7107   1.483   6.263   7.770
 2289WAT      O 7108   7.231   5.634   0.980
 2289WAT     H1 7109   7.208   5.615   0.885
 2289WAT     H2 7110   7.315   5.687   0.984
 2290WAT      O 7111   1.603   4.509   0.251
 2290WAT     H1 7112   1.533   4.564   0.296
 2290WAT     H2 7113   1.664   4.470   0.320
 2291WAT      O 7114   7.626   2.767   1.551
 2291WAT     H1 7115   7.716   2.723   1.542
 2291WAT     H2 7116   7.601   2.771   1.647
 2292WAT      O 7117   7.795   9.097   6.390
 2292WAT     H1 7118   7.806   9.105   6.291
 2292WAT     H2 7119   7.836   9.177   6.435
 2293WAT      O 7120   8.063   2.528   4.509
 2293WAT     H1 7121   8.130   2.586   4.462
 2293WAT     H2 7122   8.069   2.434   4.474
 2294WAT      O 7123   5.560   7.540   1.171
 2294WAT     H1 7124   5.566   7.617   1.235
 2294WAT     H2 7125   5.464   7.514   1.161
 2295WAT      O 7126   7.384   4.730   8.449
 2295WAT     H1 7127   7.323   4.808   8.460
 2295WAT     H2 7128   7.370   4.665   8.524
 2296WAT      O 7129   6.126   1.183   3.780
 2296WAT     H1 7130   6.147   1.140   3.692
 2296WAT     H2 7131   6.134   1.282   3.771
 2297WAT      O 7132   9.748   0.456   3.871
 2297WAT     H1 7133   9.828   0.415   3.827
 2297WAT     H2 7134   9.770   0.549   3.901
 2298WAT      O 7135   8.782   3.665   7.155
 2298WAT     H1 7136   8.750   3.589   7.212
 2298WAT     H2 7137   8.837   3.630   7.080
 2299WAT      O 7138   3.399   6.930   8.536
 2299WAT     H1 7139   3.442   6.885   8.458
 2299WAT     H2 7140   3.469   6.967   8.597
 2300WAT      O 7141   9.379   4.523   6.265
 2300WAT     H1 7142   9.360   4.447   6.202
 2300WAT     H2 7143   9.361   4.494   6.359
 2301WAT      O 7144   7.823   2.460   5.607
 2301WAT     H1 7145   7.836   2.506   5.519
 2301WAT     H2 7146   7.729   2.427   5.614
 2302WAT      O 7147   9.873   6.162   7.681
 2302WAT     H1 7148   9.925   6.248   7.684
 2302WAT     H2 7149   9.926   6.093   7.632
 2303WAT      O 7150   9.733   1.939   3.462
 2303WAT     H1 7151   9.633   1.936   3.459
 2303WAT     H2 7152   9.770   1.868   3.402
 2304WAT      O 7153   7.268   9.337   4.592
 2304WAT     H1 7154   7.206   9.278   4.540
 2304WAT     H2 7155   7.275   9.426   4.546
 2305WAT      O 7156   5.978   0.834   9.328
 2305WAT     H1 7157   5.918   0.908   9.299
 2305WAT     H2 7158   5.947   0.748   9.287
 2306WAT      O 7159   4.682   5.373   4.132
 2306WAT     H1 7160   4.650   5.299   4.191
 2306WAT     H2 7161   4.768   5.409   4.168
 2307WAT      O 7162   3.392   9.268   2.432
 2307WAT     H1 7163   3.474   9.290   2.379
 2307WAT     H2 7164   3.406   9.180   2.479
 2308WAT      O 7165   0.141   3.405   8.601
 2308WAT     H1 7166   0.119   3.500   8.579
 2308WAT     H2 7167   0.063   3.363   8.647
 2309WAT      O 7168   2.289   1.475   0.115
 2309WAT     H1 7169   2.384   1.467   0.084
 2309WAT     H2 7170   2.229   1.425   0.052
 2310WAT      O 7171   0.692   8.827   4.113
 2310WAT     H1 7172   0.729   8.738   4.087
 2310WAT     H2 7173   0.767   8.892   4.125
 2311WAT      O 7174   2.890   7.998   4.602
 2311WAT     H1 7175   2.930   7.931   4.539
 2311WAT     H2 7176   2.813   8.044   4.557
 2312WAT      O 7177   9.067   2.879   5.576
 2312WAT     H1 7178   9.038   2.975   5.573
 2312WAT     H2 7179   9.166   2.874   5.584
 2313WAT      O 7180   0.736   1.879   3.015
 2313WAT     H1 7181   0.810   1.874   2.947
 2313WAT     H2 7182   0.698   1.971   3.016
 2314WAT      O 7183   1.039   0.771   1.701
 2314WAT     H1 7184   0.983   0.854   1.709
 2314WAT     H2 7185   1.126   0.794   1.658
 2315WAT      O 7186   6.993   1.420   9.877
 2315WAT     H1 7187   7.072   1.367   9.847
 2315WAT     H2 7188   7.013   1.463   9.965
 2316WAT      O 7189   4.919   4.642   4.121
 2316WAT     H1 7190   4.869   4.728   4.134
 2316WAT     H2 7191   5.017   4.661   4.116
 2317WAT      O 7192   7.429   0.945   1.713
 2317WAT     H1 7193   7.499   0.989   1.658
 2317WAT     H2 7194   7.370   0.889   1.654
 2318WAT      O 7195   6.959   5.845   2.754
 2318WAT     H1 7196   6.931   5.755   2.720
 2318WAT     H2 7197   7.051   5.867   2.720
 2319WAT      O 7198   3.941   2.164   1.843
 2319WAT     H1 7199   3.905   2.153   1.750
 2319WAT     H2 7200   3.971   2.258   1.857
 2320WAT      O 7201   7.174   5.112   0.193
 2320WAT     H1 7202   7.127   5.167   0.125
 2320WAT     H2 7203   7.243   5.055   0.149
 2321WAT      O 7204   4.502   4.806   6.248
 2321WAT     H1 7205   4.477   4.852   6.334
 2321WAT     H2 7206   4.420   4.797   6.191
 2322WAT      O 7207   8.925   7.550   1.182
 2322WAT     H1 7208   8.961   7.553   1.089
 2322WAT     H2 7209   8.843   7.607   1.188
 2323WAT      O 7210   3.613   7.041   5.440
 2323WAT     H1 7211   3.619   7.140   5.423
 2323WAT     H2 7212   3.703   7.006   5.464
 2324WAT      O 7213   4.537   6.961   1.405
 2324WAT     H1 7214   4.476   7.004   1.339
 2324WAT     H2 7215   4.505   6.982   1.498
 2325WAT      O 7216   6.077   5.181   6.829
 2325WAT     H1 7217   5.995   5.237   6.820
 2325WAT     H2 7218   6.083   5.118   6.751
 2326WAT      O 7219   6.276   3.505   3.447
 2326WAT     H1 7220   6.194   3.563   3.447
 2326WAT     H2 7221   6.342   3.542   3.381
 2327WAT      O 7222   8.090   7.637   5.071
 2327WAT     H1 7223   8.125   7.647   4.978
 2327WAT     H2 7224   8.050   7.546   5.082
 2328WAT      O 7225   9.557   2.644   8.736
 2328WAT     H1 7226   9.622   2.720   8.739
 2328WAT     H2 7227   9.530   2.619   8.828
 2329WAT      O 7228   3.273   0.074   6.448
 2329WAT     H1 7229   3.212   0.135   6.397
 2329WAT     H2 7230   3.238  -0.019   6.445
 2330WAT      O 7231   2.415   6.584   9.494
 2330WAT     H1 7232   2.446   6.508   9.552
 2330WAT     H2 7233   2.387   6.660   9.552
 2331WAT      O 7234   8.072   3.079   3.859
 2331WAT     H1 7235   8.016   3.162   3.859
 2331WAT     H2 7236   8.088   3.051   3.954
 2332WAT      O 7237   4.285   7.755   2.669
 2332WAT     H1 7238   4.328   7.842   2.645
 2332WAT     H2 7239   4.187   7.760   2.653
 2333WAT      O 7240   2.037   8.255   1.332
 2333WAT     H1 7241   2.011   8.315   1.256
 2333WAT     H2 7242   1.954   8.217   1.373
 2334WAT      O 7243   0.632   4.369   0.501
 2334WAT     H1 7244   0.633   4.468   0.492
 2334WAT     H2 7245   0.546   4.332   0.466
 2335WAT      O 7246   5.818   7.013   7.235
 2335WAT     H1 7247   5.752   6.944   7.265
 2335WAT     H2 7248   5.851   7.065   7.314
 2336WAT      O 7249   8.042   8.674   5.305
 2336WAT     H1 7250   8.017   8.627   5.389
 2336WAT     H2 7251   8.014   8.619   5.226
 2337WAT      O 7252   7.285   2.506   8.330
 2337WAT     H1 7253   7.225   2.556   8.392
 2337WAT     H2 7254   7.286   2.409   8.357
 2338WAT      O 7255   7.167   0.190   0.758
 2338WAT     H1 7256   7.140   0.209   0.852
 2338WAT     H2 7257   7.087   0.198   0.698
 2339WAT      O 7258   7.279   3.959   7.170
 2339WAT     H1 7259   7.352   4.016   7.133
 2339WAT     H2 7260   7.191   3.990   7.135
 2340WAT      O 7261   4.781   2.526   2.615
 2340WAT     H1 7262   4.829   2.592   2.671
 2340WAT     H2 7263   4.695   2.500   2.659
 2341WAT      O 7264   6.621   1.112   8.340
 2341WAT     H1 7265   6.675   1.195   8.324
 2341WAT     H2 7266   6.555   1.100   8.266
 2342WAT      O 7267   0.158   1.718   9.547
 2342WAT     H1 7268   0.162   1.707   9.646
 2342WAT     H2 7269   0.086   1.660   9.510
 2343WAT      O 7270   9.636   2.664   5.116
 2343WAT     H1 7271   9.613   2.753   5.076
 2343WAT     H2 7272   9.704   2.619   5.059
 2344WAT      O 7273   2.518   2.211   8.558
 2344WAT     H1 7274   2.426   2.194   8.522
 2344WAT     H2 7275   2.534   2.309   8.561
 2345WAT      O 7276   0.940   0.992   7.874
 2345WAT     H1 7277   1.005   0.998   7.949
 2345WAT     H2 7278   0.847   1.007   7.910
 2346WAT      O 7279   6.514   5.659   3.795
 2346WAT     H1 7280   6.543   5.581   3.852
 2346WAT     H2 7281   6.524   5.743   3.848
 2347WAT      O 7282   6.286   8.355   7.160
 2347WAT     H1 7283   6.315   8.434   7.106
 2347WAT     H2 7284   6.349   8.279   7.144
 2348WAT      O 7285   9.218   6.040   9.020
 2348WAT     H1 7286   9.269   5.967   9.067
 2348WAT     H2 7287   9.134   6.001   8.982
 2349WAT      O 7288   9.006   3.244   6.704
 2349WAT     H1 7289   8.917   3.218   6.664
 2349WAT     H2 7290   9.036   3.330   6.664
 2350WAT      O 7291   2.945   3.833   0.426
 2350WAT     H1 7292   2.930   3.791   0.337
 2350WAT     H2 7293   2.883   3.792   0.493
 2351WAT      O 7294   3.313   3.634   1.009
 2351WAT     H1 7295   3.236   3.678   1.055
 2351WAT     H2 7296   3.390   3.698   1.004
 2352WAT      O 7297   9.435   8.509   8.533
 2352WAT     H1 7298   9.391   8.589   8.574
 2352WAT     H2 7299   9.368   8.458   8.479
 2353WAT      O 7300   4.705   5.044   2.443
 2353WAT     H1 7301   4.784   5.049   2.504
 2353WAT     H2 7302   4.705   4.957   2.395
 2354WAT      O 7303   5.135   0.820   8.687
 2354WAT     H1 7304   5.200   0.796   8.615
 2354WAT     H2 7305   5.160   0.772   8.772
 2355WAT      O 7306   6.753   7.840   3.827
 2355WAT     H1 7307   6.836   7.885   3.858
 2355WAT     H2 7308   6.703   7.804   3.906
 2356WAT      O 7309   8.587   5.409   8.851
 2356WAT     H1 7310   8.506   5.415   8.909
 2356WAT     H2 7311   8.646   5.487   8.868
 2357WAT      O 7312   1.140   5.152   3.633
 2357WAT     H1 7313   1.057   5.097   3.637
 2357WAT     H2 7314   1.187   5.134   3.547
 2358WAT      O 7315   1.563   0.322   2.459
 2358WAT     H1 7316   1.536   0.313   2.555
 2358WAT     H2 7317   1.511   0.396   2.417
 2359WAT      O 7318   0.954   1.849   5.906
 2359WAT     H1 7319   1.036   1.864   5.961
 2359WAT     H2 7320   0.979   1.846   5.809
 2360WAT      O 7321   7.476   7.827   8.573
 2360WAT     H1 7322   7.447   7.829   8.478
 2360WAT     H2 7323   7.418   7.887   8.627
 2361WAT      O 7324   1.468   2.534   7.451
 2361WAT     H1 7325   1.456   2.585   7.537
 2361WAT     H2 7326   1.387   2.546   7.394
 2362WAT      O 7327   8.898   5.199   1.160
 2362WAT     H1 7328   8.961   5.267   1.122
 2362WAT     H2 7329   8.877   5.222   1.256
 2363WAT      O 7330   6.958   6.720   0.644
 2363WAT     H1 7331   7.016   6.646   0.677
 2363WAT     H2 7332   6.929   6.777   0.721
 2364WAT      O 7333   2.579   1.631   9.186
 2364WAT     H1 7334   2.499   1.581   9.219
 2364WAT     H2 7335   2.551   1.698   9.117
 2365WAT      O 7336   6.847   8.341   3.980
 2365WAT     H1 7337   6.934   8.318   3.937
 2365WAT     H2 7338   6.772   8.307   3.924
 2366WAT      O 7339   9.163   1.904   4.576
 2366WAT     H1 7340   9.118   1.954   4.650
 2366WAT     H2 7341   9.134   1.808   4.579
 2367WAT      O 7342   5.674   1.324   4.773
 2367WAT     H1 7343   5.614   1.373   4.710
 2367WAT     H2 7344   5.693   1.381   4.853
 2368WAT      O 7345   0.137   8.270   9.166
 2368WAT     H1 7346   0.054   8.326   9.168
 2368WAT     H2 7347   0.212   8.320   9.210
 2369WAT      O 7348   2.320   8.812   8.085
 2369WAT     H1 7349   2.416   8.829   8.106
 2369WAT     H2 7350   2.293   8.723   8.121
 2370WAT      O 7351   3.457   5.572   0.253
 2370WAT     H1 7352   3.487   5.581   0.349
 2370WAT     H2 7353   3.358   5.569   0.250
 2371WAT      O 7354   5.970   7.115   0.978
 2371WAT     H1 7355   6.049   7.176   0.986
 2371WAT     H2 7356   5.888   7.170   0.960
 2372WAT      O 7357   6.779   1.582   6.938
 2372WAT     H1 7358   6.703   1.585   6.873
 2372WAT     H2 7359   6.771   1.658   7.002
 2373WAT      O 7360   3.076   9.742   4.441
 2373WAT     H1 7361   3.090   9.820   4.380
 2373WAT     H2 7362   2.986   9.748   4.483
 2374WAT      O 7363   1.403   8.339   0.102
 2374WAT     H1 7364   1.445   8.430   0.093
 2374WAT     H2 7365   1.445   8.276   0.037
 2375WAT      O 7366   0.415   1.413   5.391
 2375WAT     H1 7367   0.401   1.339   5.456
 2375WAT     H2 7368   0.510   1.445   5.396
 2376WAT      O 7369   7.707   4.369   4.939
 2376WAT     H1 7370   7.730   4.337   5.031
 2376WAT     H2 7371   7.762   4.450   4.917
 2377WAT      O 7372   9.691   7.630   1.152
 2377WAT     H1 7373   9.723   7.546   1.195
 2377WAT     H2 7374   9.592   7.638   1.164
 2378WAT      O 7375   8.673   0.346   5.457
 2378WAT     H1 7376   8.588   0.379   5.499
 2378WAT     H2 7377   8.711   0.417   5.397
 2379WAT      O 7378   9.074   0.518   7.867
 2379WAT     H1 7379   9.104   0.600   7.916
 2379WAT     H2 7380   8.980   0.532   7.836
 2380WAT      O 7381   0.711   6.305   3.212
 2380WAT     H1 7382   0.728   6.349   3.300
 2380WAT     H2 7383   0.695   6.207   3.226
 2381WAT      O 7384   8.898   6.520   3.222
 2381WAT     H1 7385   8.835   6.456   3.178
 2381WAT     H2 7386   8.979   6.470   3.253
 2382WAT      O 7387   9.061   5.181   6.700
 2382WAT     H1 7388   9.051   5.137   6.610
 2382WAT     H2 7389   9.119   5.262   6.691
 2383WAT      O 7390   5.585   9.587   6.366
 2383WAT     H1 7391   5.518   9.521   6.398
 2383WAT     H2 7392   5.571   9.607   6.269
 2384WAT      O 7393   8.034   2.416   8.345
 2384WAT     H1 7394   8.090   2.494   8.374
 2384WAT     H2 7395   7.938   2.434   8.369
 2385WAT      O 7396   5.143   1.049   5.395
 2385WAT     H1 7397   5.082   1.118   5.435
 2385WAT     H2 7398   5.151   1.066   5.296
 2386WAT      O 7399   9.509   7.922   8.689
 2386WAT     H1 7400   9.571   7.849   8.719
 2386WAT     H2 7401   9.562   7.994   8.644
 2387WAT      O 7402   8.816   5.175   1.951
 2387WAT     H1 7403   8.914   5.162   1.938
 2387WAT     H2 7404   8.766   5.108   1.897
 2388WAT      O 7405   7.685   9.212   8.167
 2388WAT     H1 7406   7.719   9.288   8.111
 2388WAT     H2 7407   7.752   9.138   8.168
 2389WAT      O 7408   2.721   9.568   0.287
 2389WAT     H1 7409   2.734   9.477   0.324
 2389WAT     H2 7410   2.753   9.636   0.353
 2390WAT      O 7411   3.784   1.565   5.802
 2390WAT     H1 7412   3.708   1.505   5.779
 2390WAT     H2 7413   3.800   1.563   5.901
 2391WAT      O 7414   7.074   1.491   8.465
 2391WAT     H1 7415   7.114   1.410   8.422
 2391WAT     H2 7416   7.136   1.568   8.455
 2392WAT      O 7417   1.512   7.116   3.904
 2392WAT     H1 7418   1.515   7.210   3.871
 2392WAT     H2 7419   1.439   7.066   3.858
 2393WAT      O 7420   6.598   2.377   2.861
 2393WAT     H1 7421   6.619   2.306   2.793
 2393WAT     H2 7422   6.594   2.336   2.952
 2394WAT      O 7423   6.004   9.456   3.127
 2394WAT     H1 7424   5.910   9.424   3.120
 2394WAT     H2 7425   6.026   9.474   3.223
 2395WAT      O 7426   6.854   9.809   3.207
 2395WAT     H1 7427   6.869   9.747   3.284
 2395WAT     H2 7428   6.940   9.821   3.156
 2396WAT      O 7429   1.033   0.261   4.873
 2396WAT     H1 7430   1.046   0.233   4.968
 2396WAT     H2 7431   1.029   0.180   4.814
 2397WAT      O 7432   6.523   1.025   9.719
 2397WAT     H1 7433   6.423   1.025   9.714
 2397WAT     H2 7434   6.559   0.944   9.673
 2398WAT      O 7435   8.467   3.145   2.403
 2398WAT     H1 7436   8.532   3.076   2.437
 2398WAT     H2 7437   8.399   3.164   2.473
 2399WAT      O 7438   1.698   1.878   4.702
 2399WAT     H1 7439   1.622   1.824   4.665
 2399WAT     H2 7440   1.784   1.847   4.661
 2400WAT      O 7441   1.451   4.495   8.310
 2400WAT     H1 7442   1.528   4.495   8.246
 2400WAT     H2 7443   1.366   4.517   8.261
 2401WAT      O 7444   9.586   0.685   7.488
 2401WAT     H1 7445   9.679   0.706   7.458
 2401WAT     H2 7446   9.540   0.631   7.417
 2402WAT      O 7447   6.640   0.653   6.479
 2402WAT     H1 7448   6.579   0.604   6.417
 2402WAT     H2 7449   6.591   0.675   6.563
 2403WAT      O 7450   6.323   6.484   8.133
 2403WAT     H1 7451   6.413   6.511   8.100
 2403WAT     H2 7452   6.252   6.538   8.087
 2404WAT      O 7453   0.023   6.559   4.419
 2404WAT     H1 7454   0.109   6.545   4.370
 2404WAT     H2 7455  -0.012   6.650   4.399
 2405WAT      O 7456   0.367   3.687   2.220
 2405WAT     H1 7457   0.394   3.604   2.269
 2405WAT     H2 7458   0.335   3.756   2.286
 2406WAT      O 7459   4.727   3.619   2.978
 2406WAT     H1 7460   4.788   3.670   2.918
 2406WAT     H2 7461   4.670   3.683   3.029
 2407WAT      O 7462   9.738   4.216   2.760
 2407WAT     H1 7463   9.745   4.235   2.858
 2407WAT     H2 7464   9.827   4.182   2.727
 2408WAT      O 7465   7.956   3.857   7.076
 2408WAT     H1 7466   7.992   3.848   6.983
 2408WAT     H2 7467   7.881   3.792   7.089
 2409WAT      O 7468   9.086   0.668   9.833
 2409WAT     H1 7469   9.040   0.600   9.891
 2409WAT     H2 7470   9.183   0.670   9.854
 2410WAT      O 7471   5.029   0.439   0.229
 2410WAT     H1 7472   5.121   0.404   0.247
 2410WAT     H2 7473   4.992   0.396   0.146
 2411WAT      O 7474   0.777   2.866   6.506
 2411WAT     H1 7475   0.790   2.775   6.465
 2411WAT     H2 7476   0.862   2.917   6.502
 2412WAT      O 7477   6.644   5.634   3.207
 2412WAT     H1 7478   6.688   5.643   3.297
 2412WAT     H2 7479   6.691   5.694   3.142
 2413WAT      O 7480   9.508   0.941   8.876
 2413WAT     H1 7481   9.489   1.037   8.899
 2413WAT     H2 7482   9.606   0.925   8.878
 2414WAT      O 7483   1.699   0.500   7.564
 2414WAT     H1 7484   1.726   0.540   7.477
 2414WAT     H2 7485   1.732   0.406   7.569
 2415WAT      O 7486   8.223   5.830   1.483
 2415WAT     H1 7487   8.180   5.913   1.519
 2415WAT     H2 7488   8.243   5.767   1.558
 2416WAT      O 7489   0.945   0.700   4.085
 2416WAT     H1 7490   0.965   0.714   4.183
 2416WAT     H2 7491   0.847   0.687   4.073
 2417WAT      O 7492   2.247   4.302   7.267
 2417WAT     H1 7493   2.281   4.359   7.342
 2417WAT     H2 7494   2.251   4.206   7.294
 2418WAT      O 7495   7.666   0.299   3.075
 2418WAT     H1 7496   7.688   0.367   3.005
 2418WAT     H2 7497   7.596   0.236   3.039
 2419WAT      O 7498   9.652   8.782   3.873
 2419WAT     H1 7499   9.583   8.795   3.944
 2419WAT     H2 7500   9.616   8.723   3.801
 2420WAT      O 7501   2.286   2.517   6.796
 2420WAT     H1 7502   2.306   2.559   6.707
 2420WAT     H2 7503   2.225   2.439   6.782
 2421WAT      O 7504   4.743   2.542   1.076
 2421WAT     H1 7505   4.721   2.639   1.078
 2421WAT     H2 7506   4.742   2.510   0.981
 2422WAT      O 7507   4.933   4.159   1.931
 2422WAT     H1 7508   5.001   4.153   2.004
 2422WAT     H2 7509   4.924   4.255   1.902
 2423WAT      O 7510   7.338   2.629   6.106
 2423WAT     H1 7511   7.239   2.625   6.093
 2423WAT     H2 7512   7.367   2.725   6.113
 2424WAT      O 7513   6.843   4.245   6.218
 2424WAT     H1 7514   6.790   4.244   6.134
 2424WAT     H2 7515   6.871   4.152   6.241
 2425WAT      O 7516   3.742   1.425   1.438
 2425WAT     H1 7517   3.644   1.406   1.431
 2425WAT     H2 7518   3.756   1.506   1.495
 2426WAT      O 7519   7.460   6.803   8.640
 2426WAT     H1 7520   7.515   6.885   8.626
 2426WAT     H2 7521   7.518   6.731   8.679
 2427WAT      O 7522   2.145   7.210   2.266
 2427WAT     H1 7523   2.066   7.167   2.309
 2427WAT     H2 7524   2.168   7.161   2.182
 2428WAT      O 7525   2.127   5.890   5.523
 2428WAT     H1 7526   2.076   5.866   5.605
 2428WAT     H2 7527   2.128   5.812   5.460
 2429WAT      O 7528   3.641   7.303   2.559
 2429WAT     H1 7529   3.593   7.217   2.542
 2429WAT     H2 7530   3.588   7.379   2.522
 2430WAT      O 7531   9.856   0.496   6.676
 2430WAT     H1 7532   9.823   0.473   6.767
 2430WAT     H2 7533   9.854   0.415   6.618
 2431WAT      O 7534   2.097   1.926   9.646
 2431WAT     H1 7535   2.132   1.865   9.717
 2431WAT     H2 7536   2.074   2.014   9.687
 2432WAT      O 7537   0.832   2.419   7.400
 2432WAT     H1 7538   0.776   2.340   7.374
 2432WAT     H2 7539   0.929   2.395   7.389
 2433WAT      O 7540   6.997   5.666   7.621
 2433WAT     H1 7541   7.011   5.644   7.524
 2433WAT     H2 7542   7.083   5.653   7.670
 2434WAT      O 7543   0.302   3.142   6.055
 2434WAT     H1 7544   0.278   3.203   5.980
 2434WAT     H2 7545   0.397   3.157   6.082
 2435WAT      O 7546   4.150   6.100   3.080
 2435WAT     H1 7547   4.231   6.137   3.035
 2435WAT     H2 7548   4.136   6.146   3.167
 2436WAT      O 7549   0.186   9.744   1.815
 2436WAT     H1 7550   0.102   9.735   1.868
 2436WAT     H2 7551   0.186   9.832   1.767
 2437WAT      O 7552   8.439   4.557   2.847
 2437WAT     H1 7553   8.507   4.626   2.872
 2437WAT     H2 7554   8.385   4.533   2.928
 2438WAT      O 7555   9.284   0.272   3.137
 2438WAT     H1 7556   9.258   0.177   3.152
 2438WAT     H2 7557   9.221   0.332   3.186
 2439WAT      O 7558   3.931   5.414   7.358
 2439WAT     H1 7559   3.967   5.425   7.450
 2439WAT     H2 7560   3.922   5.317   7.337
 2440WAT      O 7561   6.074   6.963   2.043
 2440WAT     H1 7562   6.044   6.934   2.134
 2440WAT     H2 7563   6.082   6.884   1.983
 2441WAT      O 7564   0.817   8.588   7.818
 2441WAT     H1 7565   0.734   8.550   7.858
 2441WAT     H2 7566   0.797   8.678   7.778
 2442WAT      O 7567   1.842   1.207   8.580
 2442WAT     H1 7568   1.908   1.195   8.654
 2442WAT     H2 7569   1.830   1.121   8.532
 2443WAT      O 7570   3.090   1.269   2.000
 2443WAT     H1 7571   3.028   1.219   2.061
 2443WAT     H2 7572   3.157   1.205   1.961
 2444WAT      O 7573   4.885   6.793   2.481
 2444WAT     H1 7574   4.939   6.843   2.413
 2444WAT     H2 7575   4.814   6.740   2.435
 2445WAT      O 7576   4.097   7.284   7.262
 2445WAT     H1 7577   4.035   7.325   7.329
 2445WAT     H2 7578   4.190   7.319   7.276
 2446WAT      O 7579   1.134   8.350   0.498
 2446WAT     H1 7580   1.123   8.296   0.582
 2446WAT     H2 7581   1.114   8.446   0.517
 2447WAT      O 7582   8.312   6.479   7.254
 2447WAT     H1 7583   8.393   6.539   7.249
 2447WAT     H2 7584   8.231   6.535   7.275
 2448WAT      O 7585   0.454   6.653   6.250
 2448WAT     H1 7586   0.445   6.569   6.303
 2448WAT     H2 7587   0.431   6.636   6.155
 2449WAT      O 7588   0.369   6.060   2.142
 2449WAT     H1 7589   0.395   6.148   2.104
 2449WAT     H2 7590   0.284   6.071   2.195
 2450WAT      O 7591   1.765   5.702   1.591
 2450WAT     H1 7592   1.825   5.649   1.531
 2450WAT     H2 7593   1.767   5.799   1.564
 2451WAT      O 7594   7.056   0.635   2.513
 2451WAT     H1 7595   7.095   0.705   2.453
 2451WAT     H2 7596   6.957   0.633   2.502
 2452WAT      O 7597   5.776   2.055   0.328
 2452WAT     H1 7598   5.747   2.089   0.238
 2452WAT     H2 7599   5.876   2.048   0.330
 2453WAT      O 7600   8.971   5.565   3.697
 2453WAT     H1 7601   8.900   5.496   3.682
 2453WAT     H2 7602   9.001   5.562   3.793
 2454WAT      O 7603   8.464   1.893   2.830
 2454WAT     H1 7604   8.452   1.992   2.822
 2454WAT     H2 7605   8.515   1.873   2.914
 2455WAT      O 7606   3.164   1.424   3.083
 2455WAT     H1 7607   3.140   1.473   3.167
 2455WAT     H2 7608   3.225   1.481   3.028
 2456WAT      O 7609   7.371   6.533   9.286
 2456WAT     H1 7610   7.452   6.518   9.343
 2456WAT     H2 7611   7.378   6.478   9.203
 2457WAT      O 7612   4.695   5.379   7.577
 2457WAT     H1 7613   4.647   5.376   7.665
 2457WAT     H2 7614   4.691   5.471   7.539
 2458WAT      O 7615   7.765   2.306   9.599
 2458WAT     H1 7616   7.855   2.330   9.637
 2458WAT     H2 7617   7.710   2.261   9.669
 2459WAT      O 7618   6.702   3.654   2.324
 2459WAT     H1 7619   6.611   3.693   2.335
 2459WAT     H2 7620   6.771   3.720   2.354
 2460WAT      O 7621   5.065   5.284   1.689
 2460WAT     H1 7622   5.007   5.218   1.640
 2460WAT     H2 7623   5.019   5.312   1.773
 2461WAT      O 7624   9.406   6.605   1.760
 2461WAT     H1 7625   9.409   6.702   1.785
 2461WAT     H2 7626   9.348   6.592   1.680
 2462WAT      O 7627   5.588   9.798   5.117
 2462WAT     H1 7628   5.622   9.858   5.190
 2462WAT     H2 7629   5.519   9.847   5.064
 2463WAT      O 7630   7.872   2.196   5.862
 2463WAT     H1 7631   7.935   2.169   5.789
 2463WAT     H2 7632   7.917   2.262   5.922
 2464WAT      O 7633   8.004   8.516   8.643
 2464WAT     H1 7634   7.996   8.582   8.568
 2464WAT     H2 7635   7.998   8.565   8.730
 2465WAT      O 7636   8.903   3.437   1.378
 2465WAT     H1 7637   8.906   3.532   1.406
 2465WAT     H2 7638   8.888   3.432   1.279
 2466WAT      O 7639   3.015   4.347   0.835
 2466WAT     H1 7640   2.989   4.291   0.756
 2466WAT     H2 7641   3.023   4.442   0.806
 2467WAT      O 7642   3.578   1.002   2.481
 2467WAT     H1 7643   3.577   0.917   2.428
 2467WAT     H2 7644   3.516   0.993   2.559
 2468WAT      O 7645   6.298   3.895   7.264
 2468WAT     H1 7646   6.325   3.799   7.277
 2468WAT     H2 7647   6.208   3.899   7.221
 2469WAT      O 7648   2.100   2.115   7.739
 2469WAT     H1 7649   2.022   2.053   7.732
 2469WAT     H2 7650   2.184   2.063   7.724
 2470WAT      O 7651   8.431   2.265   1.668
 2470WAT     H1 7652   8.388   2.340   1.618
 2470WAT     H2 7653   8.400   2.178   1.631
 2471WAT      O 7654   1.439   5.625   6.403
 2471WAT     H1 7655   1.426   5.702   6.465
 2471WAT     H2 7656   1.388   5.546   6.436
 2472WAT      O 7657   3.718   3.952   8.460
 2472WAT     H1 7658   3.818   3.953   8.451
 2472WAT     H2 7659   3.678   4.008   8.388
 2473WAT      O 7660   8.976   8.445   8.863
 2473WAT     H1 7661   9.034   8.370   8.896
 2473WAT     H2 7662   8.883   8.433   8.897
 2474WAT      O 7663   1.658   9.000   9.186
 2474WAT     H1 7664   1.576   8.983   9.240
 2474WAT     H2 7665   1.706   9.080   9.222
 2475WAT      O 7666   2.116   9.238   6.354
 2475WAT     H1 7667   2.116   9.284   6.266
 2475WAT     H2 7668   2.129   9.305   6.427
 2476WAT      O 7669   1.975   5.802   9.414
 2476WAT     H1 7670   1.885   5.758   9.408
 2476WAT     H2 7671   1.968   5.883   9.472
 2477WAT      O 7672   5.879   1.852   3.656
 2477WAT     H1 7673   5.818   1.786   3.700
 2477WAT     H2 7674   5.939   1.805   3.592
 2478WAT      O 7675   1.356   0.941   9.638
 2478WAT     H1 7676   1.417   0.888   9.698
 2478WAT     H2 7677   1.268   0.895   9.631
 2479WAT      O 7678   5.792   8.685   1.349
 2479WAT     H1 7679   5.806   8.702   1.251
 2479WAT     H2 7680   5.710   8.733   1.380
 2480WAT      O 7681   1.893   5.602   4.481
 2480WAT     H1 7682   1.896   5.506   4.508
 2480WAT     H2 7683   1.917   5.610   4.384
 2481WAT      O 7684   0.273   2.516   3.531
 2481WAT     H1 7685   0.359   2.469   3.547
 2481WAT     H2 7686   0.197   2.451   3.536
 2482WAT      O 7687   2.418   8.435   0.431
 2482WAT     H1 7688   2.403   8.516   0.488
 2482WAT     H2 7689   2.340   8.373   0.440
 2483WAT      O 7690   9.450   7.836   0.589
 2483WAT     H1 7691   9.531   7.842   0.530
 2483WAT     H2 7692   9.424   7.928   0.620
 2484WAT      O 7693   6.820   7.306   1.272
 2484WAT     H1 7694   6.746   7.366   1.304
 2484WAT     H2 7695   6.847   7.244   1.345
 2485WAT      O 7696   5.455   4.404   7.061
 2485WAT     H1 7697   5.445   4.397   7.161
 2485WAT     H2 7698   5.509   4.327   7.028
 2486WAT      O 7699   6.944   7.900   7.844
 2486WAT     H1 7700   6.996   7.821   7.811
 2486WAT     H2 7701   7.007   7.976   7.861
 2487WAT      O 7702   5.881   6.483   7.701
 2487WAT     H1 7703   5.789   6.484   7.738
 2487WAT     H2 7704   5.894   6.402   7.643
 2488WAT      O 7705   3.124   0.229   6.259
 2488WAT     H1 7706   3.062   0.295   6.216
 2488WAT     H2 7707   3.190   0.197   6.191
 2489WAT      O 7708   7.586   1.361   6.287
 2489WAT     H1 7709   7.508   1.311   6.326
 2489WAT     H2 7710   7.589   1.453   6.327
 2490WAT      O 7711   1.569   4.557   0.645
 2490WAT     H1 7712   1.557   4.629   0.576
 2490WAT     H2 7713   1.493   4.560   0.710
 2491WAT      O 7714   1.693   7.255   9.471
 2491WAT     H1 7715   1.733   7.286   9.384
 2491WAT     H2 7716   1.741   7.298   9.547
 2492WAT      O 7717   4.212   8.159   7.063
 2492WAT     H1 7718   4.217   8.167   6.963
 2492WAT     H2 7719   4.149   8.085   7.086
 2493WAT      O 7720   7.799   0.529   9.133
 2493WAT     H1 7721   7.803   0.448   9.074
 2493WAT     H2 7722   7.707   0.568   9.129
 2494WAT      O 7723   5.182   5.807   0.533
 2494WAT     H1 7724   5.256   5.777   0.473
 2494WAT     H2 7725   5.221   5.844   0.617
 2495WAT      O 7726   4.906   2.204   8.459
 2495WAT     H1 7727   4.877   2.209   8.554
 2495WAT     H2 7728   4.865   2.280   8.408
 2496WAT      O 7729   3.836   8.419   0.230
 2496WAT     H1 7730   3.834   8.515   0.257
 2496WAT     H2 7731   3.844   8.362   0.311
 2497WAT      O 7732   6.960   4.495   5.573
 2497WAT     H1 7733   7.027   4.570   5.575
 2497WAT     H2 7734   6.869   4.533   5.560
 2498WAT      O 7735   1.052   8.853   7.320
 2498WAT     H1 7736   1.026   8.782   7.254
 2498WAT     H2 7737   1.008   8.939   7.294
 2499WAT      O 7738   7.894   6.066   7.801
 2499WAT     H1 7739   7.954   6.055   7.881
 2499WAT     H2 7740   7.894   5.982   7.747
 2500WAT      O 7741   8.850   8.090   0.925
 2500WAT     H1 7742   8.786   8.014   0.920
 2500WAT     H2 7743   8.944   8.054   0.931
 2501WAT      O 7744   4.726   4.967   2.976
 2501WAT     H1 7745   4.668   5.049   2.982
 2501WAT     H2 7746   4.745   4.934   3.069
 2502WAT      O 7747   5.472   6.655   5.932
 2502WAT     H1 7748   5.377   6.642   5.905
 2502WAT     H2 7749   5.532   6.608   5.868
 2503WAT      O 7750   5.577   1.399   0.525
 2503WAT     H1 7751   5.501   1.451   0.486
 2503WAT     H2 7752   5.656   1.459   0.536
 2504WAT      O 7753   3.389   9.203   7.030
 2504WAT     H1 7754   3.434   9.189   6.942
 2504WAT     H2 7755   3.334   9.286   7.028
 2505WAT      O 7756   5.414   5.075   4.112
 2505WAT     H1 7757   5.483   5.106   4.046
 2505WAT     H2 7758   5.441   5.105   4.204
 2506WAT      O 7759   8.855   0.848   0.372
 2506WAT     H1 7760   8.881   0.753   0.356
 2506WAT     H2 7761   8.916   0.889   0.439
 2507WAT      O 7762   3.779   5.060   0.554
 2507WAT     H1 7763   3.878   5.050   0.560
 2507WAT     H2 7764   3.738   5.034   0.642
 2508WAT      O 7765   0.914   5.004   3.651
 2508WAT     H1 7766   0.815   5.009   3.638
 2508WAT     H2 7767   0.936   4.941   3.725
 2509WAT      O 7768   3.160   8.982   7.145
 2509WAT     H1 7769   3.170   9.061   7.085
 2509WAT     H2 7770   3.082   8.995   7.207
 2510WAT      O 7771   5.104   9.747   7.148
 2510WAT     H1 7772   5.023   9.804   7.132
 2510WAT     H2 7773   5.104   9.716   7.244
 2511WAT      O 7774   9.806   6.334   0.242
 2511WAT     H1 7775   9.823   6.425   0.205
 2511WAT     H2 7776   9.718   6.333   0.289
 2512WAT      O 7777   8.880   1.457   0.785
 2512WAT     H1 7778   8.936   1.469   0.703
 2512WAT     H2 7779   8.821   1.537   0.798
 2513WAT      O 7780   6.382   4.344   2.386
 2513WAT     H1 7781   6.392   4.443   2.373
 2513WAT     H2 7782   6.456   4.311   2.445
 2514WAT      O 7783   7.204   5.936   2.654
 2514WAT     H1 7784   7.264   5.970   2.726
 2514WAT     H2 7785   7.166   6.012   2.602
 2515WAT      O 7786   6.377   9.373   6.341
 2515WAT     H1 7787   6.386   9.441   6.413
 2515WAT     H2 7788   6.383   9.281   6.380
 2516WAT      O 7789   0.078   8.742   3.873
 2516WAT     H1 7790  -0.020   8.762   3.877
 2516WAT     H2 7791   0.092   8.649   3.837
 2517WAT      O 7792   5.103   5.244   0.654
 2517WAT     H1 7793   5.020   5.276   0.609
 2517WAT     H2 7794   5.106   5.144   0.653
 2518WAT      O 7795   6.737   8.659   4.463
 2518WAT     H1 7796   6.802   8.610   4.404
 2518WAT     H2 7797   6.685   8.725   4.408
 2519WAT      O 7798   6.216   6.736   5.811
 2519WAT     H1 7799   6.172   6.652   5.844
 2519WAT     H2 7800   6.290   6.711   5.747
 2520WAT      O 7801   7.651   3.645   0.946
 2520WAT     H1 7802   7.552   3.638   0.937
 2520WAT     H2 7803   7.673   3.710   1.018
 2521WAT      O 7804   4.159   2.153   4.884
 2521WAT     H1 7805   4.116   2.222   4.943
 2521WAT     H2 7806   4.091   2.083   4.860
 2522WAT      O 7807   8.721   1.478   5.559
 2522WAT     H1 7808   8.648   1.451   5.622
 2522WAT     H2 7809   8.687   1.546   5.495
 2523WAT      O 7810   1.664   2.416   9.138
 2523WAT     H1 7811   1.739   2.480   9.152
 2523WAT     H2 7812   1.584   2.447   9.191
 2524WAT      O 7813   1.267   8.311   9.280
 2524WAT     H1 7814   1.186   8.296   9.336
 2524WAT     H2 7815   1.261   8.400   9.235
 2525WAT      O 7816   3.997   6.876   3.524
 2525WAT     H1 7817   4.079   6.821   3.532
 2525WAT     H2 7818   3.978   6.895   3.427
 2526WAT      O 7819   1.307   0.593   5.392
 2526WAT     H1 7820   1.258   0.510   5.362
 2526WAT     H2 7821   1.405   0.579   5.383
 2527WAT      O 7822   7.488   2.313   8.633
 2527WAT     H1 7823   7.416   2.291   8.568
 2527WAT     H2 7824   7.575   2.278   8.599
 2528WAT      O 7825   1.905   1.355   7.412
 2528WAT     H1 7826   1.914   1.408   7.497
 2528WAT     H2 7827   1.838   1.282   7.425
 2529WAT      O 7828   9.132   7.001   4.518
 2529WAT     H1 7829   9.111   7.083   4.465
 2529WAT     H2 7830   9.061   6.932   4.502
 2530WAT      O 7831   2.001   5.723   7.395
 2530WAT     H1 7832   2.004   5.626   7.420
 2530WAT     H2 7833   2.049   5.736   7.308
 2531WAT      O 7834   4.508   0.214   3.340
 2531WAT     H1 7835   4.435   0.200   3.406
 2531WAT     H2 7836   4.490   0.158   3.258
 2532WAT      O 7837   2.492   3.865   1.429
 2532WAT     H1 7838   2.442   3.842   1.512
 2532WAT     H2 7839   2.589   3.840   1.441
 2533WAT      O 7840   5.220   1.986   1.178
 2533WAT     H1 7841   5.242   2.001   1.082
 2533WAT     H2 7842   5.130   1.944   1.185
 2534WAT      O 7843   9.392   6.933   4.767
 2534WAT     H1 7844   9.308   6.986   4.781
 2534WAT     H2 7845   9.424   6.946   4.673
 2535WAT      O 7846   0.110   5.228   8.276
 2535WAT     H1 7847   0.059   5.177   8.206
 2535WAT     H2 7848   0.190   5.270   8.234
 2536WAT      O 7849   7.695   9.510   5.525
 2536WAT     H1 7850   7.696   9.593   5.581
 2536WAT     H2 7851   7.748   9.438   5.571
 2537WAT      O 7852   8.766   5.475   0.514
 2537WAT     H1 7853   8.809   5.439   0.596
 2537WAT     H2 7854   8.742   5.399   0.453
 2538WAT      O 7855   3.770   0.004   7.504
 2538WAT     H1 7856   3.722   0.088   7.528
 2538WAT     H2 7857   3.850  -0.007   7.561
 2539WAT      O 7858   2.356   1.629   7.495
 2539WAT     H1 7859   2.354   1.599   7.591
 2539WAT     H2 7860   2.445   1.668   7.475
 2540WAT      O 7861   6.076   5.755   1.174
 2540WAT     H1 7862   5.996   5.758   1.113
 2540WAT     H2 7863   6.158   5.781   1.123
 2541WAT      O 7864   4.969   6.933   0.040
 2541WAT     H1 7865   5.065   6.903   0.039
 2541WAT     H2 7866   4.913   6.868  -0.011
 2542WAT      O 7867   4.967   0.672   7.854
 2542WAT     H1 7868   4.929   0.637   7.769
 2542WAT     H2 7869   4.970   0.772   7.850
 2543WAT      O 7870   3.067   9.664   0.492
 2543WAT     H1 7871   3.158   9.644   0.529
 2543WAT     H2 7872   3.071   9.669   0.393
 2544WAT      O 7873   8.402   4.086   1.730
 2544WAT     H1 7874   8.466   4.012   1.752
 2544WAT     H2 7875   8.452   4.170   1.714
 2545WAT      O 7876   3.426   8.226   7.088
 2545WAT     H1 7877   3.502   8.230   7.154
 2545WAT     H2 7878   3.456   8.263   7.001
 2546WAT      O 7879   5.168   7.197   2.863
 2546WAT     H1 7880   5.084   7.217   2.912
 2546WAT     H2 7881   5.237   7.162   2.927
 2547WAT      O 7882   5.272   0.148   5.467
 2547WAT     H1 7883   5.194   0.130   5.527
 2547WAT     H2 7884   5.330   0.219   5.509
 2548WAT      O 7885   1.523   7.011   3.558
 2548WAT     H1 7886   1.537   6.961   3.644
 2548WAT     H2 7887   1.461   6.959   3.499
 2549WAT      O 7888   0.832   7.015   1.751
 2549WAT     H1 7889   0.743   7.043   1.787
 2549WAT     H2 7890   0.825   6.922   1.713
 2550WAT      O 7891   4.451   8.114   9.121
 2550WAT     H1 7892   4.537   8.162   9.139
 2550WAT     H2 7893   4.389   8.126   9.199
 2551WAT      O 7894   1.140   4.325   5.300
 2551WAT     H1 7895   1.226   4.321   5.249
 2551WAT     H2 7896   1.156   4.300   5.395
 2552WAT      O 7897   7.695   9.067   0.295
 2552WAT     H1 7898   7.719   9.034   0.203
 2552WAT     H2 7899   7.670   9.164   0.290
 2553WAT      O 7900   9.342   5.778   0.193
 2553WAT     H1 7901   9.320   5.725   0.275
 2553WAT     H2 7902   9.295   5.739   0.114
 2554WAT      O 7903   3.162   4.662   0.099
 2554WAT     H1 7904   3.130   4.665   0.194
 2554WAT     H2 7905   3.262   4.665   0.097
 2555WAT      O 7906   6.359   1.244   9.005
 2555WAT     H1 7907   6.413   1.219   8.925
 2555WAT     H2 7908   6.418   1.288   9.073
 2556WAT      O 7909   9.122   1.170   1.060
 2556WAT     H1 7910   9.069   1.188   0.977
 2556WAT     H2 7911   9.111   1.074   1.085
 2557WAT      O 7912   7.713   3.273   1.165
 2557WAT     H1 7913   7.712   3.319   1.076
 2557WAT     H2 7914   7.801   3.287   1.209
 2558WAT      O 7915   2.477   1.679   1.316
 2558WAT     H1 7916   2.571   1.649   1.329
 2558WAT     H2 7917   2.474   1.748   1.243
 2559WAT      O 7918   7.028   3.272   9.177
 2559WAT     H1 7919   6.931   3.253   9.165
 2559WAT     H2 7920   7.048   3.365   9.147
 2560WAT      O 7921   0.411   2.905   5.682
 2560WAT     H1 7922   0.369   2.867   5.600
 2560WAT     H2 7923   0.342   2.914   5.754
 2561WAT      O 7924   4.098   4.588   0.849
 2561WAT     H1 7925   4.194   4.559   0.849
 2561WAT     H2 7926   4.052   4.552   0.768
 2562WAT      O 7927   9.343   4.126   5.091
 2562WAT     H1 7928   9.258   4.147   5.139
 2562WAT     H2 7929   9.373   4.207   5.041
 2563WAT      O 7930   7.622   7.512   0.672
 2563WAT     H1 7931   7.552   7.452   0.713
 2563WAT     H2 7932   7.673   7.558   0.744
 2564WAT      O 7933   9.881   3.570   4.170
 2564WAT     H1 7934   9.787   3.556   4.139
 2564WAT     H2 7935   9.921   3.649   4.123
 2565WAT      O 7936   5.741   2.927   4.017
 2565WAT     H1 7937   5.652   2.955   4.053
 2565WAT     H2 7938   5.785   3.005   3.973
 2566WAT      O 7939   7.163   0.103   6.252
 2566WAT     H1 7940   7.194   0.034   6.186
 2566WAT     H2 7941   7.152   0.191   6.205
 2567WAT      O 7942   8.168   3.606   3.520
 2567WAT     H1 7943   8.183   3.699   3.554
 2567WAT     H2 7944   8.255   3.559   3.509
 2568WAT      O 7945   1.331   9.769   5.002
 2568WAT     H1 7946   1.231   9.761   4.996
 2568WAT     H2 7947   1.359   9.773   5.097
 2569WAT      O 7948   2.884   3.084   6.224
 2569WAT     H1 7949   2.963   3.043   6.178
 2569WAT     H2 7950   2.879   3.050   6.318
 2570WAT      O 7951   4.152   5.270   6.637
 2570WAT     H1 7952   4.141   5.344   6.703
 2570WAT     H2 7953   4.096   5.288   6.557
 2571WAT      O 7954   0.257   4.380   6.452
 2571WAT     H1 7955   0.315   4.322   6.394
 2571WAT     H2 7956   0.162   4.349   6.444
 2572WAT      O 7957   7.158   9.601   8.693
 2572WAT     H1 7958   7.135   9.599   8.596
 2572WAT     H2 7959   7.106   9.530   8.740
 2573WAT      O 7960   1.300   0.436   4.031
 2573WAT     H1 7961   1.269   0.343   4.050
 2573WAT     H2 7962   1.378   0.433   3.969
 2574WAT      O 7963   0.443   4.986   5.896
 2574WAT     H1 7964   0.486   5.004   5.984
 2574WAT     H2 7965   0.504   5.013   5.822
 2575WAT      O 7966   4.446   9.481   4.331
 2575WAT     H1 7967   4.463   9.410   4.263
 2575WAT     H2 7968   4.366   9.458   4.386
 2576WAT      O 7969   8.523   4.415   4.842
 2576WAT     H1 7970   8.446   4.413   4.778
 2576WAT     H2 7971   8.568   4.505   4.837
 2577WAT      O 7972   1.842   8.808   9.070
 2577WAT     H1 7973   1.784   8.876   9.116
 2577WAT     H2 7974   1.846   8.829   8.972
 2578WAT      O 7975   8.029   1.831   8.603
 2578WAT     H1 7976   7.957   1.894   8.576
 2578WAT     H2 7977   8.110   1.884   8.630
 2579WAT      O 7978   7.455   4.950   9.773
 2579WAT     H1 7979   7.482   5.039   9.739
 2579WAT     H2 7980   7.410   4.960   9.862
 2580WAT      O 7981   8.890   9.166   7.100
 2580WAT     H1 7982   8.976   9.158   7.051
 2580WAT     H2 7983   8.861   9.261   7.102
 2581WAT      O 7984   7.848   2.664   3.833
 2581WAT     H1 7985   7.802   2.742   3.875
 2581WAT     H2 7986   7.947   2.673   3.845
 2582WAT      O 7987   3.272   7.190   3.144
 2582WAT     H1 7988   3.358   7.186   3.092
 2582WAT     H2 7989   3.197   7.157   3.087
 2583WAT      O 7990   3.766   5.319   0.508
 2583WAT     H1 7991   3.773   5.225   0.543
 2583WAT     H2 7992   3.856   5.363   0.513
 2584WAT      O 7993   3.691   4.122   3.283
 2584WAT     H1 7994   3.721   4.142   3.190
 2584WAT     H2 7995   3.766   4.139   3.347
 2585WAT      O 7996   7.070   1.149   8.565
 2585WAT     H1 7997   6.972   1.158   8.583
 2585WAT     H2 7998   7.089   1.172   8.470
 2586WAT      O 7999   0.388   3.505   8.650
 2586WAT     H1 8000   0.446   3.455   8.714
 2586WAT     H2 8001   0.295   3.466   8.651
 2587WAT      O 8002   2.689   1.806   8.249
 2587WAT     H1 8003   2.744   1.735   8.294
 2587WAT     H2 8004   2.676   1.882   8.312
 2588WAT      O 8005   4.067   1.333   5.938
 2588WAT     H1 8006   4.115   1.360   5.854
 2588WAT     H2 8007   4.071   1.407   6.004
 2589WAT      O 8008   4.616   7.116   0.019
 2589WAT     H1 8009   4.698   7.117   0.076
 2589WAT     H2 8010   4.541   7.162   0.068
 2590WAT      O 8011   5.272   1.630   9.650
 2590WAT     H1 8012   5.338   1.606   9.579
 2590WAT     H2 8013   5.267   1.556   9.718
 2591WAT      O 8014   0.311   5.907   9.733
 2591WAT     H1 8015   0.290   5.968   9.657
 2591WAT     H2 8016   0.250   5.926   9.809
 2592WAT      O 8017   6.972   6.992   6.513
 2592WAT     H1 8018   6.876   6.966   6.518
 2592WAT     H2 8019   7.011   6.965   6.425
 2593WAT      O 8020   2.041   7.130   1.830
 2593WAT     H1 8021   1.970   7.185   1.875
 2593WAT     H2 8022   2.036   7.143   1.731
 2594WAT      O 8023   8.087   4.069   5.783
 2594WAT     H1 8024   8.050   4.135   5.719
 2594WAT     H2 8025   8.181   4.045   5.756
 2595WAT      O 8026   4.744   4.285   3.199
 2595WAT     H1 8027   4.652   4.315   3.223
 2595WAT     H2 8028   4.811   4.342   3.246
 2596WAT      O 8029   9.113   4.402   7.972
 2596WAT     H1 8030   9.109   4.304   7.992
 2596WAT     H2 8031   9.105   4.417   7.874
 2597WAT      O 8032   5.629   6.971   2.883
 2597WAT     H1 8033   5.643   6.877   2.913
 2597WAT     H2 8034   5.662   7.034   2.953
 2598WAT      O 8035   5.250   0.139   7.802
 2598WAT     H1 8036   5.229   0.176   7.712
 2598WAT     H2 8037   5.268   0.214   7.866
 2599WAT      O 8038   1.700   3.283   5.223
 2599WAT     H1 8039   1.762   3.225   5.171
 2599WAT     H2 8040   1.608   3.245   5.219
 2600WAT      O 8041   1.189   5.607   2.698
 2600WAT     H1 8042   1.186   5.508   2.705
 2600WAT     H2 8043   1.141   5.636   2.615
 2601WAT      O 8044   5.769   6.417   6.267
 2601WAT     H1 8045   5.681   6.405   6.222
 2601WAT     H2 8046   5.755   6.421   6.366
 2602WAT      O 8047   4.670   4.501   6.348
 2602WAT     H1 8048   4.756   4.550   6.339
 2602WAT     H2 8049   4.617   4.539   6.424
 2603WAT      O 8050   6.434   7.156   5.431
 2603WAT     H1 8051   6.365   7.215   5.474
 2603WAT     H2 8052   6.438   7.175   5.333
 2604WAT      O 8053   2.887   0.921   6.357
 2604WAT     H1 8054   2.889   1.020   6.348
 2604WAT     H2 8055   2.941   0.879   6.284
 2605WAT      O 8056   7.003   1.708   6.659
 2605WAT     H1 8057   7.074   1.702   6.729
 2605WAT     H2 8058   6.964   1.800   6.659
 2606WAT      O 8059   7.243   1.331   6.544
 2606WAT     H1 8060   7.324   1.305   6.596
 2606WAT     H2 8061   7.234   1.431   6.545
 2607WAT      O 8062   3.613   7.387   5.155
 2607WAT     H1 8063   3.631   7.335   5.071
 2607WAT     H2 8064   3.580   7.324   5.226
 2608WAT      O 8065   0.956   3.296   3.979
 2608WAT     H1 8066   1.029   3.364   3.980
 2608WAT     H2 8067   0.994   3.207   3.954
 2609WAT      O 8068   3.574   6.252   0.648
 2609WAT     H1 8069   3.668   6.266   0.678
 2609WAT     H2 8070   3.553   6.316   0.574
 2610WAT      O 8071   9.885   2.813   8.208
 2610WAT     H1 8072   9.915   2.888   8.149
 2610WAT     H2 8073   9.887   2.727   8.158
 2611WAT      O 8074   9.391   2.407   0.061
 2611WAT     H1 8075   9.433   2.431  -0.027
 2611WAT     H2 8076   9.292   2.421   0.056
 2612WAT      O 8077   5.609   8.380   6.521
 2612WAT     H1 8078   5.676   8.437   6.473
 2612WAT     H2 8079   5.608   8.289   6.480
 2613WAT      O 8080   8.094   2.786   1.952
 2613WAT     H1 8081   8.010   2.809   2.001
 2613WAT     H2 8082   8.101   2.844   1.871
 2614WAT      O 8083   7.468   0.191   2.276
 2614WAT     H1 8084   7.393   0.256   2.268
 2614WAT     H2 8085   7.554   0.241   2.290
 2615WAT      O 8086   4.060   1.511   1.931
 2615WAT     H1 8087   4.083   1.571   2.008
 2615WAT     H2 8088   3.999   1.558   1.868
 2616WAT      O 8089   0.567   3.519   0.532
 2616WAT     H1 8090   0.599   3.554   0.620
 2616WAT     H2 8091   0.644   3.506   0.470
 2617WAT      O 8092   8.557   6.942   3.740
 2617WAT     H1 8093   8.516   6.866   3.688
 2617WAT     H2 8094   8.653   6.921   3.758
 2618WAT      O 8095   7.732   7.296   1.599
 2618WAT     H1 8096   7.792   7.228   1.643
 2618WAT     H2 8097   7.687   7.254   1.521
 2619WAT      O 8098   6.651   1.492   2.498
 2619WAT     H1 8099   6.611   1.574   2.537
 2619WAT     H2 8100   6.748   1.508   2.477
 2620WAT      O 8101   1.931   0.463   8.154
 2620WAT     H1 8102   1.853   0.482   8.214
 2620WAT     H2 8103   2.015   0.494   8.198
 2621WAT      O 8104   9.545   9.714   4.872
 2621WAT     H1 8105   9.550   9.615   4.858
 2621WAT     H2 8106   9.460   9.738   4.918
 2622WAT      O 8107   4.512   2.788   1.924
 2622WAT     H1 8108   4.543   2.749   2.010
 2622WAT     H2 8109   4.489   2.714   1.860
 2623WAT      O 8110   2.115   2.538   3.035
 2623WAT     H1 8111   2.205   2.513   3.072
 2623WAT     H2 8112   2.045   2.478   3.075
 2624WAT      O 8113   4.869   6.304   8.414
 2624WAT     H1 8114   4.800   6.235   8.435
 2624WAT     H2 8115   4.836   6.363   8.341
 2625WAT      O 8116   1.927   8.030   1.933
 2625WAT     H1 8117   1.855   7.979   1.888
 2625WAT     H2 8118   1.999   7.967   1.964
 2626WAT      O 8119   5.402   8.069   7.240
 2626WAT     H1 8120   5.309   8.062   7.201
 2626WAT     H2 8121   5.468   8.078   7.166
 2627WAT      O 8122   1.088   9.074   9.360
 2627WAT     H1 8123   1.118   9.100   9.452
 2627WAT     H2 8124   1.163   9.091   9.295
 2628WAT      O 8125   0.805   8.608   8.135
 2628WAT     H1 8126   0.884   8.659   8.100
 2628WAT     H2 8127   0.759   8.663   8.205
 2629WAT      O 8128   6.611   5.064   2.063
 2629WAT     H1 8129   6.557   5.112   2.132
 2629WAT     H2 8130   6.628   4.970   2.093
 2630WAT      O 8131   4.538   8.004   6.432
 2630WAT     H1 8132   4.490   8.076   6.383
 2630WAT     H2 8133   4.636   8.008   6.409
 2631WAT      O 8134   3.606   5.203   3.663
 2631WAT     H1 8135   3.534   5.194   3.595
 2631WAT     H2 8136   3.685   5.148   3.635
 2632WAT      O 8137   5.735   2.801   4.653
 2632WAT     H1 8138   5.808   2.813   4.586
 2632WAT     H2 8139   5.714   2.889   4.695
 2633WAT      O 8140   6.557   5.115   6.966
 2633WAT     H1 8141   6.618   5.165   7.027
 2633WAT     H2 8142   6.486   5.176   6.931
 2634WAT      O 8143   0.142   8.964   7.759
 2634WAT     H1 8144   0.075   8.949   7.687
 2634WAT     H2 8145   0.230   8.925   7.732
 2635WAT      O 8146   3.442   5.530   9.484
 2635WAT     H1 8147   3.471   5.483   9.568
 2635WAT     H2 8148   3.456   5.469   9.406
 2636WAT      O 8149   7.000   6.786   3.843
 2636WAT     H1 8150   7.051   6.840   3.910
 2636WAT     H2 8151   7.036   6.693   3.841
 2637WAT      O 8152   6.139   8.855   8.247
 2637WAT     H1 8153   6.065   8.893   8.192
 2637WAT     H2 8154   6.190   8.929   8.291
 2638WAT      O 8155   0.636   0.197   3.202
 2638WAT     H1 8156   0.687   0.118   3.168
 2638WAT     H2 8157   0.540   0.171   3.214
 2639WAT      O 8158   3.549   3.065   4.772
 2639WAT     H1 8159   3.504   3.109   4.694
 2639WAT     H2 8160   3.629   3.014   4.739
 2640WAT      O 8161   2.025   3.514   6.498
 2640WAT     H1 8162   2.111   3.496   6.545
 2640WAT     H2 8163   2.034   3.597   6.443
 2641WAT      O 8164   1.934   4.063   4.809
 2641WAT     H1 8165   1.936   3.998   4.885
 2641WAT     H2 8166   1.853   4.045   4.753
 2642WAT      O 8167   4.974   7.576   4.167
 2642WAT     H1 8168   4.935   7.484   4.159
 2642WAT     H2 8169   4.996   7.595   4.262
 2643WAT      O 8170   0.539   4.952   8.266
 2643WAT     H1 8171   0.635   4.925   8.272
 2643WAT     H2 8172   0.532   5.052   8.270
 2644WAT      O 8173   7.796   7.743   4.084
 2644WAT     H1 8174   7.864   7.700   4.144
 2644WAT     H2 8175   7.755   7.674   4.025
 2645WAT      O 8176   3.986   0.545   6.026
 2645WAT     H1 8177   3.892   0.540   5.992
 2645WAT     H2 8178   4.029   0.455   6.018
 2646WAT      O 8179   3.148   9.153   8.367
 2646WAT     H1 8180   3.231   9.167   8.313
 2646WAT     H2 8181   3.172   9.122   8.459
 2647WAT      O 8182   3.690   6.020   8.009
 2647WAT     H1 8183   3.762   5.965   7.966
 2647WAT     H2 8184   3.649   6.080   7.940
 2648WAT      O 8185   2.596   7.729   8.700
 2648WAT     H1 8186   2.593   7.801   8.769
 2648WAT     H2 8187   2.627   7.644   8.743
 2649WAT      O 8188   3.081   2.867   2.331
 2649WAT     H1 8189   2.991   2.906   2.350
 2649WAT     H2 8190   3.077   2.813   2.247
 2650WAT      O 8191   1.438   8.970   9.883
 2650WAT     H1 8192   1.521   8.917   9.894
 2650WAT     H2 8193   1.450   9.035   9.808
 2651WAT      O 8194   7.766   1.958   9.138
 2651WAT     H1 8195   7.727   2.024   9.073
 2651WAT     H2 8196   7.845   2.000   9.183
 2652WAT      O 8197   3.990   8.216   7.870
 2652WAT     H1 8198   3.954   8.277   7.942
 2652WAT     H2 8199   4.087   8.201   7.885
 2653WAT      O 8200   7.053   9.221   0.455
 2653WAT     H1 8201   7.033   9.134   0.500
 2653WAT     H2 8202   6.968   9.268   0.434
 2654WAT      O 8203   4.784   8.943   6.330
 2654WAT     H1 8204   4.803   9.019   6.268
 2654WAT     H2 8205   4.846   8.867   6.309
 2655WAT      O 8206   8.788   1.427   8.615
 2655WAT     H1 8207   8.694   1.396   8.607
 2655WAT     H2 8208   8.831   1.384   8.695
 2656WAT      O 8209   4.483   4.605   0.403
 2656WAT     H1 8210   4.461   4.529   0.464
 2656WAT     H2 8211   4.582   4.611   0.391
 2657WAT      O 8212   0.081   9.824   2.890
 2657WAT     H1 8213  -0.004   9.850   2.844
 2657WAT     H2 8214   0.147   9.899   2.881
 2658WAT      O 8215   1.922   6.126   2.640
 2658WAT     H1 8216   2.018   6.144   2.616
 2658WAT     H2 8217   1.899   6.032   2.617
 2659WAT      O 8218   9.853   4.119   0.367
 2659WAT     H1 8219   9.884   4.165   0.283
 2659WAT     H2 8220   9.928   4.065   0.406
 2660WAT      O 8221   4.913   0.321   8.892
 2660WAT     H1 8222   4.848   0.370   8.833
 2660WAT     H2 8223   4.961   0.252   8.837
 2661WAT      O 8224   1.968   1.094   0.729
 2661WAT     H1 8225   1.973   1.043   0.643
 2661WAT     H2 8226   1.948   1.190   0.710
 2662WAT      O 8227   5.218   1.017   6.979
 2662WAT     H1 8228   5.123   1.002   7.006
 2662WAT     H2 8229   5.240   1.114   6.987
 2663WAT      O 8230   9.845   7.054   2.918
 2663WAT     H1 8231   9.914   7.103   2.972
 2663WAT     H2 8232   9.759   7.051   2.970
 2664WAT      O 8233   5.157   1.811   6.563
 2664WAT     H1 8234   5.111   1.887   6.609
 2664WAT     H2 8235   5.116   1.725   6.590
 2665WAT      O 8236   1.157   6.529   4.808
 2665WAT     H1 8237   1.169   6.614   4.757
 2665WAT     H2 8238   1.065   6.526   4.847
 2666WAT      O 8239   5.291   4.041   9.441
 2666WAT     H1 8240   5.299   4.099   9.360
 2666WAT     H2 8241   5.203   3.994   9.439
 2667WAT      O 8242   9.273   3.922   6.519
 2667WAT     H1 8243   9.338   3.909   6.594
 2667WAT     H2 8244   9.300   3.864   6.441
 2668WAT      O 8245   1.054   5.716   6.649
 2668WAT     H1 8246   1.108   5.682   6.725
 2668WAT     H2 8247   1.061   5.816   6.645
 2669WAT      O 8248   9.564   8.542   0.843
 2669WAT     H1 8249   9.647   8.502   0.882
 2669WAT     H2 8250   9.577   8.555   0.745
 2670WAT      O 8251   7.986   5.386   7.444
 2670WAT     H1 8252   8.014   5.364   7.351
 2670WAT     H2 8253   7.945   5.305   7.486
 2671WAT      O 8254   0.815   7.099   3.989
 2671WAT     H1 8255   0.785   7.181   4.037
 2671WAT     H2 8256   0.913   7.104   3.972
 2672WAT      O 8257   6.555   5.322   9.393
 2672WAT     H1 8258   6.585   5.234   9.430
 2672WAT     H2 8259   6.592   5.396   9.450
 2673WAT      O 8260   8.726   0.393   9.581
 2673WAT     H1 8261   8.742   0.423   9.675
 2673WAT     H2 8262   8.705   0.295   9.580
 2674WAT      O 8263   9.548   6.408   9.456
 2674WAT     H1 8264   9.645   6.385   9.460
 2674WAT     H2 8265   9.506   6.358   9.380
 2675WAT      O 8266   4.370   5.999   8.553
 2675WAT     H1 8267   4.430   6.076   8.531
 2675WAT     H2 8268   4.275   6.024   8.533
 2676WAT      O 8269   5.674   6.830   7.958
 2676WAT     H1 8270   5.723   6.801   7.876
 2676WAT     H2 8271   5.705   6.921   7.985
 2677WAT      O 8272   9.840   1.338   0.415
 2677WAT     H1 8273   9.903   1.267   0.445
 2677WAT     H2 8274   9.889   1.426   0.410
 2678WAT      O 8275   5.771   9.771   6.186
 2678WAT     H1 8276   5.824   9.851   6.214
 2678WAT     H2 8277   5.786   9.697   6.252
 2679WAT      O 8278   8.565   6.200   6.741
 2679WAT     H1 8279   8.586   6.200   6.839
 2679WAT     H2 8280   8.509   6.120   6.720
 2680WAT      O 8281   6.443   7.881   4.587
 2680WAT     H1 8282   6.512   7.950   4.610
 2680WAT     H2 8283   6.354   7.925   4.577
 2681WAT      O 8284   9.123   8.173   9.456
 2681WAT     H1 8285   9.121   8.218   9.366
 2681WAT     H2 8286   9.194   8.103   9.455
 2682WAT      O 8287   2.578   3.013   1.471
 2682WAT     H1 8288   2.645   2.948   1.433
 2682WAT     H2 8289   2.526   3.053   1.396
 2683WAT      O 8290   3.362   6.356   1.427
 2683WAT     H1 8291   3.382   6.330   1.332
 2683WAT     H2 8292   3.287   6.300   1.462
 2684WAT      O 8293   2.784   6.758   4.396
 2684WAT     H1 8294   2.802   6.698   4.317
 2684WAT     H2 8295   2.706   6.817   4.375
 2685WAT      O 8296   7.022   3.917   0.410
 2685WAT     H1 8297   7.048   3.945   0.502
 2685WAT     H2 8298   6.991   3.997   0.358
 2686WAT      O 8299   1.315   2.284   1.207
 2686WAT     H1 8300   1.289   2.241   1.121
 2686WAT     H2 8301   1.414   2.298   1.208
 2687WAT      O 8302   6.845   9.665   8.357
 2687WAT     H1 8303   6.872   9.704   8.268
 2687WAT     H2 8304   6.764   9.607   8.344
 2688WAT      O 8305   4.660   9.702   8.573
 2688WAT     H1 8306   4.743   9.758   8.577
 2688WAT     H2 8307   4.583   9.760   8.548
 2689WAT      O 8308   2.207   7.179   4.682
 2689WAT     H1 8309   2.137   7.110   4.662
 2689WAT     H2 8310   2.167   7.270   4.676
 2690WAT      O 8311   9.444   9.763   2.118
 2690WAT     H1 8312   9.420   9.856   2.146
 2690WAT     H2 8313   9.462   9.707   2.199
 2691WAT      O 8314   4.947   6.901   0.427
 2691WAT     H1 8315   4.892   6.820   0.444
 2691WAT     H2 8316   4.891   6.971   0.382
 2692WAT      O 8317   3.995   3.905   9.707
 2692WAT     H1 8318   3.960   3.880   9.617
 2692WAT     H2 8319   4.094   3.894   9.709
 2693WAT      O 8320   1.992   7.669   4.355
 2693WAT     H1 8321   1.996   7.768   4.368
 2693WAT     H2 8322   1.914   7.646   4.296
 2694WAT      O 8323   4.485   1.115   7.177
 2694WAT     H1 8324   4.406   1.091   7.121
 2694WAT     H2 8325   4.547   1.173   7.124
 2695WAT      O 8326   6.926   1.638   4.078
 2695WAT     H1 8327   7.014   1.607   4.113
 2695WAT     H2 8328   6.908   1.731   4.110
 2696WAT      O 8329   9.003   6.378   5.273
 2696WAT     H1 8330   9.030   6.421   5.359
 2696WAT     H2 8331   9.056   6.417   5.198
 2697WAT      O 8332   1.607   2.873   0.009
 2697WAT     H1 8333   1.700   2.844   0.032
 2697WAT     H2 8334   1.578   2.944   0.073
 2698WAT      O 8335   4.996   3.897   6.710
 2698WAT     H1 8336   4.920   3.936   6.657
 2698WAT     H2 8337   5.069   3.870   6.648
 2699WAT      O 8338   7.073   0.480   0.391
 2699WAT     H1 8339   7.072   0.573   0.353
 2699WAT     H2 8340   7.084   0.414   0.317
 2700WAT      O 8341   0.910   0.041   1.164
 2700WAT     H1 8342   0.844  -0.030   1.190
 2700WAT     H2 8343   0.942   0.089   1.246
 2701WAT      O 8344   7.589   6.428   8.555
 2701WAT     H1 8345   7.631   6.337   8.552
 2701WAT     H2 8346   7.493   6.422   8.529
 2702WAT      O 8347   7.075   6.308   8.807
 2702WAT     H1 8348   7.168   6.341   8.823
 2702WAT     H2 8349   7.013   6.349   8.874
 2703WAT      O 8350   8.044   2.046   3.172
 2703WAT     H1 8351   8.013   2.081   3.084
 2703WAT     H2 8352   8.140   2.021   3.166
 2704WAT      O 8353   7.207   5.001   7.940
 2704WAT     H1 8354   7.150   5.017   8.020
 2704WAT     H2 8355   7.242   5.089   7.906
 2705WAT      O 8356   8.912   0.821   6.097
 2705WAT     H1 8357   8.955   0.816   6.007
 2705WAT     H2 8358   8.813   0.819   6.087
 2706WAT      O 8359   1.061   1.709   0.944
 2706WAT     H1 8360   1.034   1.778   1.011
 2706WAT     H2 8361   1.123   1.644   0.987
 2707WAT      O 8362   7.996   7.342   0.456
 2707WAT     H1 8363   8.016   7.419   0.395
 2707WAT     H2 8364   7.900   7.316   0.447
 2708WAT      O 8365   2.527   6.892   6.553
 2708WAT     H1 8366   2.582   6.945   6.489
 2708WAT     H2 8367   2.578   6.813   6.585
 2709WAT      O 8368   3.216   4.767   1.934
 2709WAT     H1 8369   3.254   4.859   1.927
 2709WAT     H2 8370   3.241   4.728   2.023
 2710WAT      O 8371   8.070   0.957   2.173
 2710WAT     H1 8372   8.053   0.921   2.264
 2710WAT     H2 8373   8.033   0.894   2.104
 2711WAT      O 8374   7.642   2.714   5.256
 2711WAT     H1 8375   7.711   2.657   5.301
 2711WAT     H2 8376   7.686   2.771   5.186
 2712WAT      O 8377   1.879   4.817   5.695
 2712WAT     H1 8378   1.833   4.897   5.658
 2712WAT     H2 8379   1.969   4.808   5.654
 2713WAT      O 8380   9.419   1.293   7.425
 2713WAT     H1 8381   9.489   1.360   7.401
 2713WAT     H2 8382   9.360   1.330   7.497
 2714WAT      O 8383   5.904   0.089   9.653
 2714WAT     H1 8384   5.874   0.027   9.725
 2714WAT     H2 8385   5.927   0.037   9.571
 2715WAT      O 8386   9.682   4.134   4.644
 2715WAT     H1 8387   9.775   4.168   4.646
 2715WAT     H2 8388   9.683   4.034   4.643
 2716WAT      O 8389   0.407   8.839   9.315
 2716WAT     H1 8390   0.323   8.863   9.364
 2716WAT     H2 8391   0.442   8.918   9.265
 2717WAT      O 8392   6.921   2.928   2.162
 2717WAT     H1 8393   6.957   2.974   2.244
 2717WAT     H2 8394   6.995   2.918   2.095
 2718WAT      O 8395   3.623   0.108   4.234
 2718WAT     H1 8396   3.565   0.029   4.212
 2718WAT     H2 8397   3.579   0.164   4.304
 2719WAT      O 8398   6.942   6.593   8.246
 2719WAT     H1 8399   6.843   6.580   8.248
 2719WAT     H2 8400   6.962   6.690   8.231
 2720WAT      O 8401   2.135   7.794   7.922
 2720WAT     H1 8402   2.147   7.697   7.945
 2720WAT     H2 8403   2.219   7.829   7.881
 2721WAT      O 8404   1.256   9.165   2.473
 2721WAT     H1 8405   1.200   9.092   2.513
 2721WAT     H2 8406   1.344   9.168   2.519
 2722WAT      O 8407   0.156   4.745   7.770
 2722WAT     H1 8408   0.207   4.831   7.779
 2722WAT     H2 8409   0.152   4.719   7.673
 2723WAT      O 8410   5.117   1.911   7.360
 2723WAT     H1 8411   5.028   1.867   7.347
 2723WAT     H2 8412   5.137   1.918   7.457
 2724WAT      O 8413   1.788   3.821   8.030
 2724WAT     H1 8414   1.731   3.865   8.099
 2724WAT     H2 8415   1.809   3.886   7.957
 2725WAT      O 8416   9.811   4.778   4.399
 2725WAT     H1 8417   9.876   4.786   4.323
 2725WAT     H2 8418   9.719   4.766   4.363
 2726WAT      O 8419   9.621   6.922   4.275
 2726WAT     H1 8420   9.538   6.895   4.324
 2726WAT     H2 8421   9.596   6.955   4.184
 2727WAT      O 8422   4.067   0.102   5.805
 2727WAT     H1 8423   3.974   0.137   5.792
 2727WAT     H2 8424   4.106   0.077   5.717
 2728WAT      O 8425   6.600   9.044   5.670
 2728WAT     H1 8426   6.515   9.004   5.636
 2728WAT     H2 8427   6.591   9.066   5.767
 2729WAT      O 8428   5.306   5.947   0.759
 2729WAT     H1 8429   5.405   5.938   0.766
 2729WAT     H2 8430   5.277   6.032   0.803
 2730WAT      O 8431   5.226   9.401   3.915
 2730WAT     H1 8432   5.276   9.443   3.839
 2730WAT     H2 8433   5.284   9.400   3.997
 2731WAT      O 8434   9.562   4.804   5.416
 2731WAT     H1 8435   9.623   4.797   5.495
 2731WAT     H2 8436   9.578   4.727   5.355
 2732WAT      O 8437   8.814   2.866   3.087
 2732WAT     H1 8438   8.718   2.890   3.097
 2732WAT     H2 8439   8.869   2.949   3.078
 2733WAT      O 8440   5.683   0.927   1.072
 2733WAT     H1 8441   5.764   0.967   1.030
 2733WAT     H2 8442   5.709   0.880   1.156
 2734WAT      O 8443   1.754   3.674   2.237
 2734WAT     H1 8444   1.830   3.636   2.185
 2734WAT     H2 8445   1.761   3.645   2.332
 2735WAT      O 8446   0.066   3.948   9.090
 2735WAT     H1 8447   0.103   3.960   9.182
 2735WAT     H2 8448   0.025   3.857   9.083
 2736WAT      O 8449   1.685   2.699   4.052
 2736WAT     H1 8450   1.742   2.638   3.996
 2736WAT     H2 8451   1.612   2.646   4.096
 2737WAT      O 8452   6.791   5.042   2.660
 2737WAT     H1 8453   6.828   4.991   2.738
 2737WAT     H2 8454   6.713   5.097   2.690
 2738WAT      O 8455   8.704   6.214   1.568
 2738WAT     H1 8456   8.656   6.159   1.499
 2738WAT     H2 8457   8.717   6.307   1.533
 2739WAT      O 8458   9.562   5.930   6.830
 2739WAT     H1 8459   9.582   5.837   6.863
 2739WAT     H2 8460   9.469   5.955   6.856
 2740WAT      O 8461   7.777   4.378   3.591
 2740WAT     H1 8462   7.683   4.405   3.612
 2740WAT     H2 8463   7.778   4.283   3.558
 2741WAT      O 8464   9.041   1.028   4.943
 2741WAT     H1 8465   8.943   1.037   4.965
 2741WAT     H2 8466   9.092   1.101   4.988
 2742WAT      O 8467   7.390   0.157   8.928
 2742WAT     H1 8468   7.305   0.129   8.883
 2742WAT     H2 8469   7.432   0.078   8.971
 2743WAT      O 8470   3.215   9.764   9.345
 2743WAT     H1 8471   3.309   9.729   9.339
 2743WAT     H2 8472   3.153   9.688   9.367
 2744WAT      O 8473   5.767   3.891   7.822
 2744WAT     H1 8474   5.834   3.945   7.873
 2744WAT     H2 8475   5.753   3.932   7.731
 2745WAT      O 8476   3.769   7.228   9.752
 2745WAT     H1 8477   3.850   7.239   9.810
 2745WAT     H2 8478   3.705   7.166   9.798
 2746WAT      O 8479   8.780   4.169   1.250
 2746WAT     H1 8480   8.707   4.214   1.302
 2746WAT     H2 8481   8.853   4.139   1.312
 2747WAT      O 8482   5.057   1.323   6.160
 2747WAT     H1 8483   5.040   1.417   6.132
 2747WAT     H2 8484   5.156   1.306   6.161
 2748WAT      O 8485   3.293   1.640   9.664
 2748WAT     H1 8486   3.220   1.690   9.618
 2748WAT     H2 8487   3.360   1.705   9.701
 2749WAT      O 8488   9.190   4.132   8.326
 2749WAT     H1 8489   9.165   4.222   8.362
 2749WAT     H2 8490   9.250   4.144   8.247
 2750WAT      O 8491   8.916   5.160   8.406
 2750WAT     H1 8492   8.950   5.207   8.324
 2750WAT     H2 8493   8.850   5.090   8.379
 2751WAT      O 8494   3.443   2.534   7.509
 2751WAT     H1 8495   3.422   2.531   7.607
 2751WAT     H2 8496   3.522   2.476   7.490
 2752WAT      O 8497   6.364   8.050   0.991
 2752WAT     H1 8498   6.438   8.021   1.052
 2752WAT     H2 8499   6.281   7.998   1.013
 2753WAT      O 8500   8.149   1.199   4.530
 2753WAT     H1 8501   8.166   1.143   4.449
 2753WAT     H2 8502   8.200   1.285   4.522
 2754WAT      O 8503   5.131   4.799   0.917
 2754WAT     H1 8504   5.205   4.836   0.861
 2754WAT     H2 8505   5.043   4.817   0.873
 2755WAT      O 8506   8.582   2.598   0.008
 2755WAT     H1 8507   8.527   2.522   0.042
 2755WAT     H2 8508   8.644   2.629   0.080
 2756WAT      O 8509   4.149  -0.001   5.555
 2756WAT     H1 8510   4.137   0.094   5.528
 2756WAT     H2 8511   4.242  -0.015   5.589
 2757WAT      O 8512   2.764   6.010   3.807
 2757WAT     H1 8513   2.727   5.919   3.822
 2757WAT     H2 8514   2.856   6.015   3.846
 2758WAT      O 8515   5.787   8.427   7.361
 2758WAT     H1 8516   5.733   8.345   7.343
 2758WAT     H2 8517   5.842   8.450   7.281
 2759WAT      O 8518   6.541   5.573   5.522
 2759WAT     H1 8519   6.599   5.633   5.576
 2759WAT     H2 8520   6.449   5.611   5.517
 2760WAT      O 8521   1.484   7.630   8.434
 2760WAT     H1 8522   1.534   7.709   8.400
 2760WAT     H2 8523   1.538   7.584   8.504
 2761WAT      O 8524   5.887   7.306   9.135
 2761WAT     H1 8525   5.941   7.389   9.153
 2761WAT     H2 8526   5.902   7.276   9.041
 2762WAT      O 8527   7.516   1.559   9.054
 2762WAT     H1 8528   7.597   1.515   9.016
 2762WAT     H2 8529   7.535   1.656   9.069
 2763WAT      O 8530   2.343   7.094   5.887
 2763WAT     H1 8531   2.356   7.085   5.789
 2763WAT     H2 8532   2.262   7.043   5.915
 2764WAT      O 8533   6.818   5.430   8.093
 2764WAT     H1 8534   6.838   5.426   8.191
 2764WAT     H2 8535   6.758   5.508   8.075
 2765WAT      O 8536   4.067   6.292   0.106
 2765WAT     H1 8537   4.137   6.221   0.112
 2765WAT     H2 8538   3.983   6.253   0.068
 2766WAT      O 8539   3.840   0.904   9.034
 2766WAT     H1 8540   3.796   0.984   8.994
 2766WAT     H2 8541   3.939   0.920   9.039
 2767WAT      O 8542   7.553   2.722   4.034
 2767WAT     H1 8543   7.584   2.638   3.990
 2767WAT     H2 8544   7.576   2.800   3.977
 2768WAT      O 8545   5.028   3.879   0.628
 2768WAT     H1 8546   5.047   3.877   0.726
 2768WAT     H2 8547   4.929   3.879   0.613
 2769WAT      O 8548   0.750   1.873   5.705
 2769WAT     H1 8549   0.730   1.811   5.630
 2769WAT     H2 8550   0.772   1.821   5.788
 2770WAT      O 8551   1.631   5.975   2.984
 2770WAT     H1 8552   1.629   6.042   2.910
 2770WAT     H2 8553   1.555   5.911   2.973
 2771WAT      O 8554   8.521   3.180   6.666
 2771WAT     H1 8555   8.544   3.164   6.762
 2771WAT     H2 8556   8.433   3.227   6.660
 2772WAT      O 8557   3.116   4.978   9.560
 2772WAT     H1 8558   3.187   4.982   9.630
 2772WAT     H2 8559   3.106   4.885   9.527
 2773WAT      O 8560   9.440   2.778   3.762
 2773WAT     H1 8561   9.364   2.843   3.774
 2773WAT     H2 8562   9.526   2.824   3.781
 2774WAT      O 8563   4.643   3.754   7.829
 2774WAT     H1 8564   4.693   3.768   7.915
 2774WAT     H2 8565   4.690   3.800   7.755
 2775WAT      O 8566   6.755   0.485   2.749
 2775WAT     H1 8567   6.686   0.529   2.806
 2775WAT     H2 8568   6.846   0.518   2.774
 2776WAT      O 8569   3.612   1.564   0.460
 2776WAT     H1 8570   3.686   1.516   0.508
 2776WAT     H2 8571   3.525   1.544   0.505
 2777WAT      O 8572   3.153   7.457   7.816
 2777WAT     H1 8573   3.243   7.434   7.780
 2777WAT     H2 8574   3.163   7.516   7.896
 2778WAT      O 8575   4.946   9.366   1.097
 2778WAT     H1 8576   4.915   9.310   1.173
 2778WAT     H2 8577   4.872   9.375   1.030
 2779WAT      O 8578   0.773   6.536   2.236
 2779WAT     H1 8579   0.701   6.484   2.282
 2779WAT     H2 8580   0.853   6.543   2.296
 2780WAT      O 8581   6.860   2.472   8.108
 2780WAT     H1 8582   6.873   2.501   8.203
 2780WAT     H2 8583   6.798   2.394   8.106
 2781WAT      O 8584   6.953   4.268   7.422
 2781WAT     H1 8585   6.883   4.338   7.407
 2781WAT     H2 8586   6.951   4.202   7.347
 2782WAT      O 8587   3.178   2.380   9.840
 2782WAT     H1 8588   3.231   2.437   9.776
 2782WAT     H2 8589   3.212   2.287   9.838
 2783WAT      O 8590   7.882   5.354   3.837
 2783WAT     H1 8591   7.913   5.264   3.868
 2783WAT     H2 8592   7.810   5.343   3.768
 2784WAT      O 8593   3.255   7.584   2.907
 2784WAT     H1 8594   3.250   7.645   2.986
 2784WAT     H2 8595   3.190   7.509   2.918
 2785WAT      O 8596   5.615   6.471   9.268
 2785WAT     H1 8597   5.539   6.535   9.262
 2785WAT     H2 8598   5.597   6.393   9.208
 2786WAT      O 8599   3.627   2.193   3.197
 2786WAT     H1 8600   3.700   2.258   3.177
 2786WAT     H2 8601   3.566   2.231   3.266
 2787WAT      O 8602   6.437   2.147   6.647
 2787WAT     H1 8603   6.483   2.120   6.732
 2787WAT     H2 8604   6.355   2.091   6.634
 2788WAT      O 8605   8.192   7.665   9.854
 2788WAT     H1 8606   8.277   7.649   9.803
 2788WAT     H2 8607   8.210   7.727   9.931
 2789WAT      O 8608   0.024   4.005   1.798
 2789WAT     H1 8609   0.048   3.938   1.728
 2789WAT     H2 8610   0.102   4.019   1.859
 2790WAT      O 8611   3.545   5.865   7.653
 2790WAT     H1 8612   3.463   5.900   7.698
 2790WAT     H2 8613   3.546   5.896   7.557
 2791WAT      O 8614   1.469   9.770   8.418
 2791WAT     H1 8615   1.475   9.797   8.322
 2791WAT     H2 8616   1.413   9.835   8.468
 2792WAT      O 8617   2.387   8.374   4.251
 2792WAT     H1 8618   2.402   8.442   4.179
 2792WAT     H2 8619   2.472   8.357   4.299
 2793WAT      O 8620   3.121   5.223   5.611
 2793WAT     H1 8621   3.057   5.158   5.652
 2793WAT     H2 8622   3.117   5.309   5.662
 2794WAT      O 8623   9.069   3.443   0.189
 2794WAT     H1 8624   8.984   3.454   0.241
 2794WAT     H2 8625   9.078   3.348   0.159
 2795WAT      O 8626   0.876   5.890   2.236
 2795WAT     H1 8627   0.905   5.925   2.325
 2795WAT     H2 8628   0.781   5.859   2.241
 2796WAT      O 8629   1.875   2.622   4.426
 2796WAT     H1 8630   1.952   2.560   4.442
 2796WAT     H2 8631   1.797   2.570   4.391
 2797WAT      O 8632   3.672   8.078   6.112
 2797WAT     H1 8633   3.625   7.996   6.080
 2797WAT     H2 8634   3.650   8.155   6.051
 2798WAT      O 8635   3.715   1.329   3.227
 2798WAT     H1 8636   3.813   1.318   3.210
 2798WAT     H2 8637   3.667   1.335   3.139
 2799WAT      O 8638   0.969   2.907   6.128
 2799WAT     H1 8639   1.041   2.869   6.070
 2799WAT     H2 8640   0.890   2.845   6.127
 2800WAT      O 8641   3.628   1.179   1.716
 2800WAT     H1 8642   3.637   1.136   1.806
 2800WAT     H2 8643   3.663   1.273   1.720
 2801WAT      O 8644   2.486   6.904   8.771
 2801WAT     H1 8645   2.481   6.934   8.675
 2801WAT     H2 8646   2.417   6.952   8.825
 2802WAT      O 8647   6.290   0.412   4.685
 2802WAT     H1 8648   6.271   0.315   4.700
 2802WAT     H2 8649   6.356   0.444   4.753
 2803WAT      O 8650   5.260   0.016   4.615
 2803WAT     H1 8651   5.240  -0.032   4.700
 2803WAT     H2 8652   5.224  -0.037   4.538
 2804WAT      O 8653   7.300   1.355   0.426
 2804WAT     H1 8654   7.233   1.368   0.500
 2804WAT     H2 8655   7.387   1.397   0.452
 2805WAT      O 8656   3.760   1.642   7.955
 2805WAT     H1 8657   3.799   1.662   8.046
 2805WAT     H2 8658   3.835   1.629   7.890
 2806WAT      O 8659   2.707   4.069   4.174
 2806WAT     H1 8660   2.630   4.013   4.144
 2806WAT     H2 8661   2.687   4.107   4.265
 2807WAT      O 8662   0.907   0.040   4.758
 2807WAT     H1 8663   0.887  -0.058   4.763
 2807WAT     H2 8664   0.834   0.087   4.709
 2808WAT      O 8665   6.361   8.558   0.175
 2808WAT     H1 8666   6.402   8.633   0.124
 2808WAT     H2 8667   6.281   8.523   0.126
 2809WAT      O 8668   2.465   3.912   1.828
 2809WAT     H1 8669   2.407   3.923   1.748
 2809WAT     H2 8670   2.452   3.821   1.867
 2810WAT      O 8671   7.533   4.173   9.556
 2810WAT     H1 8672   7.542   4.246   9.489
 2810WAT     H2 8673   7.453   4.190   9.614
 2811WAT      O 8674   2.154   8.877   3.294
 2811WAT     H1 8675   2.064   8.836   3.276
 2811WAT     H2 8676   2.149   8.935   3.375
 2812WAT      O 8677   1.140   4.222   3.703
 2812WAT     H1 8678   1.189   4.303   3.732
 2812WAT     H2 8679   1.081   4.190   3.778
 2813WAT      O 8680   1.926   2.131   9.402
 2813WAT     H1 8681   1.860   2.192   9.359
 2813WAT     H2 8682   2.014   2.177   9.409
 2814WAT      O 8683   2.385   0.258   5.167
 2814WAT     H1 8684   2.359   0.218   5.255
 2814WAT     H2 8685   2.423   0.349   5.182
 2815WAT      O 8686   9.416   7.793   7.608
 2815WAT     H1 8687   9.392   7.860   7.537
 2815WAT     H2 8688   9.335   7.771   7.662
 2816WAT      O 8689   1.529   4.632   6.358
 2816WAT     H1 8690   1.440   4.597   6.329
 2816WAT     H2 8691   1.559   4.703   6.294
 2817WAT      O 8692   8.767   0.467   3.366
 2817WAT     H1 8693   8.684   0.492   3.316
 2817WAT     H2 8694   8.789   0.371   3.348
 2818WAT      O 8695   3.616   0.509   6.954
 2818WAT     H1 8696   3.611   0.556   6.865
 2818WAT     H2 8697   3.665   0.423   6.943
 2819WAT      O 8698   2.798   1.076   2.576
 2819WAT     H1 8699   2.802   1.146   2.504
 2819WAT     H2 8700   2.778   0.987   2.535
 2820WAT      O 8701   5.852   6.045   6.313
 2820WAT     H1 8702   5.786   6.092   6.372
 2820WAT     H2 8703   5.928   6.108   6.292
 2821WAT      O 8704   5.442   7.341   2.693
 2821WAT     H1 8705   5.408   7.357   2.786
 2821WAT     H2 8706   5.381   7.385   2.627
 2822WAT      O 8707   1.268   4.152   5.938
 2822WAT     H1 8708   1.358   4.134   5.898
 2822WAT     H2 8709   1.228   4.065   5.969
 2823WAT      O 8710   1.162   2.482   8.362
 2823WAT     H1 8711   1.075   2.516   8.397
 2823WAT     H2 8712   1.170   2.504   8.265
 2824WAT      O 8713   9.791   7.843   8.505
 2824WAT     H1 8714   9.881   7.858   8.464
 2824WAT     H2 8715   9.775   7.912   8.576
 2825WAT      O 8716   9.159   4.372   2.222
 2825WAT     H1 8717   9.148   4.338   2.315
 2825WAT     H2 8718   9.229   4.319   2.174
 2826WAT      O 8719   6.680   5.327   0.058
 2826WAT     H1 8720   6.703   5.277  -0.025
 2826WAT     H2 8721   6.761   5.377   0.090
 2827WAT      O 8722   8.271   5.620   0.098
 2827WAT     H1 8723   8.226   5.540   0.057
 2827WAT     H2 8724   8.212   5.700   0.086
 2828WAT      O 8725   6.479   5.667   1.549
 2828WAT     H1 8726   6.572   5.702   1.555
 2828WAT     H2 8727   6.418   5.724   1.604
 2829WAT      O 8728   9.052   7.773   6.632
 2829WAT     H1 8729   9.102   7.817   6.557
 2829WAT     H2 8730   9.112   7.709   6.679
 2830WAT      O 8731   1.593   7.068   8.576
 2830WAT     H1 8732   1.563   7.074   8.672
 2830WAT     H2 8733   1.595   6.972   8.549
 2831WAT      O 8734   3.458   9.734   4.757
 2831WAT     H1 8735   3.490   9.714   4.849
 2831WAT     H2 8736   3.536   9.732   4.693
 2832WAT      O 8737   1.614   4.575   2.067
 2832WAT     H1 8738   1.678   4.506   2.102
 2832WAT     H2 8739   1.611   4.653   2.129
 2833WAT      O 8740   4.193   6.568   2.586
 2833WAT     H1 8741   4.266   6.636   2.595
 2833WAT     H2 8742   4.139   6.589   2.505
 2834WAT      O 8743   9.548   5.420   3.224
 2834WAT     H1 8744   9.550   5.354   3.150
 2834WAT     H2 8745   9.460   5.467   3.225
 2835WAT      O 8746   0.349   9.727   9.804
 2835WAT     H1 8747   0.267   9.679   9.772
 2835WAT     H2 8748   0.428   9.666   9.796
 2836WAT      O 8749   1.178   1.449   2.524
 2836WAT     H1 8750   1.267   1.491   2.538
 2836WAT     H2 8751   1.151   1.460   2.428
 2837WAT      O 8752   2.939   4.912   4.831
 2837WAT     H1 8753   3.025   4.962   4.819
 2837WAT     H2 8754   2.895   4.900   4.742
 2838WAT      O 8755   7.915   4.333   5.140
 2838WAT     H1 8756   7.950   4.259   5.082
 2838WAT     H2 8757   7.920   4.305   5.236
 2839WAT      O 8758   6.701   1.076   3.932
 2839WAT     H1 8759   6.658   1.164   3.956
 2839WAT     H2 8760   6.645   1.001   3.967
 2840WAT      O 8761   4.734   2.228   4.489
 2840WAT     H1 8762   4.718   2.204   4.393
 2840WAT     H2 8763   4.648   2.257   4.531
 2841WAT      O 8764   3.948   8.379   6.254
 2841WAT     H1 8765   3.861   8.428   6.245
 2841WAT     H2 8766   3.961   8.352   6.350
 2842WAT      O 8767   8.356   8.207   6.033
 2842WAT     H1 8768   8.277   8.188   6.092
 2842WAT     H2 8769   8.342   8.294   5.987
 2843WAT      O 8770   2.981   4.204   5.341
 2843WAT     H1 8771   2.945   4.259   5.416
 2843WAT     H2 8772   3.073   4.234   5.318
 2844WAT      O 8773   5.445   1.271   5.971
 2844WAT     H1 8774   5.531   1.261   5.921
 2844WAT     H2 8775   5.369   1.244   5.912
 2845WAT      O 8776   1.469   2.920   2.433
 2845WAT     H1 8777   1.434   2.995   2.379
 2845WAT     H2 8778   1.566   2.906   2.412
 2846WAT      O 8779   0.774   7.236   4.501
 2846WAT     H1 8780   0.864   7.205   4.470
 2846WAT     H2 8781   0.784   7.319   4.555
 2847WAT      O 8782   4.318   7.554   1.757
 2847WAT     H1 8783   4.312   7.534   1.660
 2847WAT     H2 8784   4.253   7.626   1.780
 2848WAT      O 8785   2.588   1.062   9.509
 2848WAT     H1 8786   2.615   0.966   9.519
 2848WAT     H2 8787   2.523   1.070   9.434
 2849WAT      O 8788   2.619   4.906   8.103
 2849WAT     H1 8789   2.546   4.838   8.094
 2849WAT     H2 8790   2.674   4.886   8.183
 2850WAT      O 8791   2.507   7.739   6.469
 2850WAT     H1 8792   2.509   7.836   6.446
 2850WAT     H2 8793   2.451   7.726   6.551
 2851WAT      O 8794   2.797   2.818   5.001
 2851WAT     H1 8795   2.895   2.839   4.990
 2851WAT     H2 8796   2.744   2.874   4.938
 2852WAT      O 8797   7.624   0.515   5.032
 2852WAT     H1 8798   7.610   0.470   4.943
 2852WAT     H2 8799   7.681   0.597   5.018
 2853WAT      O 8800   8.245   6.456   5.496
 2853WAT     H1 8801   8.325   6.512   5.472
 2853WAT     H2 8802   8.257   6.364   5.459
 2854WAT      O 8803   0.394   6.028   6.320
 2854WAT     H1 8804   0.427   5.969   6.247
 2854WAT     H2 8805   0.344   6.105   6.280
 2855WAT      O 8806   7.947   6.216   1.195
 2855WAT     H1 8807   8.034   6.167   1.196
 2855WAT     H2 8808   7.961   6.308   1.159
 2856WAT      O 8809   7.337   3.016   1.686
 2856WAT     H1 8810   7.266   3.016   1.756
 2856WAT     H2 8811   7.426   3.032   1.729
 2857WAT      O 8812   7.474   1.079   2.215
 2857WAT     H1 8813   7.401   1.144   2.196
 2857WAT     H2 8814   7.470   1.003   2.150
 2858WAT      O 8815   8.849   1.597   5.758
 2858WAT     H1 8816   8.826   1.538   5.682
 2858WAT     H2 8817   8.774   1.661   5.776
 2859WAT      O 8818   9.407   5.707   5.282
 2859WAT     H1 8819   9.419   5.676   5.377
 2859WAT     H2 8820   9.487   5.761   5.255
 2860WAT      O 8821   6.424   7.264   2.251
 2860WAT     H1 8822   6.369   7.180   2.256
 2860WAT     H2 8823   6.484   7.259   2.171
 2861WAT      O 8824   4.341   1.465   2.113
 2861WAT     H1 8825   4.317   1.432   2.022
 2861WAT     H2 8826   4.267   1.523   2.148
 2862WAT      O 8827   4.992   4.974   8.705
 2862WAT     H1 8828   4.944   4.928   8.630
 2862WAT     H2 8829   5.018   4.906   8.775
 2863WAT      O 8830   4.646   1.525   5.038
 2863WAT     H1 8831   4.634   1.531   5.137
 2863WAT     H2 8832   4.609   1.607   4.995
 2864WAT      O 8833   5.682   1.216   4.200
 2864WAT     H1 8834   5.766   1.258   4.166
 2864WAT     H2 8835   5.705   1.141   4.262
 2865WAT      O 8836   7.762   6.648   7.161
 2865WAT     H1 8837   7.784   6.556   7.194
 2865WAT     H2 8838   7.743   6.644   7.063
 2866WAT      O 8839   8.301   8.640   4.836
 2866WAT     H1 8840   8.349   8.602   4.757
 2866WAT     H2 8841   8.218   8.687   4.806
 2867WAT      O 8842   5.462   2.710   0.409
 2867WAT     H1 8843   5.482   2.706   0.507
 2867WAT     H2 8844   5.495   2.796   0.371
 2868WAT      O 8845   0.423   5.267   5.711
 2868WAT     H1 8846   0.352   5.206   5.674
 2868WAT     H2 8847   0.512   5.239   5.676
 2869WAT      O 8848   7.762   5.610   2.332
 2869WAT     H1 8849   7.734   5.564   2.247
 2869WAT     H2 8850   7.764   5.709   2.317
 2870WAT      O 8851   6.489   1.679   0.590
 2870WAT     H1 8852   6.575   1.701   0.638
 2870WAT     H2 8853   6.420   1.652   0.658
 2871WAT      O 8854   6.364   3.913   9.365
 2871WAT     H1 8855   6.347   3.856   9.284
 2871WAT     H2 8856   6.446   3.881   9.411
 2872WAT      O 8857   9.259   3.422   3.986
 2872WAT     H1 8858   9.277   3.368   4.068
 2872WAT     H2 8859   9.201   3.500   4.010
 2873WAT      O 8860   8.630   5.855   1.200
 2873WAT     H1 8861   8.586   5.766   1.184
 2873WAT     H2 8862   8.675   5.885   1.117
 2874WAT      O 8863   5.186   9.566   2.684
 2874WAT     H1 8864   5.273   9.529   2.650
 2874WAT     H2 8865   5.110   9.514   2.645
 2875WAT      O 8866   1.097   5.820   7.643
 2875WAT     H1 8867   1.145   5.900   7.607
 2875WAT     H2 8868   1.052   5.772   7.568
 2876WAT      O 8869   9.014   7.339   5.341
 2876WAT     H1 8870   9.066   7.315   5.259
 2876WAT     H2 8871   9.054   7.420   5.384
 2877WAT      O 8872   8.145   5.616   0.869
 2877WAT     H1 8873   8.124   5.558   0.948
 2877WAT     H2 8874   8.110   5.573   0.786
 2878WAT      O 8875   1.411   8.290   8.673
 2878WAT     H1 8876   1.399   8.344   8.591
 2878WAT     H2 8877   1.489   8.227   8.662
 2879WAT      O 8878   0.805   6.312   7.001
 2879WAT     H1 8879   0.845   6.320   6.910
 2879WAT     H2 8880   0.753   6.395   7.023
 2880WAT      O 8881   3.049   3.164   2.838
 2880WAT     H1 8882   3.004   3.253   2.843
 2880WAT     H2 8883   3.002   3.106   2.772
 2881WAT      O 8884   8.536   5.645   7.239
 2881WAT     H1 8885   8.499   5.553   7.243
 2881WAT     H2 8886   8.461   5.711   7.225
 2882WAT      O 8887   8.455   5.957   6.531
 2882WAT     H1 8888   8.461   5.943   6.629
 2882WAT     H2 8889   8.532   5.914   6.485
 2883WAT      O 8890   1.068   5.363   5.879
 2883WAT     H1 8891   1.114   5.419   5.810
 2883WAT     H2 8892   1.130   5.348   5.956
 2884WAT      O 8893   8.025   3.593   9.505
 2884WAT     H1 8894   8.046   3.677   9.556
 2884WAT     H2 8895   8.106   3.563   9.456
 2885WAT      O 8896   0.652   3.889   1.553
 2885WAT     H1 8897   0.593   3.864   1.476
 2885WAT     H2 8898   0.650   3.816   1.621
 2886WAT      O 8899   4.039   3.202   8.483
 2886WAT     H1 8900   3.982   3.276   8.519
 2886WAT     H2 8901   4.134   3.218   8.511
 2887WAT      O 8902   4.183   8.356   5.596
 2887WAT     H1 8903   4.120   8.433   5.602
 2887WAT     H2 8904   4.132   8.271   5.608
 2888WAT      O 8905   3.936   3.343   2.000
 2888WAT     H1 8906   3.896   3.400   1.929
 2888WAT     H2 8907   4.021   3.302   1.967
 2889WAT      O 8908   8.129   5.216   2.851
 2889WAT     H1 8909   8.101   5.121   2.839
 2889WAT     H2 8910   8.225   5.225   2.827
 2890WAT      O 8911   5.086   0.258   4.330
 2890WAT     H1 8912   5.132   0.296   4.249
 2890WAT     H2 8913   5.037   0.175   4.305
 2891WAT      O 8914   6.924   3.300   7.352
 2891WAT     H1 8915   6.877   3.238   7.290
 2891WAT     H2 8916   6.956   3.380   7.301
 2892WAT      O 8917   6.700   3.344   4.668
 2892WAT     H1 8918   6.776   3.374   4.726
 2892WAT     H2 8919   6.619   3.327   4.724
 2893WAT      O 8920   8.388   0.542   9.674
 2893WAT     H1 8921   8.313   0.608   9.682
 2893WAT     H2 8922   8.474   0.590   9.662
 2894WAT      O 8923   9.873   9.442   4.947
 2894WAT     H1 8924   9.941   9.433   4.874
 2894WAT     H2 8925   9.891   9.527   4.997
 2895WAT      O 8926   5.857   7.179   1.828
 2895WAT     H1 8927   5.847   7.269   1.871
 2895WAT     H2 8928   5.809   7.179   1.741
 2896WAT      O 8929   7.492   5.268   0.960
 2896WAT     H1 8930   7.457   5.266   0.866
 2896WAT     H2 8931   7.416   5.281   1.023
 2897WAT      O 8932   6.408   9.265   1.421
 2897WAT     H1 8933   6.355   9.249   1.504
 2897WAT     H2 8934   6.460   9.183   1.399
 2898WAT      O 8935   4.795   9.359   5.610
 2898WAT     H1 8936   4.775   9.432   5.675
 2898WAT     H2 8937   4.892   9.362   5.586
 2899WAT      O 8938   7.210   6.601   4.069
 2899WAT     H1 8939   7.274   6.583   4.144
 2899WAT     H2 8940   7.186   6.698   4.069
 2900WAT      O 8941   7.625   3.808   4.019
 2900WAT     H1 8942   7.672   3.729   4.058
 2900WAT     H2 8943   7.545   3.830   4.075
 2901WAT      O 8944   3.270   7.827   5.434
 2901WAT     H1 8945   3.306   7.780   5.354
 2901WAT     H2 8946   3.251   7.922   5.411
 2902WAT      O 8947   2.777   1.838   4.402
 2902WAT     H1 8948   2.779   1.742   4.430
 2902WAT     H2 8949   2.745   1.844   4.307
 2903WAT      O 8950   4.608   2.606   2.115
 2903WAT     H1 8951   4.619   2.611   2.214
 2903WAT     H2 8952   4.697   2.619   2.071
 2904WAT      O 8953   1.010   0.258   3.063
 2904WAT     H1 8954   1.099   0.278   3.024
 2904WAT     H2 8955   0.938   0.283   2.999
 2905WAT      O 8956   3.210   4.308   5.261
 2905WAT     H1 8957   3.293   4.321   5.207
 2905WAT     H2 8958   3.183   4.395   5.302
 2906WAT      O 8959   0.456   1.596   8.979
 2906WAT     H1 8960   0.417   1.665   9.039
 2906WAT     H2 8961   0.507   1.528   9.033
 2907WAT      O 8962   9.822   0.791   0.860
 2907WAT     H1 8963   9.797   0.694   0.862
 2907WAT     H2 8964   9.746   0.844   0.820
 2908WAT      O 8965   3.447   3.189   4.554
 2908WAT     H1 8966   3.352   3.157   4.554
 2908WAT     H2 8967   3.464   3.243   4.471
 2909WAT      O 8968   8.414   8.717   5.510
 2909WAT     H1 8969   8.415   8.659   5.428
 2909WAT     H2 8970   8.349   8.792   5.496
 2910WAT      O 8971   0.137   0.727   5.950
 2910WAT     H1 8972   0.146   0.689   5.858
 2910WAT     H2 8973   0.201   0.803   5.960
 2911WAT      O 8974   8.478   3.172   5.590
 2911WAT     H1 8975   8.431   3.132   5.669
 2911WAT     H2 8976   8.558   3.116   5.567
 2912WAT      O 8977   2.111   6.424   7.376
 2912WAT     H1 8978   2.027   6.441   7.324
 2912WAT     H2 8979   2.087   6.399   7.470
 2913WAT      O 8980   1.909   2.571   4.820
 2913WAT     H1 8981   1.855   2.639   4.870
 2913WAT     H2 8982   2.002   2.603   4.809
 2914WAT      O 8983   5.029   6.377   7.384
 2914WAT     H1 8984   4.938   6.353   7.350
 2914WAT     H2 8985   5.091   6.388   7.306
 2915WAT      O 8986   4.916   5.857   6.537
 2915WAT     H1 8987   4.876   5.766   6.552
 2915WAT     H2 8988   4.961   5.888   6.621
 2916WAT      O 8989   4.320   2.079   6.859
 2916WAT     H1 8990   4.391   2.027   6.906
 2916WAT     H2 8991   4.284   2.025   6.783
 2917WAT      O 8992   7.845   5.527   3.160
 2917WAT     H1 8993   7.834   5.616   3.205
 2917WAT     H2 8994   7.842   5.455   3.229
 2918WAT      O 8995   4.253   7.570   0.543
 2918WAT     H1 8996   4.214   7.582   0.634
 2918WAT     H2 8997   4.184   7.529   0.483
 2919WAT      O 8998   0.213   5.250   4.547
 2919WAT     H1 8999   0.289   5.295   4.500
 2919WAT     H2 9000   0.145   5.219   4.480
 2920WAT      O 9001   2.496   6.203   2.687
 2920WAT     H1 9002   2.553   6.285   2.691
 2920WAT     H2 9003   2.399   6.229   2.686
 2921WAT      O 9004   9.464   8.307   6.494
 2921WAT     H1 9005   9.406   8.388   6.490
 2921WAT     H2 9006   9.534   8.319   6.564
 2922WAT      O 9007   6.472   2.575   8.587
 2922WAT     H1 9008   6.522   2.651   8.545
 2922WAT     H2 9009   6.501   2.566   8.682
 2923WAT      O 9010   0.782   2.558   7.643
 2923WAT     H1 9011   0.764   2.511   7.557
 2923WAT     H2 9012   0.825   2.647   7.625
 2924WAT      O 9013   5.461   4.328   0.222
 2924WAT     H1 9014   5.481   4.294   0.130
 2924WAT     H2 9015   5.518   4.280   0.289
 2925WAT      O 9016   6.133   5.405   8.587
 2925WAT     H1 9017   6.163   5.311   8.604
 2925WAT     H2 9018   6.210   5.460   8.557
 2926WAT      O 9019   4.367   1.832   1.054
 2926WAT     H1 9020   4.414   1.913   1.088
 2926WAT     H2 9021   4.391   1.816   0.958
 2927WAT      O 9022   3.924   7.740   7.224
 2927WAT     H1 9023   3.893   7.758   7.317
 2927WAT     H2 9024   3.946   7.643   7.214
 2928WAT      O 9025   5.232   2.593   2.435
 2928WAT     H1 9026   5.316   2.645   2.419
 2928WAT     H2 9027   5.237   2.546   2.523
 2929WAT      O 9028   4.277   2.621   2.102
 2929WAT     H1 9029   4.263   2.617   2.003
 2929WAT     H2 9030   4.296   2.715   2.129
 2930WAT      O 9031   3.115   8.346   7.682
 2930WAT     H1 9032   3.112   8.312   7.588
 2930WAT     H2 9033   3.075   8.278   7.743
 2931WAT      O 9034   0.580   8.216   3.876
 2931WAT     H1 9035   0.503   8.272   3.847
 2931WAT     H2 9036   0.600   8.234   3.973
 2932WAT      O 9037   1.731   3.466   5.741
 2932WAT     H1 9038   1.825   3.495   5.758
 2932WAT     H2 9039   1.729   3.397   5.669
 2933WAT      O 9040   5.080   5.408   1.376
 2933WAT     H1 9041   5.177   5.395   1.354
 2933WAT     H2 9042   5.071   5.476   1.449
 2934WAT      O 9043   8.226   4.464   3.560
 2934WAT     H1 9044   8.155   4.406   3.601
 2934WAT     H2 9045   8.255   4.424   3.473
 2935WAT      O 9046   4.839   1.621   7.074
 2935WAT     H1 9047   4.893   1.590   6.996
 2935WAT     H2 9048   4.786   1.702   7.047
 2936WAT      O 9049   9.758   2.225   7.021
 2936WAT     H1 9050   9.773   2.137   7.065
 2936WAT     H2 9051   9.686   2.275   7.068
 2937WAT      O 9052   1.219   9.050   5.846
 2937WAT     H1 9053   1.152   9.116   5.813
 2937WAT     H2 9054   1.230   8.977   5.779
 2938WAT      O 9055   2.925   6.121   4.709
 2938WAT     H1 9056   2.828   6.140   4.694
 2938WAT     H2 9057   2.954   6.161   4.796
 2939WAT      O 9058   3.271   8.423   8.444
 2939WAT     H1 9059   3.296   8.483   8.368
 2939WAT     H2 9060   3.275   8.475   8.529
 2940WAT      O 9061   9.060   6.349   9.663
 2940WAT     H1 9062   9.150   6.343   9.620
 2940WAT     H2 9063   8.991   6.312   9.600
 2941WAT      O 9064   2.891   9.036   7.160
 2941WAT     H1 9065   2.808   9.092   7.158
 2941WAT     H2 9066   2.883   8.964   7.092
 2942WAT      O 9067   3.914   9.783   5.428
 2942WAT     H1 9068   3.856   9.756   5.506
 2942WAT     H2 9069   4.009   9.786   5.457
 2943WAT      O 9070   1.894   5.542   2.406
 2943WAT     H1 9071   1.958   5.542   2.484
 2943WAT     H2 9072   1.802   5.560   2.439
 2944WAT      O 9073   1.497   5.585   0.907
 2944WAT     H1 9074   1.557   5.506   0.905
 2944WAT     H2 9075   1.422   5.568   0.971
 2945WAT      O 9076   6.399   9.064   1.166
 2945WAT     H1 9077   6.345   9.148   1.158
 2945WAT     H2 9078   6.376   9.002   1.090
 2946WAT      O 9079   3.956   3.221   5.010
 2946WAT     H1 9080   3.988   3.222   4.915
 2946WAT     H2 9081   3.930   3.128   5.035
 2947WAT      O 9082   0.271   5.227   6.578
 2947WAT     H1 9083   0.201   5.257   6.642
 2947WAT     H2 9084   0.260   5.129   6.561
 2948WAT      O 9085   3.724   8.811   7.519
 2948WAT     H1 9086   3.747   8.760   7.602
 2948WAT     H2 9087   3.790   8.788   7.447
 2949WAT      O 9088   1.251   6.474   7.875
 2949WAT     H1 9089   1.216   6.565   7.897
 2949WAT     H2 9090   1.268   6.423   7.960
 2950WAT      O 9091   2.795   0.402   4.412
 2950WAT     H1 9092   2.795   0.472   4.483
 2950WAT     H2 9093   2.890   0.375   4.393
 2951WAT      O 9094   8.108   3.408   7.366
 2951WAT     H1 9095   8.148   3.355   7.291
 2951WAT     H2 9096   8.090   3.348   7.444
 2952WAT      O 9097   4.542   8.815   7.763
 2952WAT     H1 9098   4.548   8.899   7.817
 2952WAT     H2 9099   4.517   8.837   7.669
 2953WAT      O 9100   0.764   2.495   0.334
 2953WAT     H1 9101   0.747   2.479   0.431
 2953WAT     H2 9102   0.679   2.522   0.289
 2954WAT      O 9103   0.793   3.513   6.265
 2954WAT     H1 9104   0.702   3.477   6.285
 2954WAT     H2 9105   0.790   3.613   6.268
 2955WAT      O 9106   1.159   1.517   6.149
 2955WAT     H1 9107   1.219   1.497   6.072
 2955WAT     H2 9108   1.211   1.564   6.220
 2956WAT      O 9109   5.927   4.053   1.402
 2956WAT     H1 9110   5.995   4.111   1.358
 2956WAT     H2 9111   5.849   4.109   1.431
 2957WAT      O 9112   6.118   1.468   3.737
 2957WAT     H1 9113   6.123   1.527   3.817
 2957WAT     H2 9114   6.197   1.484   3.678
 2958WAT      O 9115   7.955   0.811   2.406
 2958WAT     H1 9116   7.872   0.838   2.454
 2958WAT     H2 9117   8.004   0.742   2.459
 2959WAT      O 9118   4.599   3.293   8.239
 2959WAT     H1 9119   4.543   3.210   8.239
 2959WAT     H2 9120   4.571   3.353   8.165
 2960WAT      O 9121   5.840   8.047   2.002
 2960WAT     H1 9122   5.891   8.130   2.020
 2960WAT     H2 9123   5.861   8.015   1.909
 2961WAT      O 9124   6.871   2.342   4.138
 2961WAT     H1 9125   6.871   2.364   4.236
 2961WAT     H2 9126   6.885   2.425   4.085
 2962WAT      O 9127   3.846   6.974   0.756
 2962WAT     H1 9128   3.900   6.978   0.840
 2962WAT     H2 9129   3.893   7.026   0.684
 2963WAT      O 9130   6.567   3.437   3.461
 2963WAT     H1 9131   6.527   3.519   3.420
 2963WAT     H2 9132   6.593   3.457   3.556
 2964WAT      O 9133   1.395   3.611   2.109
 2964WAT     H1 9134   1.371   3.525   2.064
 2964WAT     H2 9135   1.312   3.657   2.139
 2965WAT      O 9136   7.559   7.046   6.997
 2965WAT     H1 9137   7.638   7.009   6.949
 2965WAT     H2 9138   7.507   6.972   7.040
 2966WAT      O 9139   1.254   0.045   6.568
 2966WAT     H1 9140   1.217   0.085   6.484
 2966WAT     H2 9141   1.195  -0.030   6.599
 2967WAT      O 9142   3.925   4.737   5.814
 2967WAT     H1 9143   3.892   4.777   5.729
 2967WAT     H2 9144   3.903   4.639   5.815
 2968WAT      O 9145   8.116   6.364   2.816
 2968WAT     H1 9146   8.153   6.457   2.814
 2968WAT     H2 9147   8.022   6.365   2.780
 2969WAT      O 9148   1.426   4.616   4.355
 2969WAT     H1 9149   1.517   4.574   4.358
 2969WAT     H2 9150   1.427   4.690   4.287
 2970WAT      O 9151   4.781   9.421   0.901
 2970WAT     H1 9152   4.713   9.360   0.863
 2970WAT     H2 9153   4.743   9.514   0.908
 2971WAT      O 9154   1.272   1.763   1.913
 2971WAT     H1 9155   1.333   1.836   1.879
 2971WAT     H2 9156   1.222   1.797   1.993
 2972WAT      O 9157   1.111   1.383   5.140
 2972WAT     H1 9158   1.075   1.315   5.076
 2972WAT     H2 9159   1.211   1.378   5.141
 2973WAT      O 9160   3.712   2.383   7.787
 2973WAT     H1 9161   3.620   2.408   7.817
 2973WAT     H2 9162   3.758   2.333   7.861
 2974WAT      O 9163   3.308   7.439   9.086
 2974WAT     H1 9164   3.289   7.403   9.177
 2974WAT     H2 9165   3.225   7.431   9.030
 2975WAT      O 9166   5.917   4.767   9.838
 2975WAT     H1 9167   5.981   4.735   9.908
 2975WAT     H2 9168   5.922   4.706   9.759
 2976WAT      O 9169   9.196   7.142   6.666
 2976WAT     H1 9170   9.192   7.212   6.594
 2976WAT     H2 9171   9.291   7.129   6.694
 2977WAT      O 9172   8.355   9.586   0.947
 2977WAT     H1 9173   8.452   9.586   0.920
 2977WAT     H2 9174   8.312   9.672   0.921
 2978WAT      O 9175   9.668   7.691   8.809
 2978WAT     H1 9176   9.689   7.754   8.884
 2978WAT     H2 9177   9.752   7.661   8.766
 2979WAT      O 9178   9.173   7.561   3.188
 2979WAT     H1 9179   9.147   7.503   3.110
 2979WAT     H2 9180   9.238   7.630   3.158
 2980WAT      O 9181   7.670   4.888   3.047
 2980WAT     H1 9182   7.669   4.868   3.145
 2980WAT     H2 9183   7.621   4.816   2.998
 2981WAT      O 9184   8.937   8.526   0.697
 2981WAT     H1 9185   8.909   8.437   0.734
 2981WAT     H2 9186   8.930   8.596   0.768
 2982WAT      O 9187   1.155   2.154   1.545
 2982WAT     H1 9188   1.135   2.221   1.616
 2982WAT     H2 9189   1.069   2.117   1.509
 2983WAT      O 9190   8.918   3.177   2.538
 2983WAT     H1 9191   8.865   3.161   2.455
 2983WAT     H2 9192   8.924   3.093   2.591
 2984WAT      O 9193   1.201   4.347   3.125
 2984WAT     H1 9194   1.273   4.277   3.130
 2984WAT     H2 9195   1.243   4.437   3.135
 2985WAT      O 9196   1.422   3.519   1.140
 2985WAT     H1 9197   1.400   3.454   1.068
 2985WAT     H2 9198   1.337   3.557   1.177
 2986WAT      O 9199   6.760   4.268   9.566
 2986WAT     H1 9200   6.669   4.309   9.569
 2986WAT     H2 9201   6.762   4.189   9.628
 2987WAT      O 9202   2.570   8.594   9.206
 2987WAT     H1 9203   2.510   8.593   9.127
 2987WAT     H2 9204   2.565   8.507   9.253
 2988WAT      O 9205   6.740   9.247   3.838
 2988WAT     H1 9206   6.676   9.179   3.874
 2988WAT     H2 9207   6.792   9.288   3.913
 2989WAT      O 9208   7.369   9.330   4.828
 2989WAT     H1 9209   7.400   9.238   4.851
 2989WAT     H2 9210   7.331   9.329   4.736
 2990WAT      O 9211   7.025   6.535   6.065
 2990WAT     H1 9212   6.955   6.603   6.042
 2990WAT     H2 9213   7.079   6.569   6.143
 2991WAT      O 9214   5.755   3.191   0.260
 2991WAT     H1 9215   5.714   3.107   0.295
 2991WAT     H2 9216   5.686   3.263   0.255
 2992WAT      O 9217   8.836   7.104   8.413
 2992WAT     H1 9218   8.798   7.194   8.391
 2992WAT     H2 9219   8.934   7.103   8.396
 2993WAT      O 9220   1.270   3.972   3.711
 2993WAT     H1 9221   1.193   3.920   3.747
 2993WAT     H2 9222   1.243   4.067   3.694
 2994WAT      O 9223   9.682   2.444   2.186
 2994WAT     H1 9224   9.754   2.459   2.118
 2994WAT     H2 9225   9.599   2.414   2.139
 2995WAT      O 9226   0.852   2.881   1.681
 2995WAT     H1 9227   0.791   2.801   1.679
 2995WAT     H2 9228   0.886   2.895   1.774
 2996WAT      O 9229   2.958   0.498   8.514
 2996WAT     H1 9230   2.880   0.512   8.574
 2996WAT     H2 9231   2.955   0.563   8.438
 2997WAT      O 9232   7.325   8.045   4.365
 2997WAT     H1 9233   7.241   8.013   4.409
 2997WAT     H2 9234   7.401   8.041   4.431
 2998WAT      O 9235   2.026   7.455   5.263
 2998WAT     H1 9236   2.097   7.427   5.198
 2998WAT     H2 9237   1.936   7.431   5.227
 2999WAT      O 9238   7.914   3.016   8.582
 2999WAT     H1 9239   7.922   3.097   8.641
 2999WAT     H2 9240   7.941   3.040   8.489
 3000WAT      O 9241   9.320   1.059   1.702
 3000WAT     H1 9242   9.369   0.988   1.752
 3000WAT     H2 9243   9.385   1.120   1.657
 3001WAT      O 9244   3.827   2.310   6.561
 3001WAT     H1 9245   3.732   2.297   6.532
 3001WAT     H2 9246   3.866   2.389   6.513
 3002WAT      O 9247   4.830   7.072   6.080
 3002WAT     H1 9248   4.894   7.007   6.121
 3002WAT     H2 9249   4.821   7.053   5.982
 3003WAT      O 9250   5.999   2.438   0.658
 3003WAT     H1 9251   5.975   2.358   0.603
 3003WAT     H2 9252   6.067   2.493   0.609
 3004WAT      O 9253   5.386   8.385   1.292
 3004WAT     H1 9254   5.481   8.412   1.279
 3004WAT     H2 9255   5.356   8.409   1.384
 3005WAT      O 9256   5.738   7.793   8.384
 3005WAT     H1 9257   5.640   7.805   8.398
 3005WAT     H2 9258   5.783   7.778   8.472
 3006WAT      O 9259   3.156   2.546   5.204
 3006WAT     H1 9260   3.156   2.510   5.297
 3006WAT     H2 9261   3.208   2.631   5.201
 3007WAT      O 9262   9.673   8.563   7.996
 3007WAT     H1 9263   9.587   8.538   8.041
 3007WAT     H2 9264   9.698   8.493   7.929
 3008WAT      O 9265   1.485   4.997   5.583
 3008WAT     H1 9266   1.431   5.062   5.635
 3008WAT     H2 9267   1.450   4.991   5.489
 3009WAT      O 9268   1.353   0.843   7.850
 3009WAT     H1 9269   1.269   0.805   7.811
 3009WAT     H2 9270   1.363   0.810   7.944
 3010WAT      O 9271   3.117   1.886   1.277
 3010WAT     H1 9272   3.139   1.895   1.375
 3010WAT     H2 9273   3.075   1.971   1.245
 3011WAT      O 9274   4.791   8.253   5.210
 3011WAT     H1 9275   4.693   8.268   5.204
 3011WAT     H2 9276   4.823   8.271   5.303
 3012WAT      O 9277   2.684   5.011   1.268
 3012WAT     H1 9278   2.682   5.104   1.229
 3012WAT     H2 9279   2.716   4.947   1.199
 3013WAT      O 9280   1.795   6.510   7.490
 3013WAT     H1 9281   1.715   6.557   7.526
 3013WAT     H2 9282   1.766   6.437   7.428
 3014WAT      O 9283   3.491   3.181   6.339
 3014WAT     H1 9284   3.462   3.264   6.386
 3014WAT     H2 9285   3.574   3.200   6.287
 3015WAT      O 9286   1.103   7.809   0.062
 3015WAT     H1 9287   1.032   7.812   0.133
 3015WAT     H2 9288   1.123   7.902   0.031
 3016WAT      O 9289   5.507   4.592   6.651
 3016WAT     H1 9290   5.413   4.581   6.619
 3016WAT     H2 9291   5.570   4.568   6.577
 3017WAT      O 9292   2.254   1.749   4.711
 3017WAT     H1 9293   2.253   1.649   4.709
 3017WAT     H2 9294   2.348   1.782   4.723
 3018WAT      O 9295   0.382   0.132   0.345
 3018WAT     H1 9296   0.329   0.165   0.423
 3018WAT     H2 9297   0.330   0.062   0.296
 3019WAT      O 9298   1.423   2.601   2.359
 3019WAT     H1 9299   1.413   2.697   2.331
 3019WAT     H2 9300   1.446   2.597   2.456
 3020WAT      O 9301   3.719   7.988   5.429
 3020WAT     H1 9302   3.720   8.087   5.445
 3020WAT     H2 9303   3.730   7.940   5.516
 3021WAT      O 9304   8.540   3.340   8.162
 3021WAT     H1 9305   8.455   3.392   8.167
 3021WAT     H2 9306   8.531   3.256   8.216
 3022WAT      O 9307   4.655   3.882   6.955
 3022WAT     H1 9308   4.621   3.930   6.874
 3022WAT     H2 9309   4.603   3.798   6.969
 3023WAT      O 9310   0.154   4.249   5.391
 3023WAT     H1 9311   0.165   4.344   5.418
 3023WAT     H2 9312   0.058   4.231   5.371
 3024WAT      O 9313   5.891   2.497   4.254
 3024WAT     H1 9314   5.914   2.519   4.348
 3024WAT     H2 9315   5.928   2.408   4.229
 3025WAT      O 9316  -0.000   0.725   9.490
 3025WAT     H1 9317   0.042   0.641   9.458
 3025WAT     H2 9318   0.065   0.776   9.547
 3026WAT      O 9319   8.593   9.290   6.718
 3026WAT     H1 9320   8.575   9.211   6.658
 3026WAT     H2 9321   8.683   9.328   6.698
 3027WAT      O 9322   1.985   6.184   4.784
 3027WAT     H1 9323   1.975   6.270   4.734
 3027WAT     H2 9324   1.915   6.179   4.856
 3028WAT      O 9325   1.079   3.828   7.539
 3028WAT     H1 9326   1.151   3.771   7.498
 3028WAT     H2 9327   1.116   3.917   7.565
 3029WAT      O 9328   6.123   2.190   6.880
 3029WAT     H1 9329   6.051   2.121   6.887
 3029WAT     H2 9330   6.085   2.280   6.905
 3030WAT      O 9331   6.783   8.617   7.478
 3030WAT     H1 9332   6.788   8.590   7.381
 3030WAT     H2 9333   6.699   8.581   7.518
 3031WAT      O 9334   4.946   5.312   7.687
 3031WAT     H1 9335   4.931   5.285   7.782
 3031WAT     H2 9336   4.859   5.312   7.638
 3032WAT      O 9337   4.435   5.473   0.778
 3032WAT     H1 9338   4.354   5.424   0.809
 3032WAT     H2 9339   4.489   5.502   0.857
 3033WAT      O 9340   9.518   4.837   4.961
 3033WAT     H1 9341   9.486   4.754   5.006
 3033WAT     H2 9342   9.451   4.910   4.975
 3034WAT      O 9343   0.424   3.876   7.940
 3034WAT     H1 9344   0.507   3.831   7.907
 3034WAT     H2 9345   0.383   3.821   8.013
 3035WAT      O 9346   0.937   0.294   2.162
 3035WAT     H1 9347   0.969   0.383   2.130
 3035WAT     H2 9348   0.999   0.260   2.233
 3036WAT      O 9349   9.664   6.209   8.518
 3036WAT     H1 9350   9.667   6.209   8.618
 3036WAT     H2 9351   9.706   6.292   8.482
 3037WAT      O 9352   0.075   6.561   5.066
 3037WAT     H1 9353   0.075   6.630   5.138
 3037WAT     H2 9354   0.152   6.499   5.079
 3038WAT      O 9355   5.856   9.269   1.799
 3038WAT     H1 9356   5.917   9.342   1.765
 3038WAT     H2 9357   5.894   9.230   1.883
 3039WAT      O 9358   5.049   5.918   0.008
 3039WAT     H1 9359   5.061   6.012   0.039
 3039WAT     H2 9360   5.105   5.857   0.063
 3040WAT      O 9361   9.667   7.417   8.327
 3040WAT     H1 9362   9.692   7.489   8.392
 3040WAT     H2 9363   9.568   7.408   8.325
 3041WAT      O 9364   1.978   6.993   5.107
 3041WAT     H1 9365   1.989   7.063   5.037
 3041WAT     H2 9366   2.042   7.011   5.182
 3042WAT      O 9367   8.494   6.931   1.506
 3042WAT     H1 9368   8.522   6.910   1.599
 3042WAT     H2 9369   8.424   6.866   1.476
 3043WAT      O 9370   5.455   8.103   4.554
 3043WAT     H1 9371   5.460   8.161   4.473
 3043WAT     H2 9372   5.515   8.140   4.625
 3044WAT      O 9373   3.428   1.677   7.329
 3044WAT     H1 9374   3.433   1.748   7.399
 3044WAT     H2 9375   3.497   1.607   7.347
 3045WAT      O 9376   5.836   9.276   0.864
 3045WAT     H1 9377   5.787   9.334   0.930
 3045WAT     H2 9378   5.908   9.225   0.912
 3046WAT      O 9379   3.469   1.374   6.782
 3046WAT     H1 9380   3.495   1.323   6.700
 3046WAT     H2 9381   3.455   1.470   6.759
 3047WAT      O 9382   3.240   1.679   0.598
 3047WAT     H1 9383   3.199   1.768   0.618
 3047WAT     H2 9384   3.185   1.606   0.638
 3048WAT      O 9385   1.720   3.007   2.686
 3048WAT     H1 9386   1.719   3.100   2.649
 3048WAT     H2 9387   1.697   2.942   2.613
 3049WAT      O 9388   1.027   2.349   5.768
 3049WAT     H1 9389   1.093   2.310   5.704
 3049WAT     H2 9390   0.954   2.282   5.785
 3050WAT      O 9391   0.067   2.602   5.906
 3050WAT     H1 9392  -0.002   2.644   5.847
 3050WAT     H2 9393   0.041   2.508   5.925
 3051WAT      O 9394   2.627   2.700   9.312
 3051WAT     H1 9395   2.643   2.785   9.361
 3051WAT     H2 9396   2.638   2.623   9.375
 3052WAT      O 9397   9.257   4.613   3.656
 3052WAT     H1 9398   9.240   4.685   3.589
 3052WAT     H2 9399   9.177   4.554   3.662
 3053WAT      O 9400   2.543   2.388   5.794
 3053WAT     H1 9401   2.626   2.418   5.746
 3053WAT     H2 9402   2.502   2.467   5.840
 3054WAT      O 9403   0.070   9.540   4.145
 3054WAT     H1 9404   0.070   9.592   4.230
 3054WAT     H2 9405  -0.014   9.487   4.138
 3055WAT      O 9406   3.719   3.843   7.734
 3055WAT     H1 9407   3.679   3.793   7.658
 3055WAT     H2 9408   3.740   3.937   7.706
 3056WAT      O 9409   1.113   7.090   0.778
 3056WAT     H1 9410   1.053   7.144   0.718
 3056WAT     H2 9411   1.060   7.054   0.854
 3057WAT      O 9412   9.178   3.224   7.860
 3057WAT     H1 9413   9.196   3.309   7.909
 3057WAT     H2 9414   9.238   3.152   7.895
 3058WAT      O 9415   9.103   2.958   8.307
 3058WAT     H1 9416   9.190   2.991   8.342
 3058WAT     H2 9417   9.078   2.873   8.353
 3059WAT      O 9418   4.703   2.576   0.208
 3059WAT     H1 9419   4.723   2.485   0.172
 3059WAT     H2 9420   4.759   2.593   0.290
 3060WAT      O 9421   6.527   6.418   0.274
 3060WAT     H1 9422   6.586   6.489   0.234
 3060WAT     H2 9423   6.472   6.458   0.347
 3061WAT      O 9424   5.668   0.795   9.326
 3061WAT     H1 9425   5.699   0.882   9.365
 3061WAT     H2 9426   5.595   0.811   9.260
 3062WAT      O 9427   9.228   2.179   0.851
 3062WAT     H1 9428   9.250   2.085   0.824
 3062WAT     H2 9429   9.149   2.178   0.913
 3063WAT      O 9430   7.942   5.959   9.126
 3063WAT     H1 9431   7.985   6.047   9.107
 3063WAT     H2 9432   7.927   5.909   9.040
 3064WAT      O 9433   1.571   0.173   3.921
 3064WAT     H1 9434   1.512   0.241   3.878
 3064WAT     H2 9435   1.567   0.184   4.021
 3065WAT      O 9436   1.627   2.837   8.232
 3065WAT     H1 9437   1.620   2.764   8.300
 3065WAT     H2 9438   1.645   2.797   8.142
 3066WAT      O 9439   7.321   1.624   1.113
 3066WAT     H1 9440   7.252   1.602   1.043
 3066WAT     H2 9441   7.280   1.683   1.183
 3067WAT      O 9442   3.426   8.674   3.178
 3067WAT     H1 9443   3.362   8.659   3.102
 3067WAT     H2 9444   3.427   8.771   3.201
 3068WAT      O 9445   2.211   9.343   9.658
 3068WAT     H1 9446   2.201   9.278   9.582
 3068WAT     H2 9447   2.212   9.436   9.622
 3069WAT      O 9448   8.344   3.679   6.672
 3069WAT     H1 9449   8.302   3.727   6.595
 3069WAT     H2 9450   8.333   3.734   6.755
 3070WAT      O 9451   2.729   9.212   2.519
 3070WAT     H1 9452   2.661   9.152   2.562
 3070WAT     H2 9453   2.764   9.169   2.436
 3071WAT      O 9454   1.933   6.711   3.814
 3071WAT     H1 9455   1.904   6.803   3.842
 3071WAT     H2 9456   1.962   6.714   3.718
 3072WAT      O 9457   2.198   6.587   2.464
 3072WAT     H1 9458   2.293   6.591   2.494
 3072WAT     H2 9459   2.170   6.677   2.430
 3073WAT      O 9460   4.158   4.142   7.984
 3073WAT     H1 9461   4.118   4.053   8.004
 3073WAT     H2 9462   4.150   4.201   8.064
 3074WAT      O 9463   2.351   3.226   0.096
 3074WAT     H1 9464   2.345   3.270   0.186
 3074WAT     H2 9465   2.293   3.145   0.095
 3075WAT      O 9466   7.203   4.516   4.650
 3075WAT     H1 9467   7.117   4.467   4.636
 3075WAT     H2 9468   7.279   4.452   4.646
 3076WAT      O 9469   5.866   6.940   7.537
 3076WAT     H1 9470   5.954   6.899   7.514
 3076WAT     H2 9471   5.827   6.892   7.616
 3077WAT      O 9472   6.642   5.939   4.740
 3077WAT     H1 9473   6.627   5.857   4.684
 3077WAT     H2 9474   6.598   5.926   4.829
 3078WAT      O 9475   2.175   0.736   1.936
 3078WAT     H1 9476   2.193   0.651   1.885
 3078WAT     H2 9477   2.099   0.721   1.999
 3079WAT      O 9478   6.352   3.992   7.613
 3079WAT     H1 9479   6.349   4.092   7.616
 3079WAT     H2 9480   6.259   3.956   7.602
 3080WAT      O 9481   6.204   2.268   0.432
 3080WAT     H1 9482   6.272   2.334   0.465
 3080WAT     H2 9483   6.243   2.176   0.438
 3081WAT      O 9484   3.356   7.122   3.588
 3081WAT     H1 9485   3.406   7.182   3.524
 3081WAT     H2 9486   3.418   7.050   3.620
 3082WAT      O 9487   5.710   3.040   5.448
 3082WAT     H1 9488   5.702   3.099   5.528
 3082WAT     H2 9489   5.798   3.056   5.404
 3083WAT      O 9490   7.890   7.214   5.966
 3083WAT     H1 9491   7.870   7.133   6.022
 3083WAT     H2 9492   7.818   7.282   5.981
 3084WAT      O 9493   1.896   7.659   8.775
 3084WAT     H1 9494   1.943   7.589   8.721
 3084WAT     H2 9495   1.943   7.747   8.764
 3085WAT      O 9496   2.429   7.737   5.493
 3085WAT     H1 9497   2.384   7.734   5.583
 3085WAT     H2 9498   2.478   7.652   5.478
 3086WAT      O 9499   9.295   5.440   4.438
 3086WAT     H1 9500   9.373   5.428   4.499
 3086WAT     H2 9501   9.318   5.406   4.347
 3087WAT      O 9502   1.542   8.545   6.163
 3087WAT     H1 9503   1.542   8.643   6.185
 3087WAT     H2 9504   1.475   8.527   6.091
 3088WAT      O 9505   6.633   4.046   5.850
 3088WAT     H1 9506   6.652   4.135   5.808
 3088WAT     H2 9507   6.635   3.975   5.779
 3089WAT      O 9508   3.658   0.579   0.941
 3089WAT     H1 9509   3.739   0.638   0.947
 3089WAT     H2 9510   3.640   0.538   1.030
 3090WAT      O 9511   1.839   8.071   0.674
 3090WAT     H1 9512   1.925   8.024   0.693
 3090WAT     H2 9513   1.771   8.043   0.742
 3091WAT      O 9514   5.555   1.484   4.600
 3091WAT     H1 9515   5.510   1.573   4.589
 3091WAT     H2 9516   5.575   1.446   4.510
 3092WAT      O 9517   1.454   9.486   8.979
 3092WAT     H1 9518   1.498   9.554   9.037
 3092WAT     H2 9519   1.357   9.482   9.000
 3093WAT      O 9520   9.626   4.650   0.031
 3093WAT     H1 9521   9.691   4.658   0.107
 3093WAT     H2 9522   9.554   4.585   0.055
 3094WAT      O 9523   6.045   2.647   6.730
 3094WAT     H1 9524   6.115   2.676   6.664
 3094WAT     H2 9525   5.955   2.656   6.689
 3095WAT      O 9526   1.322   8.913   3.394
 3095WAT     H1 9527   1.279   8.931   3.306
 3095WAT     H2 9528   1.306   8.817   3.420
 3096WAT      O 9529   0.173   2.234   8.360
 3096WAT     H1 9530   0.090   2.188   8.392
 3096WAT     H2 9531   0.191   2.314   8.419
 3097WAT      O 9532   8.207   1.460   5.771
 3097WAT     H1 9533   8.249   1.419   5.851
 3097WAT     H2 9534   8.226   1.405   5.690
 3098WAT      O 9535   4.545   5.015   8.484
 3098WAT     H1 9536   4.464   4.971   8.445
 3098WAT     H2 9537   4.556   5.106   8.446
 3099WAT      O 9538   5.265   4.731   0.006
 3099WAT     H1 9539   5.292   4.636   0.024
 3099WAT     H2 9540   5.212   4.765   0.082
 3100WAT      O 9541   3.979   5.823   8.793
 3100WAT     H1 9542   3.893   5.860   8.828
 3100WAT     H2 9543   3.989   5.728   8.822
 3101WAT      O 9544   4.464   7.480   7.950
 3101WAT     H1 9545   4.513   7.524   7.875
 3101WAT     H2 9546   4.530   7.437   8.013
 3102WAT      O 9547   0.466   1.768   0.540
 3102WAT     H1 9548   0.539   1.791   0.476
 3102WAT     H2 9549   0.453   1.669   0.541
 3103WAT      O 9550   7.910   4.131   3.916
 3103WAT     H1 9551   7.901   4.221   3.875
 3103WAT     H2 9552   7.826   4.079   3.902
 3104WAT      O 9553   0.740   1.047   8.941
 3104WAT     H1 9554   0.693   0.988   9.006
 3104WAT     H2 9555   0.815   1.095   8.987
 3105WAT      O 9556   1.402   5.905   2.414
 3105WAT     H1 9557   1.416   5.863   2.504
 3105WAT     H2 9558   1.437   5.845   2.343
 3106WAT      O 9559   2.434   2.753   7.685
 3106WAT     H1 9560   2.381   2.702   7.616
 3106WAT     H2 9561   2.531   2.730   7.676
 3107WAT      O 9562   3.332   8.699   2.370
 3107WAT     H1 9563   3.397   8.763   2.329
 3107WAT     H2 9564   3.240   8.736   2.364
 3108WAT      O 9565   7.058   1.979   3.678
 3108WAT     H1 9566   7.000   1.900   3.696
 3108WAT     H2 9567   7.082   1.983   3.581
 3109WAT      O 9568   4.429   1.262   1.058
 3109WAT     H1 9569   4.336   1.299   1.059
 3109WAT     H2 9570   4.426   1.164   1.040
 3110WAT      O 9571   8.638   4.301   3.482
 3110WAT     H1 9572   8.693   4.274   3.403
 3110WAT     H2 9573   8.597   4.390   3.464
 3111WAT      O 9574   2.260   2.090   1.422
 3111WAT     H1 9575   2.253   2.110   1.324
 3111WAT     H2 9576   2.251   1.992   1.437
 3112WAT      O 9577   0.348   9.556   0.360
 3112WAT     H1 9578   0.267   9.532   0.307
 3112WAT     H2 9579   0.347   9.506   0.447
 3113WAT      O 9580   9.157   4.739   8.601
 3113WAT     H1 9581   9.155   4.711   8.505
 3113WAT     H2 9582   9.118   4.830   8.610
 3114WAT      O 9583   3.551   0.604   7.603
 3114WAT     H1 9584   3.469   0.559   7.637
 3114WAT     H2 9585   3.619   0.535   7.579
 3115WAT      O 9586   7.820   2.695   3.202
 3115WAT     H1 9587   7.868   2.693   3.290
 3115WAT     H2 9588   7.801   2.602   3.171
 3116WAT      O 9589   7.628   6.723   5.158
 3116WAT     H1 9590   7.568   6.680   5.091
 3116WAT     H2 9591   7.719   6.682   5.153
 3117WAT      O 9592   8.922   9.784   3.507
 3117WAT     H1 9593   8.842   9.744   3.552
 3117WAT     H2 9594   9.000   9.784   3.570
 3118WAT      O 9595   6.001   3.083   4.483
 3118WAT     H1 9596   5.986   2.994   4.439
 3118WAT     H2 9597   5.967   3.155   4.424
 3119WAT      O 9598   6.470   5.954   2.283
 3119WAT     H1 9599   6.408   5.923   2.355
 3119WAT     H2 9600   6.558   5.977   2.323
 3120WAT      O 9601   6.372   7.727   7.141
 3120WAT     H1 9602   6.298   7.735   7.074
 3120WAT     H2 9603   6.336   7.690   7.227
 3121WAT      O 9604   3.538   3.264   9.675
 3121WAT     H1 9605   3.458   3.311   9.638
 3121WAT     H2 9606   3.621   3.307   9.640
 3122WAT      O 9607   3.970   4.460   0.659
 3122WAT     H1 9608   4.006   4.464   0.566
 3122WAT     H2 9609   3.986   4.370   0.698
 3123WAT      O 9610   9.637   8.641   1.632
 3123WAT     H1 9611   9.689   8.557   1.647
 3123WAT     H2 9612   9.667   8.712   1.695
 3124WAT      O 9613   3.450   6.519   9.163
 3124WAT     H1 9614   3.539   6.481   9.188
 3124WAT     H2 9615   3.459   6.617   9.147
 3125WAT      O 9616   7.858   8.717   3.251
 3125WAT     H1 9617   7.812   8.801   3.280
 3125WAT     H2 9618   7.825   8.691   3.160
 3126WAT      O 9619   6.373   4.982   6.559
 3126WAT     H1 9620   6.327   5.068   6.536
 3126WAT     H2 9621   6.313   4.927   6.616
 3127WAT      O 9622   6.123   6.014   7.430
 3127WAT     H1 9623   6.199   6.061   7.475
 3127WAT     H2 9624   6.067   6.080   7.381
 3128WAT      O 9625   1.131   2.744   6.337
 3128WAT     H1 9626   1.105   2.811   6.268
 3128WAT     H2 9627   1.093   2.655   6.313
 3129WAT      O 9628   7.417   4.321   7.089
 3129WAT     H1 9629   7.490   4.272   7.042
 3129WAT     H2 9630   7.426   4.309   7.187
 3130WAT      O 9631   4.271   3.977   1.829
 3130WAT     H1 9632   4.225   4.046   1.774
 3130WAT     H2 9633   4.324   4.021   1.901
 3131WAT      O 9634   3.955   4.539   6.073
 3131WAT     H1 9635   3.898   4.537   6.155
 3131WAT     H2 9636   3.982   4.634   6.054
 3132WAT      O 9637   0.240   9.631   7.178
 3132WAT     H1 9638   0.339   9.630   7.166
 3132WAT     H2 9639   0.214   9.561   7.244
 3133WAT      O 9640   5.739   6.956   0.829
 3133WAT     H1 9641   5.836   6.978   0.825
 3133WAT     H2 9642   5.686   7.041   0.833
 3134WAT      O 9643   1.303   5.880   9.437
 3134WAT     H1 9644   1.255   5.826   9.505
 3134WAT     H2 9645   1.402   5.862   9.444
 3135WAT      O 9646   2.022   8.881   7.139
 3135WAT     H1 9647   1.963   8.803   7.162
 3135WAT     H2 9648   2.022   8.893   7.040
 3136WAT      O 9649   9.404   3.066   6.343
 3136WAT     H1 9650   9.308   3.065   6.314
 3136WAT     H2 9651   9.463   3.052   6.264
 3137WAT      O 9652   3.896   7.413   7.417
 3137WAT     H1 9653   3.933   7.377   7.503
 3137WAT     H2 9654   3.948   7.494   7.390
 3138WAT      O 9655   7.584   4.686   9.374
 3138WAT     H1 9656   7.526   4.707   9.453
 3138WAT     H2 9657   7.664   4.635   9.404
 3139WAT      O 9658   7.029   8.390   9.877
 3139WAT     H1 9659   6.935   8.379   9.845
 3139WAT     H2 9660   7.058   8.485   9.865
 3140WAT      O 9661   4.920   0.053   4.769
 3140WAT     H1 9662   4.933   0.137   4.717
 3140WAT     H2 9663   4.912   0.075   4.866
 3141WAT      O 9664   1.205   3.048   4.049
 3141WAT     H1 9665   1.125   3.043   3.990
 3141WAT     H2 9666   1.285   3.071   3.994
 3142WAT      O 9667   7.645   4.669   4.741
 3142WAT     H1 9668   7.554   4.687   4.779
 3142WAT     H2 9669   7.636   4.613   4.659
 3143WAT      O 9670   7.772   9.708   4.786
 3143WAT     H1 9671   7.704   9.782   4.782
 3143WAT     H2 9672   7.726   9.624   4.814
 3144WAT      O 9673   1.415   9.520   5.936
 3144WAT     H1 9674   1.411   9.437   5.880
 3144WAT     H2 9675   1.415   9.495   6.032
 3145WAT      O 9676   5.771   2.891   9.716
 3145WAT     H1 9677   5.829   2.812   9.735
 3145WAT     H2 9678   5.709   2.870   9.640
 3146WAT      O 9679   7.707   4.255   6.603
 3146WAT     H1 9680   7.713   4.346   6.561
 3146WAT     H2 9681   7.632   4.204   6.562
 3147WAT      O 9682   4.610   2.114   6.394
 3147WAT     H1 9683   4.639   2.189   6.454
 3147WAT     H2 9684   4.661   2.031   6.418
 3148WAT      O 9685   2.946   5.050   6.702
 3148WAT     H1 9686   2.887   5.109   6.757
 3148WAT     H2 9687   3.035   5.092   6.692
 3149WAT      O 9688   1.378   6.747   8.539
 3149WAT     H1 9689   1.475   6.755   8.561
 3149WAT     H2 9690   1.323   6.761   8.621
 3150WAT      O 9691   0.153   9.086   4.364
 3150WAT     H1 9692   0.193   9.001   4.331
 3150WAT     H2 9693   0.225   9.153   4.380
 3151WAT      O 9694   0.146   8.038   5.681
 3151WAT     H1 9695   0.129   8.130   5.647
 3151WAT     H2 9696   0.126   8.035   5.779
 3152WAT      O 9697   0.918   5.423   3.176
 3152WAT     H1 9698   0.921   5.331   3.138
 3152WAT     H2 9699   0.996   5.437   3.237
 3153WAT      O 9700   1.201   5.936   3.878
 3153WAT     H1 9701   1.176   5.858   3.821
 3153WAT     H2 9702   1.265   5.906   3.949
 3154WAT      O 9703   5.317   7.494   9.339
 3154WAT     H1 9704   5.385   7.536   9.400
 3154WAT     H2 9705   5.269   7.566   9.289
 3155WAT      O 9706   7.873   3.795   3.778
 3155WAT     H1 9707   7.843   3.770   3.686
 3155WAT     H2 9708   7.812   3.865   3.815
 3156WAT      O 9709   8.905   1.306   8.821
 3156WAT     H1 9710   8.829   1.250   8.854
 3156WAT     H2 9711   8.990   1.276   8.865
 3157WAT      O 9712   6.400   8.855   0.962
 3157WAT     H1 9713   6.326   8.852   0.895
 3157WAT     H2 9714   6.473   8.793   0.934
 3158WAT      O 9715  -0.004   4.574   4.574
 3158WAT     H1 9716   0.070   4.586   4.640
 3158WAT     H2 9717   0.002   4.644   4.503
 3159WAT      O 9718   3.342   7.313   1.411
 3159WAT     H1 9719   3.243   7.302   1.402
 3159WAT     H2 9720   3.388   7.256   1.343
 3160WAT      O 9721   7.470   2.382   1.568
 3160WAT     H1 9722   7.429   2.362   1.657
 3160WAT     H2 9723   7.567   2.400   1.579
 3161WAT      O 9724   0.816   8.773   6.312
 3161WAT     H1 9725   0.911   8.790   6.287
 3161WAT     H2 9726   0.813   8.725   6.400
 3162WAT      O 9727   4.252   4.863   3.425
 3162WAT     H1 9728   4.184   4.831   3.360
 3162WAT     H2 9729   4.342   4.865   3.381
 3163WAT      O 9730   6.381   8.949   5.484
 3163WAT     H1 9731   6.293   8.969   5.440
 3163WAT     H2 9732   6.451   8.935   5.414
 3164WAT      O 9733   0.194   4.485   5.681
 3164WAT     H1 9734   0.209   4.493   5.582
 3164WAT     H2 9735   0.197   4.576   5.722
 3165WAT      O 9736   4.222   3.293   1.385
 3165WAT     H1 9737   4.226   3.268   1.288
 3165WAT     H2 9738   4.301   3.351   1.408
 3166WAT      O 9739   0.789   0.643   0.890
 3166WAT     H1 9740   0.823   0.735   0.912
 3166WAT     H2 9741   0.716   0.619   0.953
 3167WAT      O 9742   0.926   5.589   9.011
 3167WAT     H1 9743   0.890   5.496   9.004
 3167WAT     H2 9744   0.948   5.610   9.106
 3168WAT      O 9745   5.276   7.903   7.016
 3168WAT     H1 9746   5.227   7.858   7.091
 3168WAT     H2 9747   5.260   7.852   6.931
 3169WAT      O 9748   9.195   3.651   7.411
 3169WAT     H1 9749   9.185   3.740   7.455
 3169WAT     H2 9750   9.118   3.592   7.437
 3170WAT      O 9751   0.381   6.427   0.601
 3170WAT     H1 9752   0.373   6.363   0.678
 3170WAT     H2 9753   0.366   6.378   0.516
 3171WAT      O 9754   4.775   3.224   2.212
 3171WAT     H1 9755   4.826   3.138   2.207
 3171WAT     H2 9756   4.776   3.269   2.122
 3172WAT      O 9757   8.410   1.548   1.443
 3172WAT     H1 9758   8.421   1.506   1.533
 3172WAT     H2 9759   8.401   1.477   1.373
 3173WAT      O 9760   8.707   6.082   6.125
 3173WAT     H1 9761   8.690   6.030   6.208
 3173WAT     H2 9762   8.638   6.059   6.056
 3174WAT      O 9763   1.965   6.611   7.978
 3174WAT     H1 9764   2.062   6.630   7.993
 3174WAT     H2 9765   1.949   6.512   7.982
 3175WAT      O 9766   6.732   4.531   9.280
 3175WAT     H1 9767   6.675   4.610   9.297
 3175WAT     H2 9768   6.824   4.547   9.318
 3176WAT      O 9769   8.223   3.258   9.160
 3176WAT     H1 9770   8.295   3.191   9.177
 3176WAT     H2 9771   8.134   3.219   9.187
 3177WAT      O 9772   2.706   7.672   6.284
 3177WAT     H1 9773   2.674   7.594   6.230
 3177WAT     H2 9774   2.637   7.696   6.353
 3178WAT      O 9775   1.414   9.266   3.984
 3178WAT     H1 9776   1.413   9.236   3.889
 3178WAT     H2 9777   1.477   9.342   3.995
 3179WAT      O 9778   8.903   8.713   8.755
 3179WAT     H1 9779   8.838   8.641   8.731
 3179WAT     H2 9780   8.983   8.672   8.799
 3180WAT      O 9781   6.645   2.172   0.920
 3180WAT     H1 9782   6.595   2.229   0.985
 3180WAT     H2 9783   6.589   2.093   0.895
 3181WAT      O 9784   3.921   0.585   2.737
 3181WAT     H1 9785   3.897   0.670   2.690
 3181WAT     H2 9786   3.840   0.546   2.781
 3182WAT      O 9787   7.362   1.300   4.031
 3182WAT     H1 9788   7.298   1.376   4.019
 3182WAT     H2 9789   7.402   1.275   3.943
 3183WAT      O 9790   7.863   6.557   7.880
 3183WAT     H1 9791   7.919   6.615   7.940
 3183WAT     H2 9792   7.787   6.519   7.932
 3184WAT      O 9793   3.539   4.013   0.400
 3184WAT     H1 9794   3.471   4.054   0.339
 3184WAT     H2 9795   3.492   3.956   0.468
 3185WAT      O 9796   5.126   1.883   4.862
 3185WAT     H1 9797   5.195   1.911   4.795
 3185WAT     H2 9798   5.138   1.786   4.885
 3186WAT      O 9799   0.835   2.473   5.107
 3186WAT     H1 9800   0.851   2.572   5.107
 3186WAT     H2 9801   0.916   2.426   5.142
 3187WAT      O 9802   8.576   1.988   9.263
 3187WAT     H1 9803   8.523   2.024   9.340
 3187WAT     H2 9804   8.669   1.968   9.293
 3188WAT      O 9805   3.373   1.273   9.038
 3188WAT     H1 9806   3.466   1.255   9.070
 3188WAT     H2 9807   3.344   1.198   8.978
 3189WAT      O 9808   0.614   7.998   9.786
 3189WAT     H1 9809   0.594   7.989   9.884
 3189WAT     H2 9810   0.596   7.911   9.740
 3190WAT      O 9811   8.307   6.316   1.882
 3190WAT     H1 9812   8.287   6.382   1.954
 3190WAT     H2 9813   8.400   6.332   1.848
 3191WAT      O 9814   2.410   1.539   5.669
 3191WAT     H1 9815   2.451   1.485   5.743
 3191WAT     H2 9816   2.312   1.521   5.666
 3192WAT      O 9817   5.801   2.271   1.893
 3192WAT     H1 9818   5.816   2.172   1.888
 3192WAT     H2 9819   5.872   2.317   1.840
 3193WAT      O 9820   8.090   0.380   3.375
 3193WAT     H1 9821   8.149   0.436   3.434
 3193WAT     H2 9822   7.995   0.409   3.386
 3194WAT      O 9823   5.161   4.989   1.974
 3194WAT     H1 9824   5.126   4.948   2.059
 3194WAT     H2 9825   5.227   5.061   1.996
 3195WAT      O 9826   5.138   8.724   8.500
 3195WAT     H1 9827   5.204   8.668   8.551
 3195WAT     H2 9828   5.072   8.664   8.454
 3196WAT      O 9829   8.379   8.633   4.549
 3196WAT     H1 9830   8.279   8.632   4.557
 3196WAT     H2 9831   8.412   8.540   4.530
 3197WAT      O 9832   2.555   2.935   5.963
 3197WAT     H1 9833   2.609   2.861   6.004
 3197WAT     H2 9834   2.506   2.984   6.035
 3198WAT      O 9835   8.306   0.259   3.785
 3198WAT     H1 9836   8.287   0.355   3.765
 3198WAT     H2 9837   8.345   0.216   3.703
 3199WAT      O 9838   1.560   1.285   4.379
 3199WAT     H1 9839   1.622   1.216   4.415
 3199WAT     H2 9840   1.491   1.241   4.322
 3200WAT      O 9841   3.031   5.711   2.725
 3200WAT     H1 9842   3.031   5.698   2.825
 3200WAT     H2 9843   2.941   5.743   2.696
 3201WAT      O 9844   8.127   5.251   5.375
 3201WAT     H1 9845   8.032   5.268   5.400
 3201WAT     H2 9846   8.180   5.230   5.457
 3202WAT      O 9847   9.119   7.481   4.251
 3202WAT     H1 9848   9.118   7.385   4.278
 3202WAT     H2 9849   9.122   7.539   4.332
 3203WAT      O 9850   0.840   3.670   8.081
 3203WAT     H1 9851   0.840   3.735   8.005
 3203WAT     H2 9852   0.857   3.718   8.166
 3204WAT      O 9853   4.270   0.184   3.492
 3204WAT     H1 9854   4.205   0.160   3.420
 3204WAT     H2 9855   4.221   0.214   3.573
 3205WAT      O 9856   7.891   1.898   2.021
 3205WAT     H1 9857   7.878   1.802   2.046
 3205WAT     H2 9858   7.868   1.956   2.099
 3206WAT      O 9859   3.187   6.902   6.646
 3206WAT     H1 9860   3.132   6.985   6.645
 3206WAT     H2 9861   3.283   6.925   6.630
 3207WAT      O 9862   5.186   1.801   7.111
 3207WAT     H1 9863   5.133   1.864   7.054
 3207WAT     H2 9864   5.173   1.824   7.208
 3208WAT      O 9865   7.857   1.801   5.503
 3208WAT     H1 9866   7.913   1.720   5.488
 3208WAT     H2 9867   7.904   1.864   5.565
 3209WAT      O 9868   7.829   3.586   9.811
 3209WAT     H1 9869   7.765   3.651   9.771
 3209WAT     H2 9870   7.886   3.547   9.738
 3210WAT      O 9871   6.655   8.645   5.469
 3210WAT     H1 9872   6.599   8.630   5.551
 3210WAT     H2 9873   6.743   8.683   5.496
 3211WAT      O 9874   6.088   1.711   4.943
 3211WAT     H1 9875   5.995   1.746   4.938
 3211WAT     H2 9876   6.150   1.784   4.973
 3212WAT      O 9877   8.035   5.244   4.141
 3212WAT     H1 9878   7.967   5.309   4.175
 3212WAT     H2 9879   7.997   5.193   4.063
 3213WAT      O 9880   7.730   9.545   8.211
 3213WAT     H1 9881   7.739   9.473   8.141
 3213WAT     H2 9882   7.639   9.540   8.252
 3214WAT      O 9883   4.588   3.961   1.266
 3214WAT     H1 9884   4.681   3.924   1.256
 3214WAT     H2 9885   4.578   4.042   1.209
 3215WAT      O 9886   2.751   7.222   8.714
 3215WAT     H1 9887   2.683   7.174   8.658
 3215WAT     H2 9888   2.743   7.191   8.809
 3216WAT      O 9889   0.905   9.456   5.315
 3216WAT     H1 9890   0.979   9.523   5.311
 3216WAT     H2 9891   0.820   9.498   5.283
 3217WAT      O 9892   5.804   4.984   0.626
 3217WAT     H1 9893   5.778   4.998   0.531
 3217WAT     H2 9894   5.855   4.898   0.635
 3218WAT      O 9895   5.721   8.162   8.193
 3218WAT     H1 9896   5.653   8.172   8.120
 3218WAT     H2 9897   5.813   8.175   8.155
 3219WAT      O 9898   4.925   8.581   0.499
 3219WAT     H1 9899   4.987   8.659   0.502
 3219WAT     H2 9900   4.967   8.503   0.546
 3220WAT      O 9901   1.395   1.921   5.607
 3220WAT     H1 9902   1.471   1.970   5.651
 3220WAT     H2 9903   1.350   1.982   5.542
 3221WAT      O 9904   6.878   9.630   4.507
 3221WAT     H1 9905   6.778   9.623   4.499
 3221WAT     H2 9906   6.919   9.623   4.416
 3222WAT      O 9907   1.248   7.215   3.328
 3222WAT     H1 9908   1.327   7.163   3.297
 3222WAT     H2 9909   1.167   7.185   3.277
 3223WAT      O 9910   1.664   1.420   5.254
 3223WAT     H1 9911   1.705   1.350   5.313
 3223WAT     H2 9912   1.566   1.406   5.249
 3224WAT      O 9913   2.984   6.811   0.097
 3224WAT     H1 9914   3.049   6.850   0.032
 3224WAT     H2 9915   2.896   6.857   0.088
 3225WAT      O 9916   7.946   6.490   5.387
 3225WAT     H1 9917   7.984   6.399   5.373
 3225WAT     H2 9918   7.862   6.484   5.441
 3226WAT      O 9919   7.920   1.168   2.261
 3226WAT     H1 9920   7.975   1.099   2.214
 3226WAT     H2 9921   7.980   1.227   2.315
 3227WAT      O 9922   5.873   5.382   5.719
 3227WAT     H1 9923   5.841   5.319   5.789
 3227WAT     H2 9924   5.843   5.352   5.629
 3228WAT      O 9925   2.195   5.860   1.422
 3228WAT     H1 9926   2.176   5.773   1.468
 3228WAT     H2 9927   2.190   5.847   1.323
 3229WAT      O 9928   9.704   5.092   3.492
 3229WAT     H1 9929   9.632   5.122   3.554
 3229WAT     H2 9930   9.775   5.044   3.544
 3230WAT      O 9931   5.318   3.629   1.070
 3230WAT     H1 9932   5.327   3.532   1.046
 3230WAT     H2 9933   5.311   3.683   0.987
 3231WAT      O 9934   6.686   9.441   5.913
 3231WAT     H1 9935   6.627   9.454   5.834
 3231WAT     H2 9936   6.762   9.506   5.908
 3232WAT      O 9937   1.228   0.990   2.848
 3232WAT     H1 9938   1.142   0.954   2.811
 3232WAT     H2 9939   1.213   1.084   2.880
 3233WAT      O 9940   5.408   8.415   4.896
 3233WAT     H1 9941   5.328   8.366   4.931
 3233WAT     H2 9942   5.378   8.494   4.842
 3234WAT      O 9943   6.167   0.157   4.861
 3234WAT     H1 9944   6.088   0.180   4.805
 3234WAT     H2 9945   6.138   0.104   4.941
 3235WAT      O 9946   8.194   5.588   5.233
 3235WAT     H1 9947   8.253   5.657   5.193
 3235WAT     H2 9948   8.223   5.497   5.202
 3236WAT      O 9949   3.593   1.203   9.150
 3236WAT     H1 9950   3.574   1.114   9.192
 3236WAT     H2 9951   3.593   1.274   9.219
 3237WAT      O 9952   1.551   2.148   0.990
 3237WAT     H1 9953   1.637   2.155   0.940
 3237WAT     H2 9954   1.562   2.188   1.081
 3238WAT      O 9955   7.955   7.239   0.950
 3238WAT     H1 9956   8.004   7.242   1.037
 3238WAT     H2 9957   8.010   7.281   0.879
 3239WAT      O 9958   9.612   2.865   7.922
 3239WAT     H1 9959   9.652   2.954   7.945
 3239WAT     H2 9960   9.600   2.860   7.823
 3240WAT      O 9961   5.594   9.056   9.308
 3240WAT     H1 9962   5.686   9.059   9.346
 3240WAT     H2 9963   5.557   8.964   9.319
 3241WAT      O 9964   2.228   6.576   6.649
 3241WAT     H1 9965   2.289   6.521   6.592
 3241WAT     H2 9966   2.280   6.649   6.693
 3242WAT      O 9967   4.299   7.221   8.335
 3242WAT     H1 9968   4.369   7.158   8.369
 3242WAT     H2 9969   4.303   7.307   8.388
 3243WAT      O 9970   3.233   1.087   0.902
 3243WAT     H1 9971   3.328   1.107   0.879
 3243WAT     H2 9972   3.173   1.153   0.857
 3244WAT      O 9973   9.589   5.445   4.126
 3244WAT     H1 9974   9.650   5.366   4.136
 3244WAT     H2 9975   9.614   5.496   4.043
 3245WAT      O 9976   8.968   9.662   5.883
 3245WAT     H1 9977   8.994   9.740   5.826
 3245WAT     H2 9978   9.032   9.654   5.959
 3246WAT      O 9979   8.469   8.378   4.508
 3246WAT     H1 9980   8.500   8.392   4.414
 3246WAT     H2 9981   8.487   8.284   4.535
 3247WAT      O 9982   3.355   3.090   2.369
 3247WAT     H1 9983   3.313   3.112   2.281
 3247WAT     H2 9984   3.322   3.154   2.439
 3248WAT      O 9985   1.680   8.173   3.559
 3248WAT     H1 9986   1.689   8.077   3.583
 3248WAT     H2 9987   1.605   8.185   3.494
 3249WAT      O 9988   2.063   6.941   4.534
 3249WAT     H1 9989   2.024   6.873   4.473
 3249WAT     H2 9990   2.163   6.941   4.525
 3250WAT      O 9991   0.869   0.038   7.949
 3250WAT     H1 9992   0.952   0.087   7.974
 3250WAT     H2 9993   0.891  -0.057   7.930
 3251WAT      O 9994   4.822   6.320   1.455
 3251WAT     H1 9995   4.842   6.313   1.553
 3251WAT     H2 9996   4.873   6.398   1.417
 3252WAT      O 9997   6.751   0.588   7.812
 3252WAT     H1 9998   6.688   0.664   7.822
 3252WAT     H2 9999   6.773   0.550   7.903
 3253WAT      O10000   4.435   0.916   2.510
 3253WAT     H110001   4.454   0.818   2.524
 3253WAT     H210002   4.460   0.941   2.417
 3254WAT      O10003   0.825   7.450   4.667
 3254WAT     H110004   0.863   7.411   4.751
 3254WAT     H210005   0.726   7.448   4.672
 3255WAT      O10006   1.981   2.484   9.262
 3255WAT     H110007   2.029   2.424   9.325
 3255WAT     H210008   2.039   2.564   9.242
 3256WAT      O10009   1.807   4.379   0.060
 3256WAT     H110010   1.751   4.447   0.105
 3256WAT     H210011   1.838   4.414  -0.029
 3257WAT      O10012   7.447   0.282   5.678
 3257WAT     H110013   7.417   0.287   5.773
 3257WAT     H210014   7.516   0.353   5.661
 3258WAT      O10015   0.736   0.120   2.089
 3258WAT     H110016   0.699   0.069   2.166
 3258WAT     H210017   0.814   0.175   2.120
 3259WAT      O10018   8.307   1.898   8.293
 3259WAT     H110019   8.319   1.842   8.375
 3259WAT     H210020   8.313   1.995   8.317
 3260WAT      O10021   5.557   8.962   2.399
 3260WAT     H110022   5.568   9.061   2.404
 3260WAT     H210023   5.510   8.929   2.482
 3261WAT      O10024   6.025   2.890   7.840
 3261WAT     H110025   6.101   2.830   7.815
 3261WAT     H210026   5.939   2.839   7.836
 3262WAT      O10027   7.729   1.822   6.182
 3262WAT     H110028   7.755   1.807   6.278
 3262WAT     H210029   7.637   1.784   6.167
 3263WAT      O10030   6.318   1.506   1.454
 3263WAT     H110031   6.340   1.410   1.438
 3263WAT     H210032   6.313   1.554   1.366
 3264WAT      O10033   6.047   0.243   8.242
 3264WAT     H110034   5.975   0.247   8.173
 3264WAT     H210035   6.103   0.162   8.227
 3265WAT      O10036   5.778   3.965   6.705
 3265WAT     H110037   5.712   3.919   6.765
 3265WAT     H210038   5.774   3.926   6.614
 3266WAT      O10039   5.668   7.162   7.084
 3266WAT     H110040   5.637   7.239   7.138
 3266WAT     H210041   5.732   7.107   7.137
 3267WAT      O10042   2.104   4.339   8.477
 3267WAT     H110043   2.053   4.278   8.536
 3267WAT     H210044   2.074   4.433   8.492
 3268WAT      O10045   2.457   4.917   7.580
 3268WAT     H110046   2.460   5.003   7.529
 3268WAT     H210047   2.513   4.849   7.534
 3269WAT      O10048   4.760   4.894   3.253
 3269WAT     H110049   4.752   4.982   3.301
 3269WAT     H210050   4.854   4.861   3.259
 3270WAT      O10051   8.544   6.595   1.521
 3270WAT     H110052   8.625   6.550   1.483
 3270WAT     H210053   8.571   6.666   1.586
 3271WAT      O10054   8.586   6.905   7.164
 3271WAT     H110055   8.667   6.867   7.120
 3271WAT     H210056   8.527   6.946   7.095
 3272WAT      O10057   1.592   7.612   0.382
 3272WAT     H110058   1.501   7.591   0.346
 3272WAT     H210059   1.582   7.662   0.469
 3273WAT      O10060   3.450   1.760   0.949
 3273WAT     H110061   3.391   1.835   0.979
 3273WAT     H210062   3.479   1.777   0.855
 3274WAT      O10063   1.896   2.442   1.103
 3274WAT     H110064   1.946   2.529   1.093
 3274WAT     H210065   1.944   2.371   1.051
 3275WAT      O10066   2.314   7.704   2.123
 3275WAT     H110067   2.406   7.694   2.086
 3275WAT     H210068   2.297   7.631   2.190
 3276WAT      O10069   6.681   2.641   7.444
 3276WAT     H110070   6.728   2.579   7.508
 3276WAT     H210071   6.747   2.701   7.401
 3277WAT      O10072   4.709   3.007   3.095
 3277WAT     H110073   4.663   2.990   3.007
 3277WAT     H210074   4.677   3.093   3.133
 3278WAT      O10075   4.589   2.852   9.247
 3278WAT     H110076   4.519   2.785   9.221
 3278WAT     H210077   4.678   2.808   9.249
 3279WAT      O10078   1.532   3.378   6.410
 3279WAT     H110079   1.500   3.426   6.491
 3279WAT     H210080   1.454   3.339   6.360
 3280WAT      O10081   8.167   7.799   8.511
 3280WAT     H110082   8.122   7.819   8.424
 3280WAT     H210083   8.263   7.829   8.506
 3281WAT      O10084   3.653   3.023   5.234
 3281WAT     H110085   3.683   3.087   5.305
 3281WAT     H210086   3.649   2.931   5.273
 3282WAT      O10087   9.739   0.258   4.638
 3282WAT     H110088   9.642   0.282   4.651
 3282WAT     H210089   9.745   0.179   4.578
 3283WAT      O10090   8.478   8.485   1.229
 3283WAT     H110091   8.502   8.577   1.196
 3283WAT     H210092   8.559   8.426   1.224
 3284WAT      O10093   6.574   6.881   3.935
 3284WAT     H110094   6.516   6.896   3.854
 3284WAT     H210095   6.516   6.855   4.012
 3285WAT      O10096   5.408   1.299   8.430
 3285WAT     H110097   5.341   1.372   8.446
 3285WAT     H210098   5.405   1.235   8.507
 3286WAT      O10099   8.280   2.011   3.020
 3286WAT     H110100   8.224   1.976   2.945
 3286WAT     H210101   8.363   2.053   2.983
 3287WAT      O10102   0.060   0.424   4.553
 3287WAT     H110103   0.080   0.488   4.627
 3287WAT     H210104  -0.004   0.354   4.584
 3288WAT      O10105   2.402   2.595   6.566
 3288WAT     H110106   2.486   2.554   6.531
 3288WAT     H210107   2.326   2.572   6.505
 3289WAT      O10108   8.707   4.508   0.175
 3289WAT     H110109   8.699   4.432   0.111
 3289WAT     H210110   8.680   4.593   0.130
 3290WAT      O10111   0.214   7.130   6.675
 3290WAT     H110112   0.256   7.081   6.751
 3290WAT     H210113   0.115   7.131   6.686
 3291WAT      O10114   7.003   4.188   7.880
 3291WAT     H110115   6.912   4.156   7.907
 3291WAT     H210116   7.033   4.140   7.798
 3292WAT      O10117   8.023   0.395   4.955
 3292WAT     H110118   8.077   0.330   4.903
 3292WAT     H210119   8.020   0.482   4.907
 3293WAT      O10120   3.992   1.539   4.231
 3293WAT     H110121   3.942   1.509   4.313
 3293WAT     H210122   4.077   1.583   4.258
 3294WAT      O10123   8.026   0.919   8.147
 3294WAT     H110124   8.017   0.988   8.076
 3294WAT     H210125   7.944   0.862   8.149
 3295WAT      O10126   5.761   5.783   1.146
 3295WAT     H110127   5.786   5.698   1.193
 3295WAT     H210128   5.664   5.781   1.123
 3296WAT      O10129   1.178   0.921   9.269
 3296WAT     H110130   1.167   0.889   9.175
 3296WAT     H210131   1.182   1.021   9.270
 3297WAT      O10132   5.246   6.815   3.083
 3297WAT     H110133   5.291   6.735   3.043
 3297WAT     H210134   5.237   6.802   3.182
 3298WAT      O10135   8.479   6.087   7.970
 3298WAT     H110136   8.579   6.088   7.968
 3298WAT     H210137   8.448   6.007   8.022
 3299WAT      O10138   8.758   8.227   2.572
 3299WAT     H110139   8.813   8.252   2.652
 3299WAT     H210140   8.810   8.166   2.513
 3300WAT      O10141   6.741   6.165   6.507
 3300WAT     H110142   6.833   6.168   6.548
 3300WAT     H210143   6.722   6.252   6.462
 3301WAT      O10144   2.756   3.862   1.969
 3301WAT     H110145   2.834   3.910   2.008
 3301WAT     H210146   2.672   3.913   1.988
 3302WAT      O10147   9.394   0.217   2.889
 3302WAT     H110148   9.380   0.270   2.973
 3302WAT     H210149   9.352   0.127   2.899
 3303WAT      O10150   7.863   0.020   4.543
 3303WAT     H110151   7.950  -0.028   4.533
 3303WAT     H210152   7.840   0.029   4.640
 3304WAT      O10153   1.183   1.709   1.334
 3304WAT     H110154   1.250   1.637   1.349
 3304WAT     H210155   1.216   1.771   1.263
 3305WAT      O10156   3.252   0.888   8.050
 3305WAT     H110157   3.198   0.823   8.104
 3305WAT     H210158   3.268   0.851   7.959
 3306WAT      O10159   1.169   5.287   2.171
 3306WAT     H110160   1.145   5.279   2.075
 3306WAT     H210161   1.137   5.374   2.207
 3307WAT      O10162   9.056   1.444   7.857
 3307WAT     H110163   9.121   1.517   7.838
 3307WAT     H210164   8.993   1.434   7.780
 3308WAT      O10165   5.032   9.237   3.785
 3308WAT     H110166   5.105   9.281   3.837
 3308WAT     H210167   5.029   9.276   3.693
 3309WAT      O10168   2.148   5.167   0.868
 3309WAT     H110169   2.141   5.126   0.777
 3309WAT     H210170   2.064   5.149   0.919
 3310WAT      O10171   0.272   0.524   0.404
 3310WAT     H110172   0.368   0.526   0.377
 3310WAT     H210173   0.223   0.598   0.358
 3311WAT      O10174   6.006   0.004   7.848
 3311WAT     H110175   5.967   0.055   7.924
 3311WAT     H210176   5.948  -0.076   7.829
 3312WAT      O10177   4.931   2.920   5.067
 3312WAT     H110178   4.935   2.918   5.167
 3312WAT     H210179   4.876   2.998   5.037
 3313WAT      O10180   8.474   6.950   7.404
 3313WAT     H110181   8.529   6.937   7.322
 3313WAT     H210182   8.420   6.868   7.422
 3314WAT      O10183   0.455   6.711   3.649
 3314WAT     H110184   0.432   6.744   3.557
 3314WAT     H210185   0.554   6.713   3.661
 3315WAT      O10186   4.742   8.414   7.116
 3315WAT     H110187   4.674   8.471   7.070
 3315WAT     H210188   4.704   8.323   7.132
 3316WAT      O10189   9.441   4.107   2.042
 3316WAT     H110190   9.419   4.035   1.975
 3316WAT     H210191   9.488   4.182   1.995
 3317WAT      O10192   8.270   4.168   4.383
 3317WAT     H110193   8.330   4.121   4.447
 3317WAT     H210194   8.261   4.115   4.299
 3318WAT      O10195   2.443   6.668   8.460
 3318WAT     H110196   2.540   6.649   8.472
 3318WAT     H210197   2.390   6.585   8.475
 3319WAT      O10198   9.667   2.679   5.512
 3319WAT     H110199   9.726   2.605   5.480
 3319WAT     H210200   9.576   2.668   5.472
 3320WAT      O10201   0.290   9.185   8.101
 3320WAT     H110202   0.259   9.095   8.070
 3320WAT     H210203   0.359   9.174   8.172
 3321WAT      O10204   2.119   4.520   8.090
 3321WAT     H110205   2.175   4.511   8.173
 3321WAT     H210206   2.071   4.434   8.072
 3322WAT      O10207   2.656   0.821   9.603
 3322WAT     H110208   2.752   0.836   9.627
 3322WAT     H210209   2.602   0.816   9.687
 3323WAT      O10210   6.559   2.649   2.928
 3323WAT     H110211   6.600   2.563   2.900
 3323WAT     H210212   6.559   2.713   2.851
 3324WAT      O10213   7.212   7.704   9.809
 3324WAT     H110214   7.267   7.629   9.771
 3324WAT     H210215   7.253   7.791   9.784
 3325WAT      O10216   6.473   9.468   6.992
 3325WAT     H110217   6.535   9.479   7.070
 3325WAT     H210218   6.400   9.404   7.017
 3326WAT      O10219   8.406   9.812   4.175
 3326WAT     H110220   8.366   9.825   4.084
 3326WAT     H210221   8.503   9.836   4.172
 3327WAT      O10222   6.921   1.690   7.335
 3327WAT     H110223   6.915   1.616   7.402
 3327WAT     H210224   6.918   1.778   7.383
 3328WAT      O10225   3.855   6.113   0.029
 3328WAT     H110226   3.818   6.069  -0.052
 3328WAT     H210227   3.840   6.055   0.109
 3329WAT      O10228   0.460   4.521   0.677
 3329WAT     H110229   0.518   4.566   0.609
 3329WAT     H210230   0.373   4.570   0.684
 3330WAT      O10231   9.374   3.536   1.940
 3330WAT     H110232   9.374   3.540   1.840
 3330WAT     H210233   9.422   3.617   1.976
 3331WAT      O10234   8.490   9.693   7.726
 3331WAT     H110235   8.489   9.789   7.754
 3331WAT     H210236   8.495   9.635   7.808
 3332WAT      O10237   2.980   7.258   6.876
 3332WAT     H110238   2.913   7.244   6.949
 3332WAT     H210239   2.960   7.344   6.829
 3333WAT      O10240   8.624   8.411   7.691
 3333WAT     H110241   8.717   8.376   7.687
 3333WAT     H210242   8.598   8.448   7.602
 3334WAT      O10243   0.113   0.351   9.871
 3334WAT     H110244   0.153   0.274   9.821
 3334WAT     H210245   0.166   0.434   9.851
 3335WAT      O10246   4.785   6.133   6.478
 3335WAT     H110247   4.770   6.161   6.384
 3335WAT     H210248   4.822   6.040   6.480
 3336WAT      O10249   2.378   6.291   5.431
 3336WAT     H110250   2.473   6.316   5.412
 3336WAT     H210251   2.317   6.349   5.378
 3337WAT      O10252   1.601   3.710   8.796
 3337WAT     H110253   1.556   3.732   8.882
 3337WAT     H210254   1.552   3.752   8.720
 3338WAT      O10255   1.905   7.878   7.376
 3338WAT     H110256   1.880   7.814   7.303
 3338WAT     H210257   2.004   7.886   7.381
 3339WAT      O10258   5.280   7.473   1.625
 3339WAT     H110259   5.378   7.466   1.608
 3339WAT     H210260   5.264   7.526   1.708
 3340WAT      O10261   8.615   2.606   9.616
 3340WAT     H110262   8.607   2.608   9.715
 3340WAT     H210263   8.671   2.683   9.585
 3341WAT      O10264   2.510   9.312   0.908
 3341WAT     H110265   2.412   9.294   0.914
 3341WAT     H210266   2.547   9.267   0.827
 3342WAT      O10267   6.021   0.632   1.902
 3342WAT     H110268   6.121   0.633   1.893
 3342WAT     H210269   5.995   0.677   1.988
 3343WAT      O10270   8.303   2.182   5.840
 3343WAT     H110271   8.279   2.214   5.748
 3343WAT     H210272   8.343   2.257   5.892
 3344WAT      O10273   4.625   7.578   7.754
 3344WAT     H110274   4.630   7.648   7.683
 3344WAT     H210275   4.619   7.488   7.710
 3345WAT      O10276   8.844   0.515   4.032
 3345WAT     H110277   8.902   0.529   4.112
 3345WAT     H210278   8.791   0.598   4.013
 3346WAT      O10279   3.834   0.293   6.770
 3346WAT     H110280   3.888   0.376   6.781
 3346WAT     H210281   3.763   0.308   6.702
 3347WAT      O10282   3.412   9.287   6.374
 3347WAT     H110283   3.512   9.285   6.376
 3347WAT     H210284   3.377   9.203   6.416
 3348WAT      O10285   9.457   5.667   5.923
 3348WAT     H110286   9.389   5.720   5.872
 3348WAT     H210287   9.474   5.711   6.011
 3349WAT      O10288   9.694   2.901   2.256
 3349WAT     H110289   9.774   2.901   2.317
 3349WAT     H210290   9.714   2.954   2.174
 3350WAT      O10291   0.992   0.361   3.326
 3350WAT     H110292   1.063   0.431   3.334
 3350WAT     H210293   1.007   0.308   3.243
 3351WAT      O10294   6.440   4.405   8.619
 3351WAT     H110295   6.393   4.490   8.596
 3351WAT     H210296   6.453   4.350   8.537
 3352WAT      O10297   4.999   9.294   2.608
 3352WAT     H110298   5.061   9.221   2.635
 3352WAT     H210299   4.945   9.265   2.529
 3353WAT      O10300   9.444   4.233   7.703
 3353WAT     H110301   9.534   4.233   7.746
 3353WAT     H210302   9.452   4.259   7.607
 3354WAT      O10303   8.844   7.579   1.848
 3354WAT     H110304   8.797   7.514   1.788
 3354WAT     H210305   8.793   7.665   1.851
 3355WAT      O10306   4.059   3.732   1.578
 3355WAT     H110307   4.046   3.692   1.487
 3355WAT     H210308   4.155   3.757   1.590
 3356WAT      O10309   8.471   6.085   8.930
 3356WAT     H110310   8.373   6.103   8.937
 3356WAT     H210311   8.511   6.146   8.862
 3357WAT      O10312   1.309   3.329   5.444
 3357WAT     H110313   1.337   3.331   5.348
 3357WAT     H210314   1.264   3.415   5.468
 3358WAT      O10315   8.962   6.622   1.547
 3358WAT     H110316   8.978   6.602   1.644
 3358WAT     H210317   8.978   6.719   1.530
 3359WAT      O10318   4.998   0.522   8.318
 3359WAT     H110319   5.070   0.587   8.296
 3359WAT     H210320   5.037   0.430   8.326
 3360WAT      O10321   6.940   4.241   3.400
 3360WAT     H110322   6.953   4.145   3.377
 3360WAT     H210323   6.988   4.298   3.333
 3361WAT      O10324   2.116   7.486   0.914
 3361WAT     H110325   2.112   7.388   0.895
 3361WAT     H210326   2.042   7.533   0.866
 3362WAT      O10327   3.921   0.329   9.429
 3362WAT     H110328   3.838   0.362   9.476
 3362WAT     H210329   3.956   0.249   9.477
 3363WAT      O10330   7.614   9.440   6.221
 3363WAT     H110331   7.711   9.463   6.226
 3363WAT     H210332   7.564   9.516   6.178
 3364WAT      O10333   6.056   7.150   4.252
 3364WAT     H110334   6.119   7.224   4.231
 3364WAT     H210335   6.084   7.067   4.205
 3365WAT      O10336   6.584   6.197   4.743
 3365WAT     H110337   6.622   6.104   4.740
 3365WAT     H210338   6.485   6.192   4.752
 3366WAT      O10339   7.850   5.444   4.232
 3366WAT     H110340   7.883   5.500   4.156
 3366WAT     H210341   7.856   5.496   4.317
 3367WAT      O10342   6.041   2.430   5.667
 3367WAT     H110343   6.060   2.495   5.740
 3367WAT     H210344   5.945   2.401   5.673
 3368WAT      O10345   5.671   4.389   0.880
 3368WAT     H110346   5.768   4.372   0.867
 3368WAT     H210347   5.646   4.368   0.975
 3369WAT      O10348   3.063   8.758   2.263
 3369WAT     H110349   3.078   8.697   2.185
 3369WAT     H210350   3.011   8.838   2.233
 3370WAT      O10351   1.509   6.132   0.783
 3370WAT     H110352   1.459   6.135   0.696
 3370WAT     H210353   1.454   6.174   0.854
 3371WAT      O10354   6.840   8.175   6.548
 3371WAT     H110355   6.784   8.135   6.620
 3371WAT     H210356   6.781   8.198   6.470
 3372WAT      O10357   2.778   2.557   8.331
 3372WAT     H110358   2.785   2.655   8.347
 3372WAT     H210359   2.745   2.541   8.239
 3373WAT      O10360   1.908   5.885   1.208
 3373WAT     H110361   1.903   5.921   1.115
 3373WAT     H210362   1.955   5.950   1.267
 3374WAT      O10363   5.996   1.684   9.598
 3374WAT     H110364   6.032   1.773   9.571
 3374WAT     H210365   5.949   1.692   9.686
 3375WAT      O10366   4.656   8.595   7.572
 3375WAT     H110367   4.629   8.667   7.507
 3375WAT     H210368   4.615   8.613   7.661
 3376WAT      O10369   8.905   6.307   0.120
 3376WAT     H110370   8.947   6.388   0.159
 3376WAT     H210371   8.970   6.260   0.061
 3377WAT      O10372   2.127   5.218   7.285
 3377WAT     H110373   2.163   5.231   7.378
 3377WAT     H210374   2.027   5.209   7.290
 3378WAT      O10375   1.862   5.608   9.816
 3378WAT     H110376   1.881   5.684   9.878
 3378WAT     H210377   1.930   5.536   9.829
 3379WAT      O10378   2.151   4.492   4.109
 3379WAT     H110379   2.144   4.586   4.141
 3379WAT     H210380   2.211   4.440   4.170
 3380WAT      O10381   2.471   8.605   5.256
 3380WAT     H110382   2.457   8.631   5.161
 3380WAT     H210383   2.565   8.626   5.284
 3381WAT      O10384   2.068   7.314   8.890
 3381WAT     H110385   2.050   7.411   8.908
 3381WAT     H210386   1.992   7.275   8.839
 3382WAT      O10387   3.078   1.031   3.188
 3382WAT     H110388   3.154   1.095   3.174
 3382WAT     H210389   3.046   0.997   3.100
 3383WAT      O10390   5.178   3.500   3.996
 3383WAT     H110391   5.081   3.520   4.010
 3383WAT     H210392   5.215   3.565   3.929
 3384WAT      O10393   6.013   2.763   0.040
 3384WAT     H110394   5.945   2.743   0.110
 3384WAT     H210395   6.087   2.818   0.080
 3385WAT      O10396   3.563   2.170   8.784
 3385WAT     H110397   3.522   2.239   8.845
 3385WAT     H210398   3.543   2.194   8.689
 3386WAT      O10399   6.733   5.670   5.078
 3386WAT     H110400   6.742   5.600   5.007
 3386WAT     H210401   6.820   5.680   5.127
 3387WAT      O10402   8.771   2.154   2.885
 3387WAT     H110403   8.846   2.216   2.862
 3387WAT     H210404   8.808   2.067   2.917
 3388WAT      O10405   5.526   9.713   7.012
 3388WAT     H110406   5.460   9.780   7.048
 3388WAT     H210407   5.577   9.755   6.937
 3389WAT      O10408   7.746   2.974   3.246
 3389WAT     H110409   7.761   2.894   3.188
 3389WAT     H210410   7.648   2.994   3.251
 3390WAT      O10411   3.073   7.627   0.125
 3390WAT     H110412   3.115   7.638   0.215
 3390WAT     H210413   3.143   7.638   0.055
 3391WAT      O10414   3.358   8.122   5.759
 3391WAT     H110415   3.299   8.121   5.839
 3391WAT     H210416   3.305   8.151   5.679
 3392WAT      O10417   2.425   2.067   6.524
 3392WAT     H110418   2.408   2.025   6.613
 3392WAT     H210419   2.518   2.045   6.495
 3393WAT      O10420   3.606   0.641   5.398
 3393WAT     H110421   3.658   0.720   5.366
 3393WAT     H210422   3.605   0.571   5.326
 3394WAT      O10423   5.068   2.556   4.874
 3394WAT     H110424   5.071   2.500   4.956
 3394WAT     H210425   5.076   2.498   4.793
 3395WAT      O10426   3.781   7.748   3.750
 3395WAT     H110427   3.756   7.653   3.769
 3395WAT     H210428   3.811   7.792   3.835
 3396WAT      O10429   2.609   3.650   5.355
 3396WAT     H110430   2.613   3.570   5.415
 3396WAT     H210431   2.701   3.688   5.343
 3397WAT      O10432   0.498   0.147   8.679
 3397WAT     H110433   0.513   0.076   8.748
 3397WAT     H210434   0.528   0.235   8.716
 3398WAT      O10435   7.755   7.309   4.308
 3398WAT     H110436   7.722   7.403   4.305
 3398WAT     H210437   7.808   7.290   4.225
 3399WAT      O10438   7.106   0.613   8.085
 3399WAT     H110439   7.109   0.605   8.184
 3399WAT     H210440   7.043   0.545   8.048
 3400WAT      O10441   9.831   0.842   3.600
 3400WAT     H110442   9.764   0.816   3.530
 3400WAT     H210443   9.838   0.942   3.604
 3401WAT      O10444   8.430   7.989   7.543
 3401WAT     H110445   8.462   7.903   7.581
 3401WAT     H210446   8.363   8.030   7.605
 3402WAT      O10447   8.082   1.537   8.046
 3402WAT     H110448   8.137   1.482   8.109
 3402WAT     H210449   8.116   1.631   8.044
 3403WAT      O10450   7.094   0.229   0.245
 3403WAT     H110451   7.071   0.138   0.278
 3403WAT     H210452   7.047   0.247   0.159
 3404WAT      O10453   1.599   3.866   6.537
 3404WAT     H110454   1.532   3.848   6.465
 3404WAT     H210455   1.689   3.836   6.506
 3405WAT      O10456   2.657   4.353   5.380
 3405WAT     H110457   2.634   4.258   5.359
 3405WAT     H210458   2.604   4.414   5.322
 3406WAT      O10459   1.025   6.106   4.044
 3406WAT     H110460   1.049   6.183   4.103
 3406WAT     H210461   1.108   6.058   4.016
 3407WAT      O10462   1.158   0.909   5.440
 3407WAT     H110463   1.208   0.976   5.495
 3407WAT     H210464   1.215   0.880   5.363
 3408WAT      O10465   3.717   8.527   6.352
 3408WAT     H110466   3.749   8.549   6.444
 3408WAT     H210467   3.710   8.611   6.298
 3409WAT      O10468   6.798   0.575   2.457
 3409WAT     H110469   6.739   0.534   2.526
 3409WAT     H210470   6.749   0.579   2.370
 3410WAT      O10471   6.829   0.476   7.572
 3410WAT     H110472   6.824   0.521   7.661
 3410WAT     H210473   6.739   0.438   7.549
 3411WAT      O10474   5.630   9.477   1.934
 3411WAT     H110475   5.668   9.405   1.875
 3411WAT     H210476   5.619   9.561   1.881
 3412WAT      O10477   0.104   8.922   1.094
 3412WAT     H110478   0.158   8.849   1.135
 3412WAT     H210479   0.090   8.996   1.161
 3413WAT      O10480   7.684   7.001   4.994
 3413WAT     H110481   7.716   6.998   4.899
 3413WAT     H210482   7.681   6.909   5.032
 3414WAT      O10483   5.005   6.632   4.010
 3414WAT     H110484   4.974   6.727   4.000
 3414WAT     H210485   5.039   6.618   4.103
 3415WAT      O10486   0.228   6.078   9.533
 3415WAT     H110487   0.260   6.049   9.442
 3415WAT     H210488   0.217   6.177   9.534
 3416WAT      O10489   7.367   7.519   7.286
 3416WAT     H110490   7.276   7.524   7.245
 3416WAT     H210491   7.368   7.447   7.356
 3417WAT      O10492   3.927   3.517   0.762
 3417WAT     H110493   3.927   3.610   0.798
 3417WAT     H210494   3.996   3.509   0.690
 3418WAT      O10495   5.407   3.460   7.124
 3418WAT     H110496   5.393   3.370   7.082
 3418WAT     H210497   5.431   3.448   7.221
 3419WAT      O10498   7.841   3.594   8.546
 3419WAT     H110499   7.868   3.652   8.470
 3419WAT     H210500   7.827   3.650   8.628
 3420WAT      O10501   1.025   3.582   6.886
 3420WAT     H110502   1.040   3.508   6.952
 3420WAT     H210503   1.059   3.668   6.923
 3421WAT      O10504   1.516   8.005   7.736
 3421WAT     H110505   1.569   8.035   7.657
 3421WAT     H210506   1.520   8.074   7.808
 3422WAT      O10507   5.633   1.444   6.651
 3422WAT     H110508   5.588   1.433   6.562
 3422WAT     H210509   5.639   1.355   6.696
 3423WAT      O10510   2.630   9.401   1.117
 3423WAT     H110511   2.730   9.402   1.116
 3423WAT     H210512   2.596   9.370   1.028
 3424WAT      O10513   3.941   4.559   0.018
 3424WAT     H110514   3.981   4.613  -0.056
 3424WAT     H210515   4.003   4.485   0.042
 3425WAT      O10516   6.207   7.235   0.061
 3425WAT     H110517   6.137   7.173   0.097
 3425WAT     H210518   6.192   7.327   0.096
 3426WAT      O10519   8.589   5.455   7.928
 3426WAT     H110520   8.539   5.421   7.849
 3426WAT     H210521   8.527   5.468   8.005
 3427WAT      O10522   6.177   8.819   5.906
 3427WAT     H110523   6.088   8.806   5.948
 3427WAT     H210524   6.169   8.883   5.829
 3428WAT      O10525   2.410   4.338   8.690
 3428WAT     H110526   2.335   4.404   8.686
 3428WAT     H210527   2.440   4.316   8.597
 3429WAT      O10528   1.671   8.868   3.264
 3429WAT     H110529   1.601   8.858   3.193
 3429WAT     H210530   1.626   8.872   3.354
 3430WAT      O10531   9.204   9.551   0.788
 3430WAT     H110532   9.197   9.457   0.754
 3430WAT     H210533   9.241   9.609   0.715
 3431WAT      O10534   2.890   5.365   2.836
 3431WAT     H110535   2.838   5.434   2.886
 3431WAT     H210536   2.892   5.280   2.889
 3432WAT      O10537   3.760   7.331   2.788
 3432WAT     H110538   3.793   7.425   2.789
 3432WAT     H210539   3.715   7.312   2.701
 3433WAT      O10540   9.148   2.426   5.538
 3433WAT     H110541   9.070   2.432   5.475
 3433WAT     H210542   9.233   2.419   5.487
 3434WAT      O10543   9.824   8.635   7.370
 3434WAT     H110544   9.913   8.607   7.405
 3434WAT     H210545   9.773   8.681   7.443
 3435WAT      O10546   8.651   4.318   5.172
 3435WAT     H110547   8.720   4.283   5.235
 3435WAT     H210548   8.653   4.266   5.087
 3436WAT      O10549   6.864   1.670   6.214
 3436WAT     H110550   6.853   1.761   6.172
 3436WAT     H210551   6.792   1.610   6.181
 3437WAT      O10552   7.670   8.645   2.695
 3437WAT     H110553   7.719   8.560   2.715
 3437WAT     H210554   7.576   8.623   2.669
 3438WAT      O10555   8.018   1.881   3.560
 3438WAT     H110556   7.944   1.864   3.625
 3438WAT     H210557   7.996   1.835   3.473
 3439WAT      O10558   4.343   0.618   2.284
 3439WAT     H110559   4.365   0.534   2.234
 3439WAT     H210560   4.423   0.645   2.339
 3440WAT      O10561   4.786   4.670   2.873
 3440WAT     H110562   4.865   4.624   2.913
 3440WAT     H210563   4.796   4.769   2.882
 3441WAT      O10564   2.854   6.309   6.675
 3441WAT     H110565   2.805   6.228   6.643
 3441WAT     H210566   2.806   6.348   6.754
 3442WAT      O10567   9.288   9.784   4.951
 3442WAT     H110568   9.251   9.851   5.016
 3442WAT     H210569   9.293   9.694   4.994
 3443WAT      O10570   9.168   4.472   4.747
 3443WAT     H110571   9.177   4.398   4.680
 3443WAT     H210572   9.197   4.558   4.705
 3444WAT      O10573   8.238   9.181   4.343
 3444WAT     H110574   8.232   9.186   4.244
 3444WAT     H210575   8.301   9.251   4.377
 3445WAT      O10576   4.329   3.503   1.113
 3445WAT     H110577   4.283   3.421   1.147
 3445WAT     H210578   4.427   3.485   1.105
 3446WAT      O10579   3.404   0.349   5.312
 3446WAT     H110580   3.306   0.346   5.295
 3446WAT     H210581   3.428   0.285   5.385
 3447WAT      O10582   5.338   4.587   4.655
 3447WAT     H110583   5.363   4.637   4.738
 3447WAT     H210584   5.293   4.501   4.679
 3448WAT      O10585   2.330   8.200   7.438
 3448WAT     H110586   2.320   8.298   7.454
 3448WAT     H210587   2.402   8.184   7.371
 3449WAT      O10588   2.372   3.109   2.555
 3449WAT     H110589   2.315   3.067   2.485
 3449WAT     H210590   2.460   3.136   2.515
 3450WAT      O10591   2.004   7.996   9.422
 3450WAT     H110592   2.005   7.965   9.327
 3450WAT     H210593   1.917   7.970   9.464
 3451WAT      O10594   1.331   4.259   6.645
 3451WAT     H110595   1.379   4.189   6.699
 3451WAT     H210596   1.334   4.234   6.548
 3452WAT      O10597   6.422   8.228   7.718
 3452WAT     H110598   6.387   8.297   7.655
 3452WAT     H210599   6.512   8.196   7.687
 3453WAT      O10600   7.593   9.689   0.344
 3453WAT     H110601   7.548   9.611   0.388
 3453WAT     H210602   7.525   9.759   0.323
 3454WAT      O10603   8.636   4.412   3.902
 3454WAT     H110604   8.687   4.398   3.988
 3454WAT     H210605   8.651   4.333   3.842
 3455WAT      O10606   8.681   1.869   3.341
 3455WAT     H110607   8.687   1.854   3.440
 3455WAT     H210608   8.774   1.876   3.304
 3456WAT      O10609   1.006   6.703   0.919
 3456WAT     H110610   1.057   6.652   0.989
 3456WAT     H210611   1.028   6.666   0.829
 3457WAT      O10612   1.865   6.549   0.021
 3457WAT     H110613   1.888   6.477   0.086
 3457WAT     H210614   1.920   6.539  -0.061
 3458WAT      O10615   4.417   3.900   0.322
 3458WAT     H110616   4.514   3.912   0.343
 3458WAT     H210617   4.377   3.832   0.383
 3459WAT      O10618   4.264   5.407   1.960
 3459WAT     H110619   4.321   5.473   1.911
 3459WAT     H210620   4.297   5.315   1.941
 3460WAT      O10621   6.744   7.140   5.768
 3460WAT     H110622   6.663   7.095   5.730
 3460WAT     H210623   6.724   7.169   5.862
 3461WAT      O10624   9.340   4.391   8.784
 3461WAT     H110625   9.373   4.303   8.819
 3461WAT     H210626   9.335   4.457   8.859
 3462WAT      O10627   5.378   5.696   2.376
 3462WAT     H110628   5.353   5.673   2.470
 3462WAT     H210629   5.471   5.665   2.357
 3463WAT      O10630   5.935   6.223   7.567
 3463WAT     H110631   5.967   6.204   7.474
 3463WAT     H210632   5.840   6.193   7.577
 3464WAT      O10633   7.950   3.661   2.048
 3464WAT     H110634   7.855   3.642   2.071
 3464WAT     H210635   7.966   3.760   2.048
 3465WAT      O10636   9.233   7.941   1.216
 3465WAT     H110637   9.183   7.880   1.277
 3465WAT     H210638   9.261   8.023   1.267
 3466WAT      O10639   8.406   0.208   1.881
 3466WAT     H110640   8.326   0.232   1.825
 3466WAT     H210641   8.380   0.205   1.977
 3467WAT      O10642   9.490   3.132   4.898
 3467WAT     H110643   9.432   3.095   4.970
 3467WAT     H210644   9.573   3.077   4.890
 3468WAT      O10645   3.879   2.844   6.348
 3468WAT     H110646   3.842   2.838   6.441
 3468WAT     H210647   3.968   2.800   6.344
 3469WAT      O10648   2.244   8.497   5.743
 3469WAT     H110649   2.313   8.501   5.815
 3469WAT     H210650   2.263   8.568   5.675
 3470WAT      O10651   6.756   3.073   0.364
 3470WAT     H110652   6.779   3.123   0.448
 3470WAT     H210653   6.661   3.043   0.368
 3471WAT      O10654   1.932   7.059   2.336
 3471WAT     H110655   1.858   7.111   2.380
 3471WAT     H210656   1.893   6.981   2.287
 3472WAT      O10657   8.174   4.858   5.537
 3472WAT     H110658   8.118   4.784   5.500
 3472WAT     H210659   8.243   4.884   5.469
 3473WAT      O10660   6.603   0.864   6.992
 3473WAT     H110661   6.505   0.859   7.007
 3473WAT     H210662   6.621   0.910   6.904
 3474WAT      O10663   1.030   5.805   5.634
 3474WAT     H110664   1.098   5.842   5.697
 3474WAT     H210665   1.000   5.876   5.571
 3475WAT      O10666   6.607   4.535   1.802
 3475WAT     H110667   6.668   4.513   1.726
 3475WAT     H210668   6.578   4.450   1.847
 3476WAT      O10669   5.945   6.376   8.683
 3476WAT     H110670   5.859   6.385   8.634
 3476WAT     H210671   5.953   6.450   8.750
 3477WAT      O10672   7.419   3.681   9.212
 3477WAT     H110673   7.380   3.763   9.172
 3477WAT     H210674   7.351   3.607   9.210
 3478WAT      O10675   6.154   9.424   4.631
 3478WAT     H110676   6.215   9.491   4.673
 3478WAT     H210677   6.155   9.340   4.685
 3479WAT      O10678   1.637   5.565   1.775
 3479WAT     H110679   1.685   5.632   1.718
 3479WAT     H210680   1.697   5.487   1.793
 3480WAT      O10681   2.268   1.592   1.660
 3480WAT     H110682   2.235   1.581   1.754
 3480WAT     H210683   2.368   1.591   1.660
 3481WAT      O10684   3.274   5.564   7.301
 3481WAT     H110685   3.371   5.548   7.282
 3481WAT     H210686   3.257   5.556   7.399
 3482WAT      O10687   2.347   4.208   3.333
 3482WAT     H110688   2.324   4.213   3.430
 3482WAT     H210689   2.444   4.186   3.322
 3483WAT      O10690   6.824   0.439   8.067
 3483WAT     H110691   6.860   0.473   8.154
 3483WAT     H210692   6.765   0.361   8.083
 3484WAT      O10693   4.522   6.572   5.337
 3484WAT     H110694   4.528   6.624   5.252
 3484WAT     H210695   4.561   6.626   5.411
 3485WAT      O10696   2.819   3.611   5.043
 3485WAT     H110697   2.913   3.645   5.046
 3485WAT     H210698   2.774   3.647   4.962
 3486WAT      O10699   7.222   9.109   6.275
 3486WAT     H110700   7.254   9.031   6.329
 3486WAT     H210701   7.300   9.159   6.237
 3487WAT      O10702   6.593   9.675   7.728
 3487WAT     H110703   6.610   9.631   7.816
 3487WAT     H210704   6.494   9.680   7.712
 3488WAT      O10705   2.251   9.690   5.029
 3488WAT     H110706   2.315   9.679   4.952
 3488WAT     H210707   2.240   9.603   5.076
 3489WAT      O10708   3.301   2.949   0.905
 3489WAT     H110709   3.341   2.911   0.822
 3489WAT     H210710   3.278   3.045   0.890
 3490WAT      O10711   8.428   7.336   0.309
 3490WAT     H110712   8.467   7.246   0.328
 3490WAT     H210713   8.439   7.394   0.390
 3491WAT      O10714   1.401   0.834   3.608
 3491WAT     H110715   1.316   0.873   3.572
 3491WAT     H210716   1.428   0.884   3.690
 3492WAT      O10717   4.042   1.921   6.327
 3492WAT     H110718   3.961   1.971   6.358
 3492WAT     H210719   4.018   1.867   6.247
 3493WAT      O10720   1.777   9.459   6.248
 3493WAT     H110721   1.794   9.377   6.193
 3493WAT     H210722   1.832   9.455   6.331
 3494WAT      O10723   2.533   8.366   9.722
 3494WAT     H110724   2.562   8.395   9.630
 3494WAT     H210725   2.613   8.340   9.775
 3495WAT      O10726   0.539   4.727   7.492
 3495WAT     H110727   0.470   4.705   7.423
 3495WAT     H210728   0.545   4.653   7.558
 3496WAT      O10729   7.390   4.003   1.455
 3496WAT     H110730   7.295   4.010   1.486
 3496WAT     H210731   7.451   4.023   1.532
 3497WAT      O10732   4.837   1.382   8.460
 3497WAT     H110733   4.881   1.390   8.371
 3497WAT     H210734   4.907   1.382   8.532
 3498WAT      O10735   1.614   7.295   7.165
 3498WAT     H110736   1.701   7.266   7.205
 3498WAT     H210737   1.630   7.373   7.105
 3499WAT      O10738   3.283   4.794   7.042
 3499WAT     H110739   3.343   4.842   6.979
 3499WAT     H210740   3.202   4.761   6.993
 3500WAT      O10741   1.318   7.339   8.658
 3500WAT     H110742   1.220   7.320   8.649
 3500WAT     H210743   1.362   7.333   8.569
 3501WAT      O10744   9.527   7.261   9.856
 3501WAT     H110745   9.469   7.277   9.936
 3501WAT     H210746   9.582   7.342   9.839
 3502WAT      O10747   0.925   6.402   6.713
 3502WAT     H110748   1.016   6.444   6.721
 3502WAT     H210749   0.855   6.469   6.735
 3503WAT      O10750   5.228   6.291   4.446
 3503WAT     H110751   5.167   6.339   4.384
 3503WAT     H210752   5.257   6.205   4.404
 3504WAT      O10753   9.650   4.254   3.067
 3504WAT     H110754   9.727   4.205   3.106
 3504WAT     H210755   9.607   4.310   3.138
 3505WAT      O10756   3.343   5.701   5.421
 3505WAT     H110757   3.261   5.685   5.476
 3505WAT     H210758   3.416   5.736   5.479
 3506WAT      O10759   3.430   9.730   0.858
 3506WAT     H110760   3.441   9.636   0.890
 3506WAT     H210761   3.509   9.755   0.801
 3507WAT      O10762   5.458   7.991   8.625
 3507WAT     H110763   5.447   7.927   8.549
 3507WAT     H210764   5.553   8.020   8.632
 3508WAT      O10765   8.329   4.257   5.746
 3508WAT     H110766   8.275   4.307   5.814
 3508WAT     H210767   8.332   4.308   5.660
 3509WAT      O10768   3.156   6.802   8.315
 3509WAT     H110769   3.219   6.836   8.245
 3509WAT     H210770   3.068   6.780   8.272
 3510WAT      O10771   2.559   7.238   9.181
 3510WAT     H110772   2.619   7.218   9.258
 3510WAT     H210773   2.502   7.317   9.201
 3511WAT      O10774   1.470   7.013   1.849
 3511WAT     H110775   1.415   7.041   1.928
 3511WAT     H210776   1.556   6.973   1.881
 3512WAT      O10777   3.435   0.237   5.008
 3512WAT     H110778   3.535   0.234   5.008
 3512WAT     H210779   3.400   0.164   4.949
 3513WAT      O10780   8.991   9.235   7.397
 3513WAT     H110781   9.057   9.225   7.322
 3513WAT     H210782   8.899   9.218   7.362
 3514WAT      O10783   8.408   5.086   7.801
 3514WAT     H110784   8.417   5.162   7.866
 3514WAT     H210785   8.329   5.030   7.826
 3515WAT      O10786   8.932   2.527   0.695
 3515WAT     H110787   8.912   2.620   0.665
 3515WAT     H210788   8.854   2.468   0.672
 3516WAT      O10789   5.676   7.654   1.792
 3516WAT     H110790   5.762   7.608   1.811
 3516WAT     H210791   5.691   7.753   1.789
 3517WAT      O10792   7.032   3.214   8.146
 3517WAT     H110793   6.988   3.205   8.056
 3517WAT     H210794   6.997   3.295   8.193
 3518WAT      O10795   6.971   9.645   0.845
 3518WAT     H110796   7.061   9.663   0.804
 3518WAT     H210797   6.918   9.730   0.846
 3519WAT      O10798   1.091   6.460   6.436
 3519WAT     H110799   0.992   6.449   6.431
 3519WAT     H210800   1.115   6.503   6.523
 3520WAT      O10801   3.735   5.565   3.435
 3520WAT     H110802   3.660   5.626   3.412
 3520WAT     H210803   3.738   5.552   3.535
 3521WAT      O10804   2.765   8.688   8.091
 3521WAT     H110805   2.729   8.779   8.109
 3521WAT     H210806   2.849   8.695   8.037
 3522WAT      O10807   6.593   0.628   3.859
 3522WAT     H110808   6.559   0.632   3.765
 3522WAT     H210809   6.576   0.716   3.904
 3523WAT      O10810   9.638   0.899   4.688
 3523WAT     H110811   9.638   0.831   4.615
 3523WAT     H210812   9.673   0.858   4.772
 3524WAT      O10813   1.290   0.496   8.449
 3524WAT     H110814   1.339   0.453   8.372
 3524WAT     H210815   1.342   0.482   8.533
 3525WAT      O10816   7.326   3.852   8.385
 3525WAT     H110817   7.346   3.897   8.471
 3525WAT     H210818   7.338   3.753   8.395
 3526WAT      O10819   9.658   3.420   6.140
 3526WAT     H110820   9.608   3.391   6.222
 3526WAT     H210821   9.650   3.350   6.069
 3527WAT      O10822   5.889   1.346   5.280
 3527WAT     H110823   5.853   1.348   5.373
 3527WAT     H210824   5.830   1.290   5.222
 3528WAT      O10825   1.575   1.856   7.940
 3528WAT     H110826   1.637   1.779   7.930
 3528WAT     H210827   1.618   1.939   7.904
 3529WAT      O10828   5.943   7.508   1.045
 3529WAT     H110829   5.883   7.441   1.089
 3529WAT     H210830   5.914   7.600   1.072
 3530WAT      O10831   0.171   4.587   9.827
 3530WAT     H110832   0.077   4.552   9.829
 3530WAT     H210833   0.202   4.605   9.920
 3531WAT      O10834   0.225   3.794   6.592
 3531WAT     H110835   0.314   3.839   6.595
 3531WAT     H210836   0.209   3.757   6.501
 3532WAT      O10837   4.953   6.497   0.676
 3532WAT     H110838   4.875   6.535   0.627
 3532WAT     H210839   5.036   6.513   0.624
 3533WAT      O10840   4.860   7.939   2.928
 3533WAT     H110841   4.949   7.900   2.902
 3533WAT     H210842   4.874   8.010   2.998
 3534WAT      O10843   3.338   0.026   8.148
 3534WAT     H110844   3.278  -0.019   8.082
 3534WAT     H210845   3.359   0.119   8.116
 3535WAT      O10846   1.680   6.672   4.152
 3535WAT     H110847   1.699   6.762   4.112
 3535WAT     H210848   1.610   6.681   4.223
 3536WAT      O10849   8.016   5.145   8.903
 3536WAT     H110850   8.033   5.118   8.998
 3536WAT     H210851   8.074   5.090   8.842
 3537WAT      O10852   5.651   5.032   8.431
 3537WAT     H110853   5.626   5.015   8.336
 3537WAT     H210854   5.712   5.112   8.436
 3538WAT      O10855   8.081   3.128   1.438
 3538WAT     H110856   7.994   3.079   1.430
 3538WAT     H210857   8.153   3.076   1.392
 3539WAT      O10858   0.884   5.783   1.004
 3539WAT     H110859   0.960   5.757   1.064
 3539WAT     H210860   0.812   5.825   1.059
 3540WAT      O10861   8.050   3.108   2.420
 3540WAT     H110862   7.962   3.154   2.434
 3540WAT     H210863   8.064   3.092   2.322
 3541WAT      O10864   1.853   5.093   3.404
 3541WAT     H110865   1.803   5.081   3.489
 3541WAT     H210866   1.882   5.004   3.369
 3542WAT      O10867   7.345   4.651   3.256
 3542WAT     H110868   7.287   4.733   3.263
 3542WAT     H210869   7.297   4.573   3.297
 3543WAT      O10870   8.095   8.882   7.602
 3543WAT     H110871   8.151   8.965   7.593
 3543WAT     H210872   8.018   8.900   7.663
 3544WAT      O10873   5.858   9.700   8.976
 3544WAT     H110874   5.804   9.750   9.043
 3544WAT     H210875   5.930   9.759   8.940
 3545WAT      O10876   4.922   5.484   4.260
 3545WAT     H110877   4.921   5.573   4.305
 3545WAT     H210878   4.929   5.411   4.328
 3546WAT      O10879   5.755   5.834   9.794
 3546WAT     H110880   5.825   5.865   9.730
 3546WAT     H210881   5.786   5.849   9.888
 3547WAT      O10882   3.546   3.739   2.104
 3547WAT     H110883   3.508   3.830   2.119
 3547WAT     H210884   3.621   3.744   2.038
 3548WAT      O10885   4.887   9.292   4.502
 3548WAT     H110886   4.877   9.209   4.447
 3548WAT     H210887   4.819   9.360   4.474
 3549WAT      O10888   9.430   5.635   4.780
 3549WAT     H110889   9.427   5.728   4.816
 3549WAT     H210890   9.342   5.590   4.796
 3550WAT      O10891   3.675   1.679   6.036
 3550WAT     H110892   3.727   1.747   6.088
 3550WAT     H210893   3.642   1.720   5.951
 3551WAT      O10894   3.234   5.875   2.787
 3551WAT     H110895   3.165   5.804   2.770
 3551WAT     H210896   3.319   5.851   2.742
 3552WAT      O10897   2.063   0.600   4.189
 3552WAT     H110898   2.104   0.668   4.251
 3552WAT     H210899   1.979   0.637   4.150
 3553WAT      O10900   4.768   2.095   6.179
 3553WAT     H110901   4.701   2.109   6.252
 3553WAT     H210902   4.783   1.997   6.167
 3554WAT      O10903   5.692   3.706   6.902
 3554WAT     H110904   5.764   3.688   6.969
 3554WAT     H210905   5.719   3.669   6.813
 3555WAT      O10906   0.659   6.056   5.734
 3555WAT     H110907   0.581   6.013   5.779
 3555WAT     H210908   0.677   6.010   5.647
 3556WAT      O10909   8.803   3.056   1.683
 3556WAT     H110910   8.801   3.054   1.783
 3556WAT     H210911   8.739   3.126   1.650
 3557WAT      O10912   8.582   2.125   4.947
 3557WAT     H110913   8.676   2.141   4.919
 3557WAT     H210914   8.566   2.027   4.958
 3558WAT      O10915   1.524   8.157   9.842
 3558WAT     H110916   1.590   8.221   9.802
 3558WAT     H210917   1.547   8.064   9.813
 3559WAT      O10918   9.055   3.012   9.630
 3559WAT     H110919   9.027   2.946   9.560
 3559WAT     H210920   8.985   3.082   9.640
 3560WAT      O10921   5.925   9.282   4.304
 3560WAT     H110922   5.927   9.364   4.362
 3560WAT     H210923   5.965   9.205   4.353
 3561WAT      O10924   7.012   1.519   5.745
 3561WAT     H110925   7.106   1.541   5.771
 3561WAT     H210926   6.991   1.560   5.656
 3562WAT      O10927   0.845   3.211   2.895
 3562WAT     H110928   0.908   3.260   2.957
 3562WAT     H210929   0.878   3.118   2.882
 3563WAT      O10930   8.304   9.659   6.794
 3563WAT     H110931   8.311   9.591   6.867
 3563WAT     H210932   8.334   9.618   6.708
 3564WAT      O10933   1.425   0.206   7.300
 3564WAT     H110934   1.452   0.298   7.329
 3564WAT     H210935   1.473   0.138   7.357
 3565WAT      O10936   5.330   7.577   4.134
 3565WAT     H110937   5.240   7.566   4.176
 3565WAT     H210938   5.378   7.489   4.135
 3566WAT      O10939   2.390   5.979   5.109
 3566WAT     H110940   2.346   6.021   5.188
 3566WAT     H210941   2.349   5.890   5.090
 3567WAT      O10942   6.521   0.807   1.087
 3567WAT     H110943   6.535   0.904   1.104
 3567WAT     H210944   6.428   0.782   1.113
 3568WAT      O10945   0.769   0.871   3.731
 3568WAT     H110946   0.688   0.878   3.672
 3568WAT     H210947   0.775   0.779   3.768
 3569WAT      O10948   6.930   8.846   2.793
 3569WAT     H110949   6.926   8.905   2.873
 3569WAT     H210950   7.024   8.839   2.761
 3570WAT      O10951   8.548   5.638   3.267
 3570WAT     H110952   8.567   5.722   3.317
 3570WAT     H210953   8.567   5.652   3.170
 3571WAT      O10954   3.945   3.412   5.201
 3571WAT     H110955   3.909   3.499   5.166
 3571WAT     H210956   3.953   3.347   5.126
 3572WAT      O10957   2.097   8.670   7.383
 3572WAT     H110958   2.126   8.732   7.455
 3572WAT     H210959   2.175   8.648   7.325
 3573WAT      O10960   1.822   0.283   0.495
 3573WAT     H110961   1.867   0.200   0.526
 3573WAT     H210962   1.750   0.260   0.429
 3574WAT      O10963   6.033   2.624   8.755
 3574WAT     H110964   5.988   2.710   8.730
 3574WAT     H210965   6.002   2.551   8.693
 3575WAT      O10966   8.126   7.133   0.582
 3575WAT     H110967   8.148   7.168   0.673
 3575WAT     H210968   8.092   7.208   0.525
 3576WAT      O10969   4.417   4.000   8.930
 3576WAT     H110970   4.429   3.982   8.832
 3576WAT     H210971   4.320   4.006   8.951
 3577WAT      O10972   0.522   4.339   0.130
 3577WAT     H110973   0.471   4.303   0.208
 3577WAT     H210974   0.545   4.265   0.068
 3578WAT      O10975   4.896   4.133   6.310
 3578WAT     H110976   4.946   4.178   6.385
 3578WAT     H210977   4.858   4.202   6.249
 3579WAT      O10978   0.776   9.802   2.969
 3579WAT     H110979   0.689   9.798   2.918
 3579WAT     H210980   0.852   9.802   2.905
 3580WAT      O10981   7.856   5.163   7.546
 3580WAT     H110982   7.903   5.135   7.630
 3580WAT     H210983   7.758   5.171   7.563
 3581WAT      O10984   7.717   5.630   1.956
 3581WAT     H110985   7.697   5.554   2.018
 3581WAT     H210986   7.767   5.596   1.877
 3582WAT      O10987   1.683   3.617   1.080
 3582WAT     H110988   1.609   3.581   1.137
 3582WAT     H210989   1.668   3.715   1.065
 3583WAT      O10990   5.876   8.550   3.216
 3583WAT     H110991   5.918   8.541   3.125
 3583WAT     H210992   5.803   8.617   3.211
 3584WAT      O10993   3.997   2.495   1.665
 3584WAT     H110994   3.912   2.515   1.616
 3584WAT     H210995   4.074   2.497   1.600
 3585WAT      O10996   9.404   7.019   9.540
 3585WAT     H110997   9.354   7.032   9.454
 3585WAT     H210998   9.410   7.106   9.588
 3586WAT      O10999   1.991   1.132   1.410
 3586WAT     H111000   1.971   1.225   1.379
 3586WAT     H211001   1.924   1.069   1.371
 3587WAT      O11002   8.737   0.057   8.285
 3587WAT     H111003   8.682  -0.027   8.286
 3587WAT     H211004   8.682   0.133   8.319
 3588WAT      O11005   8.881   8.838   1.248
 3588WAT     H111006   8.840   8.927   1.269
 3588WAT     H211007   8.961   8.851   1.190
 3589WAT      O11008   4.171   3.110   6.062
 3589WAT     H111009   4.104   3.083   6.132
 3589WAT     H211010   4.134   3.186   6.009
 3590WAT      O11011   9.157   3.102   8.620
 3590WAT     H111012   9.216   3.110   8.539
 3590WAT     H211013   9.072   3.057   8.594
 3591WAT      O11014   2.831   5.450   0.525
 3591WAT     H111015   2.776   5.386   0.578
 3591WAT     H211016   2.839   5.417   0.431
 3592WAT      O11017   6.727   0.733   8.970
 3592WAT     H111018   6.701   0.657   9.030
 3592WAT     H211019   6.767   0.696   8.886
 3593WAT      O11020   1.185   0.773   6.532
 3593WAT     H111021   1.141   0.702   6.476
 3593WAT     H211022   1.115   0.825   6.580
 3594WAT      O11023   9.477   2.168   5.524
 3594WAT     H111024   9.400   2.115   5.560
 3594WAT     H211025   9.444   2.238   5.461
 3595WAT      O11026   8.417   9.601   3.458
 3595WAT     H111027   8.461   9.679   3.412
 3595WAT     H211028   8.475   9.520   3.449
 3596WAT      O11029   8.503   3.729   7.010
 3596WAT     H111030   8.525   3.636   6.982
 3596WAT     H211031   8.491   3.733   7.109
 3597WAT      O11032   4.636   0.347   9.594
 3597WAT     H111033   4.663   0.254   9.568
 3597WAT     H211034   4.570   0.383   9.528
 3598WAT      O11035   3.391   3.906   6.673
 3598WAT     H111036   3.469   3.921   6.734
 3598WAT     H211037   3.407   3.951   6.585
 3599WAT      O11038   3.261   4.298   8.804
 3599WAT     H111039   3.247   4.397   8.797
 3599WAT     H211040   3.282   4.274   8.899
 3600WAT      O11041   2.710   0.334   9.591
 3600WAT     H111042   2.662   0.412   9.552
 3600WAT     H211043   2.790   0.366   9.642
 3601WAT      O11044   6.674   0.685   5.064
 3601WAT     H111045   6.719   0.617   5.007
 3601WAT     H211046   6.647   0.763   5.008
 3602WAT      O11047   6.868   8.618   9.153
 3602WAT     H111048   6.854   8.670   9.068
 3602WAT     H211049   6.918   8.675   9.218
 3603WAT      O11050   9.861   7.895   4.795
 3603WAT     H111051   9.899   7.814   4.840
 3603WAT     H211052   9.936   7.958   4.771
 3604WAT      O11053   0.645   2.955   4.284
 3604WAT     H111054   0.628   2.893   4.360
 3604WAT     H211055   0.668   3.045   4.319
 3605WAT      O11056   2.621   1.777   6.742
 3605WAT     H111057   2.691   1.752   6.809
 3605WAT     H211058   2.661   1.833   6.670
 3606WAT      O11059   3.498   9.711   8.322
 3606WAT     H111060   3.429   9.774   8.286
 3606WAT     H211061   3.523   9.644   8.251
 3607WAT      O11062   6.095   4.830   2.010
 3607WAT     H111063   6.118   4.815   1.914
 3607WAT     H211064   6.033   4.759   2.041
 3608WAT      O11065   4.939   4.751   4.429
 3608WAT     H111066   4.906   4.789   4.342
 3608WAT     H211067   5.038   4.738   4.423
 3609WAT      O11068   5.573   2.068   0.837
 3609WAT     H111069   5.583   2.094   0.741
 3609WAT     H211070   5.598   2.145   0.895
 3610WAT      O11071   8.244   8.910   4.153
 3610WAT     H111072   8.153   8.905   4.193
 3610WAT     H211073   8.302   8.838   4.191
 3611WAT      O11074   8.422   7.385   3.797
 3611WAT     H111075   8.441   7.429   3.885
 3611WAT     H211076   8.492   7.316   3.778
 3612WAT      O11077   9.025   2.304   3.700
 3612WAT     H111078   8.970   2.362   3.640
 3612WAT     H211079   9.118   2.297   3.664
 3613WAT      O11080   9.100   7.596   5.380
 3613WAT     H111081   9.013   7.598   5.330
 3613WAT     H211082   9.174   7.628   5.321
 3614WAT      O11083   1.838   8.880   2.263
 3614WAT     H111084   1.867   8.805   2.204
 3614WAT     H211085   1.810   8.843   2.352
 3615WAT      O11086   0.998   8.579   2.773
 3615WAT     H111087   1.061   8.502   2.759
 3615WAT     H211088   0.940   8.560   2.852
 3616WAT      O11089   6.105   6.626   7.701
 3616WAT     H111090   6.105   6.689   7.623
 3616WAT     H211091   6.032   6.559   7.690
 3617WAT      O11092   8.163   5.007   5.211
 3617WAT     H111093   8.263   5.010   5.208
 3617WAT     H211094   8.129   5.094   5.246
 3618WAT      O11095   7.387   1.188   8.179
 3618WAT     H111096   7.467   1.140   8.142
 3618WAT     H211097   7.416   1.277   8.213
 3619WAT      O11098   8.134   1.327   8.769
 3619WAT     H111099   8.121   1.269   8.689
 3619WAT     H211100   8.071   1.298   8.842
 3620WAT      O11101   8.585   3.856   3.662
 3620WAT     H111102   8.533   3.888   3.741
 3620WAT     H211103   8.541   3.888   3.578
 3621WAT      O11104   7.576   2.898   8.349
 3621WAT     H111105   7.583   2.976   8.412
 3621WAT     H211106   7.489   2.851   8.364
 3622WAT      O11107   3.065   5.404   8.981
 3622WAT     H111108   3.042   5.368   9.071
 3622WAT     H211109   2.982   5.410   8.925
 3623WAT      O11110   5.904   6.013   5.837
 3623WAT     H111111   5.907   5.945   5.911
 3623WAT     H211112   5.822   5.998   5.782
 3624WAT      O11113   3.057   4.099   3.019
 3624WAT     H111114   3.002   4.051   3.087
 3624WAT     H211115   3.023   4.193   3.008
 3625WAT      O11116   6.704   5.959   0.783
 3625WAT     H111117   6.688   6.016   0.702
 3625WAT     H211118   6.646   5.878   0.778
 3626WAT      O11119   7.018   7.045   8.346
 3626WAT     H111120   7.047   6.980   8.276
 3626WAT     H211121   7.076   7.036   8.426
 3627WAT      O11122   5.184   4.491   7.039
 3627WAT     H111123   5.154   4.454   7.126
 3627WAT     H211124   5.284   4.484   7.033
 3628WAT      O11125   4.593   3.454   1.109
 3628WAT     H111126   4.663   3.524   1.091
 3628WAT     H211127   4.626   3.392   1.181
 3629WAT      O11128   7.032   9.671   4.262
 3629WAT     H111129   7.090   9.628   4.331
 3629WAT     H211130   7.027   9.769   4.280
 3630WAT      O11131   4.293   8.475   9.309
 3630WAT     H111132   4.235   8.481   9.390
 3630WAT     H211133   4.250   8.526   9.234
 3631WAT      O11134   1.590   6.740   4.997
 3631WAT     H111135   1.666   6.686   4.962
 3631WAT     H211136   1.548   6.791   4.922
 3632WAT      O11137   1.647   7.881   8.427
 3632WAT     H111138   1.609   7.914   8.341
 3632WAT     H211139   1.621   7.942   8.501
 3633WAT      O11140   8.943   8.111   8.689
 3633WAT     H111141   8.859   8.074   8.649
 3633WAT     H211142   9.003   8.143   8.615
 3634WAT      O11143   5.437   1.041   1.184
 3634WAT     H111144   5.527   1.021   1.144
 3634WAT     H211145   5.370   1.051   1.111
 3635WAT      O11146   6.215   0.969   9.326
 3635WAT     H111147   6.188   1.059   9.361
 3635WAT     H211148   6.133   0.921   9.292
 3636WAT      O11149   0.653   2.279   0.792
 3636WAT     H111150   0.650   2.185   0.760
 3636WAT     H211151   0.724   2.289   0.862
 3637WAT      O11152   5.699   5.565   0.373
 3637WAT     H111153   5.661   5.485   0.326
 3637WAT     H211154   5.625   5.631   0.391
 3638WAT      O11155   4.375   2.889   9.879
 3638WAT     H111156   4.308   2.943   9.930
 3638WAT     H211157   4.452   2.947   9.853
 3639WAT      O11158   4.398   1.527   4.022
 3639WAT     H111159   4.362   1.569   4.105
 3639WAT     H211160   4.493   1.554   4.009
 3640WAT      O11161   9.148   2.560   6.559
 3640WAT     H111162   9.137   2.486   6.492
 3640WAT     H211163   9.154   2.647   6.511
 3641WAT      O11164   6.956   7.365   0.482
 3641WAT     H111165   6.958   7.446   0.542
 3641WAT     H211166   6.978   7.393   0.389
 3642WAT      O11167   0.346   0.903   0.166
 3642WAT     H111168   0.259   0.881   0.209
 3642WAT     H211169   0.354   1.002   0.155
 3643WAT      O11170   1.361   9.144   6.143
 3643WAT     H111171   1.442   9.139   6.201
 3643WAT     H211172   1.387   9.129   6.047
 3644WAT      O11173   3.451   9.120   7.275
 3644WAT     H111174   3.536   9.172   7.284
 3644WAT     H211175   3.416   9.129   7.182
 3645WAT      O11176   9.248   1.133   5.544
 3645WAT     H111177   9.290   1.064   5.603
 3645WAT     H211178   9.257   1.223   5.585
 3646WAT      O11179   5.763   6.174   3.933
 3646WAT     H111180   5.702   6.238   3.981
 3646WAT     H211181   5.857   6.189   3.964
 3647WAT      O11182   7.221   2.645   0.376
 3647WAT     H111183   7.216   2.549   0.405
 3647WAT     H211184   7.159   2.700   0.432
 3648WAT      O11185   3.249   1.018   8.294
 3648WAT     H111186   3.246   0.970   8.206
 3648WAT     H211187   3.208   1.108   8.285
 3649WAT      O11188   7.231   8.949   3.638
 3649WAT     H111189   7.314   8.990   3.677
 3649WAT     H211190   7.162   8.939   3.710
 3650WAT      O11191   9.827   8.276   0.818
 3650WAT     H111192   9.801   8.333   0.895
 3650WAT     H211193   9.913   8.229   0.838
 3651WAT      O11194   4.208   5.342   0.885
 3651WAT     H111195   4.217   5.243   0.896
 3651WAT     H211196   4.123   5.363   0.837
 3652WAT      O11197   9.820   8.677   5.599
 3652WAT     H111198   9.897   8.714   5.650
 3652WAT     H211199   9.737   8.729   5.622
 3653WAT      O11200   4.904   1.125   7.062
 3653WAT     H111201   4.914   1.195   7.133
 3653WAT     H211202   4.883   1.168   6.975
 3654WAT      O11203   0.876   2.238   4.569
 3654WAT     H111204   0.846   2.332   4.556
 3654WAT     H211205   0.923   2.206   4.487
 3655WAT      O11206   3.364   8.250   1.468
 3655WAT     H111207   3.405   8.307   1.539
 3655WAT     H211208   3.429   8.239   1.393
 3656WAT      O11209   8.571   1.370   7.409
 3656WAT     H111210   8.559   1.294   7.473
 3656WAT     H211211   8.572   1.335   7.315
 3657WAT      O11212   0.051   9.348   3.231
 3657WAT     H111213  -0.045   9.321   3.223
 3657WAT     H211214   0.062   9.441   3.198
 3658WAT      O11215   9.661   5.477   6.347
 3658WAT     H111216   9.669   5.577   6.351
 3658WAT     H211217   9.617   5.444   6.430
 3659WAT      O11218   9.756   1.109   8.945
 3659WAT     H111219   9.839   1.165   8.948
 3659WAT     H211220   9.680   1.161   8.983
 3660WAT      O11221   3.316   3.877   7.659
 3660WAT     H111222   3.236   3.916   7.704
 3660WAT     H211223   3.384   3.851   7.727
 3661WAT      O11224   3.684   3.261   2.235
 3661WAT     H111225   3.651   3.293   2.146
 3661WAT     H211226   3.708   3.340   2.292
 3662WAT      O11227   6.623   3.836   8.478
 3662WAT     H111228   6.567   3.767   8.432
 3662WAT     H211229   6.637   3.914   8.417
 3663WAT      O11230   2.987   4.932   1.755
 3663WAT     H111231   2.978   4.935   1.855
 3663WAT     H211232   3.084   4.927   1.731
 3664WAT      O11233   5.926   7.327   2.435
 3664WAT     H111234   5.827   7.337   2.431
 3664WAT     H211235   5.962   7.303   2.345
 3665WAT      O11236   5.808   9.668   2.036
 3665WAT     H111237   5.846   9.648   2.127
 3665WAT     H211238   5.767   9.585   1.999
 3666WAT      O11239   3.783   0.687   7.333
 3666WAT     H111240   3.811   0.766   7.388
 3666WAT     H211241   3.713   0.716   7.267
 3667WAT      O11242   0.902   4.917   6.311
 3667WAT     H111243   0.998   4.940   6.292
 3667WAT     H211244   0.853   4.903   6.225
 3668WAT      O11245   9.305   3.516   2.661
 3668WAT     H111246   9.297   3.615   2.670
 3668WAT     H211247   9.245   3.472   2.727
 3669WAT      O11248   6.801   8.914   8.160
 3669WAT     H111249   6.805   8.892   8.258
 3669WAT     H211250   6.845   9.002   8.145
 3670WAT      O11251   6.644   4.963   1.105
 3670WAT     H111252   6.592   4.899   1.049
 3670WAT     H211253   6.720   5.001   1.052
 3671WAT      O11254   7.308   6.590   5.731
 3671WAT     H111255   7.370   6.519   5.763
 3671WAT     H211256   7.248   6.554   5.660
 3672WAT      O11257   6.054   6.675   5.149
 3672WAT     H111258   6.152   6.687   5.163
 3672WAT     H211259   6.006   6.691   5.235
 3673WAT      O11260   0.789   7.024   0.022
 3673WAT     H111261   0.841   6.940   0.004
 3673WAT     H211262   0.728   7.009   0.099
 3674WAT      O11263   0.210   3.251   1.120
 3674WAT     H111264   0.149   3.192   1.066
 3674WAT     H211265   0.284   3.196   1.157
 3675WAT      O11266   6.821   7.523   0.014
 3675WAT     H111267   6.890   7.513  -0.057
 3675WAT     H211268   6.733   7.487  -0.018
 3676WAT      O11269   0.922   4.742   5.304
 3676WAT     H111270   0.929   4.821   5.365
 3676WAT     H211271   1.010   4.694   5.302
 3677WAT      O11272   5.434   6.151   5.667
 3677WAT     H111273   5.499   6.181   5.737
 3677WAT     H211274   5.377   6.229   5.640
 3678WAT      O11275   2.722   0.733   3.657
 3678WAT     H111276   2.629   0.750   3.691
 3678WAT     H211277   2.750   0.640   3.683
 3679WAT      O11278   2.822   0.109   8.059
 3679WAT     H111279   2.739   0.057   8.039
 3679WAT     H211280   2.863   0.074   8.144
 3680WAT      O11281   5.178   4.801   3.654
 3680WAT     H111282   5.237   4.783   3.575
 3680WAT     H211283   5.209   4.748   3.732
 3681WAT      O11284   1.751   1.241   7.069
 3681WAT     H111285   1.679   1.242   7.000
 3681WAT     H211286   1.744   1.324   7.124
 3682WAT      O11287   8.470   6.860   9.748
 3682WAT     H111288   8.476   6.800   9.827
 3682WAT     H211289   8.546   6.841   9.685
 3683WAT      O11290   1.499   1.708   4.634
 3683WAT     H111291   1.524   1.652   4.555
 3683WAT     H211292   1.427   1.772   4.609
 3684WAT      O11293   4.451   6.492   3.281
 3684WAT     H111294   4.489   6.581   3.255
 3684WAT     H211295   4.467   6.476   3.378
 3685WAT      O11296   2.579   4.439   0.939
 3685WAT     H111297   2.565   4.373   1.013
 3685WAT     H211298   2.574   4.391   0.851
 3686WAT      O11299   4.457   8.514   0.894
 3686WAT     H111300   4.452   8.575   0.972
 3686WAT     H211301   4.509   8.432   0.918
 3687WAT      O11302   3.623   3.568   0.491
 3687WAT     H111303   3.624   3.541   0.587
 3687WAT     H211304   3.698   3.632   0.473
 3688WAT      O11305   8.099   9.012   4.709
 3688WAT     H111306   8.061   9.033   4.619
 3688WAT     H211307   8.177   9.072   4.728
 3689WAT      O11308   4.501   5.271   6.411
 3689WAT     H111309   4.428   5.336   6.392
 3689WAT     H211310   4.529   5.227   6.325
 3690WAT      O11311   0.371   0.824   4.406
 3690WAT     H111312   0.364   0.922   4.420
 3690WAT     H211313   0.288   0.791   4.359
 3691WAT      O11314   7.546   3.845   6.870
 3691WAT     H111315   7.590   3.764   6.908
 3691WAT     H211316   7.565   3.851   6.772
 3692WAT      O11317   7.129   4.200   3.039
 3692WAT     H111318   7.042   4.207   2.991
 3692WAT     H211319   7.201   4.242   2.985
 3693WAT      O11320   7.518   5.777   5.148
 3693WAT     H111321   7.548   5.701   5.091
 3693WAT     H211322   7.595   5.838   5.165
 3694WAT      O11323   0.552   1.319   4.504
 3694WAT     H111324   0.607   1.316   4.421
 3694WAT     H211325   0.611   1.335   4.583
 3695WAT      O11326   5.552   4.307   9.859
 3695WAT     H111327   5.530   4.346   9.770
 3695WAT     H211328   5.605   4.224   9.847
 3696WAT      O11329   4.683   7.772   4.785
 3696WAT     H111330   4.635   7.814   4.863
 3696WAT     H211331   4.775   7.746   4.814
 3697WAT      O11332   7.514   7.590   5.061
 3697WAT     H111333   7.601   7.623   5.099
 3697WAT     H211334   7.527   7.566   4.965
 3698WAT      O11335   7.768   2.410   4.332
 3698WAT     H111336   7.709   2.430   4.411
 3698WAT     H211337   7.712   2.373   4.258
 3699WAT      O11338   3.303   7.844   4.789
 3699WAT     H111339   3.340   7.766   4.738
 3699WAT     H211340   3.351   7.928   4.760
 3700WAT      O11341   1.365   1.202   7.345
 3700WAT     H111342   1.326   1.257   7.270
 3700WAT     H211343   1.291   1.153   7.392
 3701WAT      O11344   3.492   6.551   7.427
 3701WAT     H111345   3.503   6.453   7.443
 3701WAT     H211346   3.568   6.600   7.471
 3702WAT      O11347   5.539   2.487   0.602
 3702WAT     H111348   5.572   2.394   0.584
 3702WAT     H211349   5.617   2.546   0.624
 3703WAT      O11350   3.956   2.281   0.038
 3703WAT     H111351   3.983   2.376   0.021
 3703WAT     H211352   3.984   2.255   0.130
 3704WAT      O11353   8.831   6.937   8.923
 3704WAT     H111354   8.882   6.923   9.008
 3704WAT     H211355   8.736   6.961   8.945
 3705WAT      O11356   7.191   4.850   3.376
 3705WAT     H111357   7.233   4.860   3.466
 3705WAT     H211358   7.134   4.929   3.355
 3706WAT      O11359   3.528   8.190   1.225
 3706WAT     H111360   3.470   8.236   1.157
 3706WAT     H211361   3.624   8.210   1.207
 3707WAT      O11362   1.077   7.881   4.883
 3707WAT     H111363   0.988   7.850   4.847
 3707WAT     H211364   1.113   7.952   4.823
 3708WAT      O11365   3.579   0.101   9.467
 3708WAT     H111366   3.608   0.186   9.511
 3708WAT     H211367   3.601   0.104   9.370
 3709WAT      O11368   8.463   4.695   4.499
 3709WAT     H111369   8.402   4.691   4.419
 3709WAT     H211370   8.412   4.670   4.581
 3710WAT      O11371   1.378   5.976   8.464
 3710WAT     H111372   1.447   5.993   8.393
 3710WAT     H211373   1.341   5.884   8.452
 3711WAT      O11374   2.782   2.513   5.300
 3711WAT     H111375   2.821   2.583   5.360
 3711WAT     H211376   2.855   2.469   5.247
 3712WAT      O11377   5.793   1.509   1.516
 3712WAT     H111378   5.699   1.478   1.532
 3712WAT     H211379   5.836   1.450   1.448
 3713WAT      O11380   0.031   8.251   2.257
 3713WAT     H111381   0.085   8.196   2.321
 3713WAT     H211382   0.077   8.339   2.243
 3714WAT      O11383   7.969   8.619   5.920
 3714WAT     H111384   7.923   8.533   5.938
 3714WAT     H211385   7.941   8.654   5.831
 3715WAT      O11386   0.823   8.115   8.836
 3715WAT     H111387   0.742   8.058   8.848
 3715WAT     H211388   0.795   8.208   8.815
 3716WAT      O11389   3.975   0.418   3.532
 3716WAT     H111390   3.914   0.475   3.587
 3716WAT     H211391   3.934   0.328   3.519
 3717WAT      O11392   4.631   1.059   0.193
 3717WAT     H111393   4.692   1.119   0.244
 3717WAT     H211394   4.671   0.968   0.186
 3718WAT      O11395   1.076   0.353   4.334
 3718WAT     H111396   1.142   0.344   4.408
 3718WAT     H211397   1.017   0.272   4.332
 3719WAT      O11398   2.318   9.680   9.346
 3719WAT     H111399   2.281   9.654   9.435
 3719WAT     H211400   2.249   9.732   9.295
 3720WAT      O11401   2.525   8.580   3.750
 3720WAT     H111402   2.546   8.519   3.675
 3720WAT     H211403   2.500   8.670   3.714
 3721WAT      O11404   2.963   6.501   0.515
 3721WAT     H111405   2.993   6.587   0.475
 3721WAT     H211406   2.966   6.429   0.446
 3722WAT      O11407   4.003   1.645   0.305
 3722WAT     H111408   3.925   1.708   0.303
 3722WAT     H211409   4.027   1.620   0.211
 3723WAT      O11410   5.282   3.833   0.853
 3723WAT     H111411   5.273   3.763   0.783
 3723WAT     H211412   5.193   3.846   0.898
 3724WAT      O11413   0.385   3.197   2.139
 3724WAT     H111414   0.399   3.102   2.167
 3724WAT     H211415   0.385   3.204   2.040
 3725WAT      O11416   6.470   6.778   8.428
 3725WAT     H111417   6.556   6.733   8.404
 3725WAT     H211418   6.398   6.709   8.437
 3726WAT      O11419   4.486   5.175   9.713
 3726WAT     H111420   4.565   5.198   9.657
 3726WAT     H211421   4.419   5.249   9.708
 3727WAT      O11422   3.948   7.987   8.947
 3727WAT     H111423   4.004   8.042   9.009
 3727WAT     H211424   3.998   7.904   8.922
 3728WAT      O11425   0.791   1.511   3.139
 3728WAT     H111426   0.828   1.603   3.156
 3728WAT     H211427   0.698   1.518   3.103
 3729WAT      O11428   3.714   6.801   7.030
 3729WAT     H111429   3.687   6.804   6.934
 3729WAT     H211430   3.796   6.745   7.041
 3730WAT      O11431   9.831   1.488   5.439
 3730WAT     H111432   9.781   1.568   5.469
 3730WAT     H211433   9.789   1.451   5.356
 3731WAT      O11434   4.404   0.815   2.898
 3731WAT     H111435   4.380   0.769   2.983
 3731WAT     H211436   4.441   0.749   2.833
 3732WAT      O11437   5.968   2.433   5.957
 3732WAT     H111438   5.994   2.339   5.936
 3732WAT     H211439   5.884   2.433   6.011
 3733WAT      O11440   3.153   1.711   2.682
 3733WAT     H111441   3.208   1.658   2.747
 3733WAT     H211442   3.078   1.654   2.649
 3734WAT      O11443   8.017   4.276   9.300
 3734WAT     H111444   8.116   4.271   9.294
 3734WAT     H211445   7.985   4.220   9.377
 3735WAT      O11446   6.579   0.762   8.080
 3735WAT     H111447   6.578   0.781   7.982
 3735WAT     H211448   6.487   0.776   8.117
 3736WAT      O11449   1.356   8.612   7.036
 3736WAT     H111450   1.444   8.625   6.991
 3736WAT     H211451   1.342   8.515   7.056
 3737WAT      O11452   9.095   2.402   6.353
 3737WAT     H111453   9.061   2.458   6.277
 3737WAT     H211454   9.098   2.306   6.326
 3738WAT      O11455   0.553   5.076   2.458
 3738WAT     H111456   0.509   5.031   2.381
 3738WAT     H211457   0.596   5.008   2.517
 3739WAT      O11458   9.370   1.523   3.068
 3739WAT     H111459   9.369   1.468   3.151
 3739WAT     H211460   9.438   1.486   3.005
 3740WAT      O11461   6.089   3.499   5.335
 3740WAT     H111462   6.134   3.582   5.370
 3740WAT     H211463   6.021   3.468   5.401
 3741WAT      O11464   8.617   9.248   0.099
 3741WAT     H111465   8.669   9.231   0.015
 3741WAT     H211466   8.627   9.171   0.161
 3742WAT      O11467   9.267   3.714   5.987
 3742WAT     H111468   9.337   3.707   6.058
 3742WAT     H211469   9.179   3.736   6.028
 3743WAT      O11470   9.447   7.111   1.995
 3743WAT     H111471   9.540   7.093   2.026
 3743WAT     H211472   9.385   7.111   2.074
 3744WAT      O11473   5.095   4.030   1.250
 3744WAT     H111474   5.080   4.129   1.258
 3744WAT     H211475   5.163   4.001   1.316
 3745WAT      O11476   7.312   2.793   2.088
 3745WAT     H111477   7.354   2.759   2.004
 3745WAT     H211478   7.229   2.843   2.066
 3746WAT      O11479   6.686   3.355   1.322
 3746WAT     H111480   6.588   3.339   1.312
 3746WAT     H211481   6.710   3.444   1.284
 3747WAT      O11482   7.032   7.426   4.922
 3747WAT     H111483   7.063   7.413   5.016
 3747WAT     H211484   7.056   7.346   4.867
 3748WAT      O11485   3.684   4.350   6.697
 3748WAT     H111486   3.656   4.384   6.787
 3748WAT     H211487   3.665   4.419   6.627
 3749WAT      O11488   8.354   1.123   6.564
 3749WAT     H111489   8.421   1.196   6.549
 3749WAT     H211490   8.387   1.063   6.637
 3750WAT      O11491   8.037   3.866   0.574
 3750WAT     H111492   8.039   3.831   0.480
 3750WAT     H211493   8.105   3.817   0.629
 3751WAT      O11494   6.092   2.341   4.892
 3751WAT     H111495   6.186   2.309   4.881
 3751WAT     H211496   6.085   2.396   4.976
 3752WAT      O11497   6.655   1.002   9.202
 3752WAT     H111498   6.697   0.919   9.240
 3752WAT     H211499   6.605   0.979   9.119
 3753WAT      O11500   9.289   3.471   2.367
 3753WAT     H111501   9.217   3.528   2.406
 3753WAT     H211502   9.300   3.388   2.423
 3754WAT      O11503   4.086   8.869   4.936
 3754WAT     H111504   4.148   8.791   4.937
 3754WAT     H211505   4.063   8.895   5.029
 3755WAT      O11506   4.612   1.413   5.814
 3755WAT     H111507   4.564   1.378   5.894
 3755WAT     H211508   4.709   1.392   5.821
 3756WAT      O11509   7.124   1.220   7.635
 3756WAT     H111510   7.080   1.159   7.569
 3756WAT     H211511   7.171   1.165   7.704
 3757WAT      O11512   9.472   9.006   6.776
 3757WAT     H111513   9.483   9.037   6.682
 3757WAT     H211514   9.399   8.938   6.781
 3758WAT      O11515   9.877   1.992   0.771
 3758WAT     H111516   9.907   2.050   0.847
 3758WAT     H211517   9.944   1.920   0.755
 3759WAT      O11518   1.764   0.266   8.768
 3759WAT     H111519   1.816   0.216   8.699
 3759WAT     H211520   1.810   0.258   8.856
 3760WAT      O11521   3.425   8.071   8.831
 3760WAT     H111522   3.351   8.014   8.866
 3760WAT     H211523   3.448   8.043   8.738
 3761WAT      O11524   4.985   5.678   5.756
 3761WAT     H111525   5.082   5.698   5.769
 3761WAT     H211526   4.951   5.728   5.676
 3762WAT      O11527   7.486   9.244   8.319
 3762WAT     H111528   7.568   9.217   8.268
 3762WAT     H211529   7.477   9.343   8.315
 3763WAT      O11530   4.291   0.284   7.871
 3763WAT     H111531   4.233   0.264   7.950
 3763WAT     H211532   4.387   0.266   7.895
 3764WAT      O11533   6.218   7.145   0.520
 3764WAT     H111534   6.255   7.069   0.574
 3764WAT     H211535   6.291   7.184   0.463
 3765WAT      O11536   3.165   1.578   5.362
 3765WAT     H111537   3.119   1.610   5.279
 3765WAT     H211538   3.239   1.516   5.337
 3766WAT      O11539   8.468   6.457   0.200
 3766WAT     H111540   8.479   6.391   0.275
 3766WAT     H211541   8.538   6.441   0.131
 3767WAT      O11542   8.095   7.198   2.035
 3767WAT     H111543   8.151   7.276   2.007
 3767WAT     H211544   8.141   7.150   2.110
 3768WAT      O11545   5.042   0.700   0.351
 3768WAT     H111546   5.077   0.771   0.290
 3768WAT     H211547   5.011   0.622   0.297
 3769WAT      O11548   0.475   6.378   9.803
 3769WAT     H111549   0.512   6.297   9.848
 3769WAT     H211550   0.446   6.444   9.873
 3770WAT      O11551   5.577   7.283   6.163
 3770WAT     H111552   5.481   7.272   6.138
 3770WAT     H211553   5.613   7.196   6.196
 3771WAT      O11554   3.282   9.498   6.219
 3771WAT     H111555   3.182   9.503   6.208
 3771WAT     H211556   3.304   9.434   6.293
 3772WAT      O11557   2.325   3.597   0.563
 3772WAT     H111558   2.330   3.685   0.611
 3772WAT     H211559   2.394   3.593   0.492
 3773WAT      O11560   7.984   4.445   2.575
 3773WAT     H111561   8.014   4.404   2.489
 3773WAT     H211562   8.062   4.487   2.621
 3774WAT      O11563   2.854   5.824   6.865
 3774WAT     H111564   2.929   5.759   6.877
 3774WAT     H211565   2.869   5.904   6.923
 3775WAT      O11566   8.649   4.754   0.080
 3775WAT     H111567   8.675   4.799   0.165
 3775WAT     H211568   8.715   4.777   0.009
 3776WAT      O11569   6.778   4.574   4.654
 3776WAT     H111570   6.784   4.476   4.672
 3776WAT     H211571   6.687   4.597   4.622
 3777WAT      O11572   3.954   1.435   0.864
 3777WAT     H111573   3.885   1.499   0.898
 3777WAT     H211574   3.909   1.350   0.835
 3778WAT      O11575   6.199   6.000   0.817
 3778WAT     H111576   6.101   6.019   0.825
 3778WAT     H211577   6.222   5.917   0.869
 3779WAT      O11578   8.536   6.735   0.088
 3779WAT     H111579   8.630   6.770   0.079
 3779WAT     H211580   8.539   6.643   0.128
 3780WAT      O11581   6.488   8.819   2.881
 3780WAT     H111582   6.497   8.861   2.791
 3780WAT     H211583   6.392   8.820   2.909
 3781WAT      O11584   4.845   3.137   4.497
 3781WAT     H111585   4.773   3.067   4.503
 3781WAT     H211586   4.933   3.093   4.477
 3782WAT      O11587   0.604   0.796   4.263
 3782WAT     H111588   0.528   0.846   4.306
 3782WAT     H211589   0.568   0.711   4.222
 3783WAT      O11590   3.691   1.221   6.165
 3783WAT     H111591   3.600   1.259   6.180
 3783WAT     H211592   3.751   1.243   6.241
 3784WAT      O11593   6.839   5.812   7.776
 3784WAT     H111594   6.896   5.746   7.727
 3784WAT     H211595   6.897   5.878   7.823
 3785WAT      O11596   2.616   6.344   0.139
 3785WAT     H111597   2.713   6.345   0.164
 3785WAT     H211598   2.595   6.425   0.084
 3786WAT      O11599   1.770   4.144   6.275
 3786WAT     H111600   1.746   4.219   6.336
 3786WAT     H211601   1.847   4.172   6.217
 3787WAT      O11602   2.229   4.839   5.295
 3787WAT     H111603   2.300   4.871   5.232
 3787WAT     H211604   2.145   4.821   5.244
 3788WAT      O11605   8.960   6.052   4.850
 3788WAT     H111606   8.917   6.048   4.760
 3788WAT     H211607   8.935   5.970   4.903
 3789WAT      O11608   4.276   1.655   8.959
 3789WAT     H111609   4.336   1.680   8.884
 3789WAT     H211610   4.321   1.675   9.046
 3790WAT      O11611   7.142   5.892   6.426
 3790WAT     H111612   7.056   5.859   6.465
 3790WAT     H211613   7.149   5.990   6.442
 3791WAT      O11614   1.327   7.130   7.547
 3791WAT     H111615   1.258   7.177   7.603
 3791WAT     H211616   1.283   7.060   7.491
 3792WAT      O11617   4.872   0.246   8.235
 3792WAT     H111618   4.786   0.274   8.277
 3792WAT     H211619   4.882   0.292   8.147
 3793WAT      O11620   1.283   8.036   7.373
 3793WAT     H111621   1.221   7.977   7.426
 3793WAT     H211622   1.366   7.985   7.350
 3794WAT      O11623   9.544   2.852   6.971
 3794WAT     H111624   9.596   2.779   7.014
 3794WAT     H211625   9.603   2.932   6.958
 3795WAT      O11626   9.478   4.862   4.521
 3795WAT     H111627   9.500   4.929   4.592
 3795WAT     H211628   9.504   4.771   4.553
 3796WAT      O11629   5.525   3.162   2.707
 3796WAT     H111630   5.589   3.109   2.652
 3796WAT     H211631   5.441   3.178   2.655
 3797WAT      O11632   9.219   5.137   2.053
 3797WAT     H111633   9.216   5.044   2.089
 3797WAT     H211634   9.143   5.150   1.989
 3798WAT      O11635   3.357   9.181   2.149
 3798WAT     H111636   3.447   9.203   2.188
 3798WAT     H211637   3.287   9.238   2.193
 3799WAT      O11638   7.870   0.122   9.402
 3799WAT     H111639   7.943   0.163   9.348
 3799WAT     H211640   7.797   0.091   9.342
 3800WAT      O11641   5.208   8.056   9.076
 3800WAT     H111642   5.116   8.022   9.097
 3800WAT     H211643   5.231   8.033   8.981
 3801WAT      O11644   2.026   8.257   9.408
 3801WAT     H111645   1.944   8.294   9.451
 3801WAT     H211646   2.022   8.157   9.410
 3802WAT      O11647   2.666   4.722   1.620
 3802WAT     H111648   2.749   4.717   1.675
 3802WAT     H211649   2.681   4.673   1.533
 3803WAT      O11650   4.221   0.922   9.796
 3803WAT     H111651   4.166   0.873   9.729
 3803WAT     H211652   4.315   0.888   9.795
 3804WAT      O11653   0.651   8.164   7.258
 3804WAT     H111654   0.685   8.086   7.205
 3804WAT     H211655   0.564   8.139   7.300
 3805WAT      O11656   8.722   7.390   0.538
 3805WAT     H111657   8.811   7.435   0.539
 3805WAT     H211658   8.662   7.436   0.473
 3806WAT      O11659   4.860   5.065   9.582
 3806WAT     H111660   4.798   5.143   9.576
 3806WAT     H211661   4.951   5.097   9.606
 3807WAT      O11662   1.152   8.470   0.102
 3807WAT     H111663   1.170   8.540   0.172
 3807WAT     H211664   1.235   8.416   0.088
 3808WAT      O11665   5.430   0.474   1.320
 3808WAT     H111666   5.364   0.546   1.343
 3808WAT     H211667   5.435   0.463   1.221
 3809WAT      O11668   1.540   5.795   3.865
 3809WAT     H111669   1.622   5.839   3.901
 3809WAT     H211670   1.469   5.796   3.936
 3810WAT      O11671   4.454   8.897   0.607
 3810WAT     H111672   4.412   8.904   0.517
 3810WAT     H211673   4.475   8.801   0.627
 3811WAT      O11674   4.538   3.056   6.768
 3811WAT     H111675   4.449   3.089   6.797
 3811WAT     H211676   4.595   3.133   6.740
 3812WAT      O11677   8.094   6.096   2.936
 3812WAT     H111678   8.169   6.095   3.002
 3812WAT     H211679   8.102   6.177   2.877
 3813WAT      O11680   3.669   2.918   9.562
 3813WAT     H111681   3.694   2.995   9.503
 3813WAT     H211682   3.592   2.944   9.620
 3814WAT      O11683   9.383   5.301   8.347
 3814WAT     H111684   9.446   5.282   8.271
 3814WAT     H211685   9.367   5.400   8.352
 3815WAT      O11686   0.404   7.492   8.518
 3815WAT     H111687   0.428   7.422   8.450
 3815WAT     H211688   0.430   7.460   8.609
 3816WAT      O11689   0.997   9.655   7.907
 3816WAT     H111690   0.974   9.580   7.968
 3816WAT     H211691   1.094   9.677   7.916
 3817WAT      O11692   7.062   3.192   1.530
 3817WAT     H111693   7.112   3.131   1.469
 3817WAT     H211694   7.120   3.268   1.558
 3818WAT      O11695   4.815   4.303   8.857
 3818WAT     H111696   4.788   4.367   8.929
 3818WAT     H211697   4.777   4.212   8.877
 3819WAT      O11698   3.762   4.632   1.521
 3819WAT     H111699   3.707   4.688   1.459
 3819WAT     H211700   3.704   4.599   1.596
 3820WAT      O11701   6.227   9.422   4.170
 3820WAT     H111702   6.215   9.377   4.081
 3820WAT     H211703   6.237   9.352   4.241
 3821WAT      O11704   6.529   0.954   2.343
 3821WAT     H111705   6.544   1.051   2.359
 3821WAT     H211706   6.475   0.916   2.419
 3822WAT      O11707   2.634   7.768   9.578
 3822WAT     H111708   2.676   7.751   9.667
 3822WAT     H211709   2.705   7.795   9.512
 3823WAT      O11710   9.824   9.079   6.594
 3823WAT     H111711   9.923   9.066   6.585
 3823WAT     H211712   9.802   9.175   6.583
 3824WAT      O11713   1.214   7.528   8.459
 3824WAT     H111714   1.181   7.479   8.378
 3824WAT     H211715   1.313   7.536   8.455
 3825WAT      O11716   2.765   6.082   6.558
 3825WAT     H111717   2.865   6.075   6.550
 3825WAT     H211718   2.722   6.024   6.489
 3826WAT      O11719   1.694   9.787   2.958
 3826WAT     H111720   1.712   9.885   2.954
 3826WAT     H211721   1.596   9.770   2.948
 3827WAT      O11722   3.494   8.242   3.174
 3827WAT     H111723   3.452   8.280   3.091
 3827WAT     H211724   3.592   8.263   3.174
 3828WAT      O11725   4.982   6.765   8.236
 3828WAT     H111726   4.990   6.810   8.325
 3828WAT     H211727   4.891   6.784   8.197
 3829WAT      O11728   5.578   6.854   2.617
 3829WAT     H111729   5.515   6.921   2.578
 3829WAT     H211730   5.631   6.897   2.691
 3830WAT      O11731   4.301   1.669   0.623
 3830WAT     H111732   4.259   1.757   0.645
 3830WAT     H211733   4.363   1.680   0.546
 3831WAT      O11734   1.246   8.581   9.226
 3831WAT     H111735   1.281   8.573   9.319
 3831WAT     H211736   1.310   8.634   9.170
 3832WAT      O11737   4.931   3.206   5.799
 3832WAT     H111738   4.924   3.304   5.819
 3832WAT     H211739   4.870   3.156   5.860
 3833WAT      O11740   2.739   1.456   3.315
 3833WAT     H111741   2.696   1.383   3.368
 3833WAT     H211742   2.677   1.486   3.243
 3834WAT      O11743   5.111   6.920   4.685
 3834WAT     H111744   5.160   6.938   4.770
 3834WAT     H211745   5.116   7.000   4.625
 3835WAT      O11746   0.016   6.190   5.068
 3835WAT     H111747   0.046   6.098   5.093
 3835WAT     H211748   0.095   6.244   5.039
 3836WAT      O11749   1.499   8.383   7.775
 3836WAT     H111750   1.489   8.391   7.676
 3836WAT     H211751   1.553   8.460   7.809
 3837WAT      O11752   7.922   8.142   6.022
 3837WAT     H111753   7.999   8.114   6.079
 3837WAT     H211754   7.918   8.084   5.940
 3838WAT      O11755   9.787   5.893   9.115
 3838WAT     H111756   9.831   5.812   9.151
 3838WAT     H211757   9.693   5.872   9.089
 3839WAT      O11758   7.425   2.664   0.006
 3839WAT     H111759   7.421   2.593  -0.064
 3839WAT     H211760   7.496   2.731  -0.017
 3840WAT      O11761   1.109   7.783   8.563
 3840WAT     H111762   1.037   7.749   8.623
 3840WAT     H211763   1.143   7.708   8.506
 3841WAT      O11764   5.559   8.160   3.186
 3841WAT     H111765   5.575   8.104   3.105
 3841WAT     H211766   5.509   8.107   3.254
 3842WAT      O11767   8.328   4.548   3.151
 3842WAT     H111768   8.244   4.603   3.163
 3842WAT     H211769   8.382   4.552   3.235
 3843WAT      O11770   5.532   1.250   3.310
 3843WAT     H111771   5.450   1.306   3.301
 3843WAT     H211772   5.613   1.308   3.313
 3844WAT      O11773   2.635   6.126   5.967
 3844WAT     H111774   2.565   6.188   6.001
 3844WAT     H211775   2.642   6.134   5.868
 3845WAT      O11776   0.953   7.094   2.394
 3845WAT     H111777   0.920   7.009   2.354
 3845WAT     H211778   0.885   7.166   2.377
 3846WAT      O11779   0.780   0.443   8.460
 3846WAT     H111780   0.757   0.510   8.530
 3846WAT     H211781   0.711   0.371   8.460
 3847WAT      O11782   2.227   0.886   4.673
 3847WAT     H111783   2.235   0.959   4.605
 3847WAT     H211784   2.131   0.875   4.699
 3848WAT      O11785   9.552   5.371   7.916
 3848WAT     H111786   9.625   5.303   7.923
 3848WAT     H211787   9.546   5.404   7.822
 3849WAT      O11788   6.033   0.794   1.299
 3849WAT     H111789   6.068   0.876   1.344
 3849WAT     H211790   5.933   0.793   1.304
 3850WAT      O11791   5.546   2.151   3.679
 3850WAT     H111792   5.645   2.142   3.664
 3850WAT     H211793   5.501   2.067   3.652
 3851WAT      O11794   6.048   3.537   0.173
 3851WAT     H111795   5.996   3.545   0.087
 3851WAT     H211796   6.014   3.459   0.225
 3852WAT      O11797   7.685   1.407   8.288
 3852WAT     H111798   7.746   1.430   8.364
 3852WAT     H211799   7.722   1.446   8.203
 3853WAT      O11800   2.351   5.894   8.977
 3853WAT     H111801   2.437   5.844   8.980
 3853WAT     H211802   2.279   5.835   8.941
 3854WAT      O11803   8.965   5.434   6.886
 3854WAT     H111804   8.975   5.343   6.928
 3854WAT     H211805   8.922   5.424   6.796
 3855WAT      O11806   0.337   5.796   8.302
 3855WAT     H111807   0.263   5.852   8.264
 3855WAT     H211808   0.366   5.836   8.390
 3856WAT      O11809   3.609   2.682   0.672
 3856WAT     H111810   3.597   2.607   0.606
 3856WAT     H211811   3.613   2.645   0.765
 3857WAT      O11812   2.329   3.637   5.941
 3857WAT     H111813   2.314   3.578   6.020
 3857WAT     H211814   2.385   3.589   5.874
 3858WAT      O11815   4.302   1.928   7.303
 3858WAT     H111816   4.385   1.918   7.358
 3858WAT     H211817   4.236   1.859   7.330
 3859WAT      O11818   3.334   4.549   8.069
 3859WAT     H111819   3.278   4.550   7.987
 3859WAT     H211820   3.416   4.493   8.053
 3860WAT      O11821   9.662   3.056   7.563
 3860WAT     H111822   9.705   3.024   7.478
 3860WAT     H211823   9.607   3.137   7.544
 3861WAT      O11824   4.527   6.552   7.678
 3861WAT     H111825   4.458   6.582   7.743
 3861WAT     H211826   4.614   6.598   7.698
 3862WAT      O11827   9.015   2.451   1.075
 3862WAT     H111828   8.975   2.443   1.166
 3862WAT     H211829   9.003   2.365   1.025
 3863WAT      O11830   5.048   0.170   9.101
 3863WAT     H111831   4.995   0.216   9.030
 3863WAT     H211832   5.045   0.071   9.086
 3864WAT      O11833   5.614   7.715   5.053
 3864WAT     H111834   5.683   7.777   5.014
 3864WAT     H211835   5.612   7.630   5.000
 3865WAT      O11836   1.677   0.921   2.822
 3865WAT     H111837   1.649   0.904   2.917
 3865WAT     H211838   1.626   0.862   2.761
 3866WAT      O11839   4.130   4.299   3.803
 3866WAT     H111840   4.229   4.310   3.802
 3866WAT     H211841   4.090   4.354   3.728
 3867WAT      O11842   2.892   1.622   5.588
 3867WAT     H111843   2.943   1.704   5.614
 3867WAT     H211844   2.825   1.646   5.518
 3868WAT      O11845   1.795   5.295   1.536
 3868WAT     H111846   1.748   5.207   1.526
 3868WAT     H211847   1.793   5.323   1.632
 3869WAT      O11848   9.805   7.195   4.517
 3869WAT     H111849   9.802   7.294   4.504
 3869WAT     H211850   9.713   7.162   4.541
 3870WAT      O11851   9.098   9.617   4.581
 3870WAT     H111852   9.106   9.693   4.645
 3870WAT     H211853   9.070   9.650   4.491
 3871WAT      O11854   7.212   1.874   7.328
 3871WAT     H111855   7.147   1.908   7.396
 3871WAT     H211856   7.235   1.779   7.349
 3872WAT      O11857   4.229   2.332   6.817
 3872WAT     H111858   4.194   2.330   6.723
 3872WAT     H211859   4.255   2.240   6.845
 3873WAT      O11860   3.875   4.205   3.458
 3873WAT     H111861   3.865   4.299   3.490
 3873WAT     H211862   3.956   4.164   3.500
 3874WAT      O11863   0.389   7.194   6.154
 3874WAT     H111864   0.343   7.142   6.082
 3874WAT     H211865   0.371   7.152   6.243
 3875WAT      O11866   0.612   2.126   8.168
 3875WAT     H111867   0.674   2.149   8.093
 3875WAT     H211868   0.535   2.189   8.168
 3876WAT      O11869   7.502   5.270   9.738
 3876WAT     H111870   7.510   5.368   9.724
 3876WAT     H211871   7.405   5.245   9.745
 3877WAT      O11872   1.698   8.643   0.633
 3877WAT     H111873   1.728   8.595   0.551
 3877WAT     H211874   1.752   8.726   0.646
 3878WAT      O11875   0.814   2.125   3.310
 3878WAT     H111876   0.832   2.056   3.380
 3878WAT     H211877   0.881   2.116   3.236
 3879WAT      O11878   0.284   2.815   9.241
 3879WAT     H111879   0.227   2.818   9.160
 3879WAT     H211880   0.369   2.766   9.221
 3880WAT      O11881   8.962   2.868   7.941
 3880WAT     H111882   8.972   2.966   7.956
 3880WAT     H211883   8.960   2.848   7.843
 3881WAT      O11884   7.065   0.064   7.562
 3881WAT     H111885   7.163   0.044   7.563
 3881WAT     H211886   7.051   0.163   7.566
 3882WAT      O11887   9.575   7.150   2.546
 3882WAT     H111888   9.647   7.184   2.605
 3882WAT     H211889   9.532   7.226   2.497
 3883WAT      O11890   4.554   0.095   4.125
 3883WAT     H111891   4.634   0.059   4.077
 3883WAT     H211892   4.548   0.053   4.216
 3884WAT      O11893   7.163   2.377   0.420
 3884WAT     H111894   7.204   2.288   0.400
 3884WAT     H211895   7.080   2.388   0.365
 3885WAT      O11896   5.914   2.386   6.343
 3885WAT     H111897   5.869   2.422   6.261
 3885WAT     H211898   6.006   2.426   6.350
 3886WAT      O11899   7.814   1.860   1.369
 3886WAT     H111900   7.781   1.802   1.443
 3886WAT     H211901   7.831   1.953   1.404
 3887WAT      O11902   5.007   1.213   4.089
 3887WAT     H111903   5.036   1.281   4.021
 3887WAT     H211904   4.964   1.260   4.166
 3888WAT      O11905   1.696   0.437   8.327
 3888WAT     H111906   1.605   0.441   8.285
 3888WAT     H211907   1.688   0.442   8.426
 3889WAT      O11908   3.108   1.113   8.025
 3889WAT     H111909   3.146   1.201   8.000
 3889WAT     H211910   3.179   1.043   8.021
 3890WAT      O11911   9.513   2.171   3.669
 3890WAT     H111912   9.517   2.222   3.754
 3890WAT     H211913   9.451   2.093   3.680
 3891WAT      O11914   2.680   4.124   4.436
 3891WAT     H111915   2.682   4.222   4.415
 3891WAT     H211916   2.769   4.095   4.470
 3892WAT      O11917   0.741   0.340   5.733
 3892WAT     H111918   0.683   0.317   5.654
 3892WAT     H211919   0.688   0.395   5.798
 3893WAT      O11920   2.607   3.368   7.898
 3893WAT     H111921   2.528   3.421   7.866
 3893WAT     H211922   2.606   3.365   7.998
 3894WAT      O11923   5.746   1.979   1.862
 3894WAT     H111924   5.669   2.033   1.896
 3894WAT     H211925   5.713   1.889   1.832
 3895WAT      O11926   7.712   2.908   3.889
 3895WAT     H111927   7.737   2.967   3.967
 3895WAT     H211928   7.708   2.963   3.806
 3896WAT      O11929   0.656   9.826   2.314
 3896WAT     H111930   0.651   9.731   2.285
 3896WAT     H211931   0.659   9.831   2.414
 3897WAT      O11932   8.322   5.740   4.381
 3897WAT     H111933   8.316   5.653   4.333
 3897WAT     H211934   8.302   5.726   4.478
 3898WAT      O11935   0.418   6.506   9.009
 3898WAT     H111936   0.348   6.446   9.048
 3898WAT     H211937   0.417   6.594   9.056
 3899WAT      O11938   7.658   1.511   5.750
 3899WAT     H111939   7.752   1.544   5.741
 3899WAT     H211940   7.594   1.585   5.732
 3900WAT      O11941   5.862   8.635   9.828
 3900WAT     H111942   5.899   8.545   9.806
 3900WAT     H211943   5.811   8.670   9.749
 3901WAT      O11944   8.784   6.447   1.453
 3901WAT     H111945   8.859   6.397   1.409
 3901WAT     H211946   8.819   6.531   1.494
 3902WAT      O11947   5.811   6.817   4.611
 3902WAT     H111948   5.756   6.753   4.558
 3902WAT     H211949   5.863   6.768   4.681
 3903WAT      O11950   2.669   5.914   6.374
 3903WAT     H111951   2.743   5.864   6.329
 3903WAT     H211952   2.596   5.850   6.397
 3904WAT      O11953   2.711   4.956   3.614
 3904WAT     H111954   2.696   5.048   3.576
 3904WAT     H211955   2.636   4.896   3.587
 3905WAT      O11956   4.642   1.334   0.922
 3905WAT     H111957   4.578   1.289   0.985
 3905WAT     H211958   4.686   1.265   0.864
 3906WAT      O11959   8.948   6.030   9.335
 3906WAT     H111960   8.900   6.076   9.261
 3906WAT     H211961   9.047   6.037   9.320
 3907WAT      O11962   2.148   2.285   3.351
 3907WAT     H111963   2.240   2.325   3.351
 3907WAT     H211964   2.108   2.294   3.259
 3908WAT      O11965   1.540   9.567   5.077
 3908WAT     H111966   1.608   9.500   5.106
 3908WAT     H211967   1.569   9.609   4.991
 3909WAT      O11968   3.486   5.432   0.748
 3909WAT     H111969   3.567   5.424   0.806
 3909WAT     H211970   3.447   5.341   0.733
 3910WAT      O11971   5.827   2.068   5.313
 3910WAT     H111972   5.902   2.003   5.318
 3910WAT     H211973   5.785   2.078   5.403
 3911WAT      O11974   7.385   1.864   3.637
 3911WAT     H111975   7.420   1.908   3.554
 3911WAT     H211976   7.409   1.919   3.717
 3912WAT      O11977   9.795   9.515   5.706
 3912WAT     H111978   9.843   9.602   5.703
 3912WAT     H211979   9.834   9.453   5.639
 3913WAT      O11980   6.246   1.209   8.349
 3913WAT     H111981   6.229   1.152   8.268
 3913WAT     H211982   6.235   1.305   8.325
 3914WAT      O11983   7.254   3.951   6.603
 3914WAT     H111984   7.264   4.034   6.549
 3914WAT     H211985   7.276   3.871   6.546
 3915WAT      O11986   4.256   7.061   2.464
 3915WAT     H111987   4.332   7.062   2.530
 3915WAT     H211988   4.260   6.977   2.409
 3916WAT      O11989   4.804   7.684   3.780
 3916WAT     H111990   4.720   7.696   3.726
 3916WAT     H211991   4.846   7.773   3.796
 3917WAT      O11992   2.733   8.309   5.762
 3917WAT     H111993   2.677   8.365   5.701
 3917WAT     H211994   2.673   8.260   5.826
 3918WAT      O11995   2.103   3.266   7.785
 3918WAT     H111996   2.197   3.235   7.803
 3918WAT     H211997   2.101   3.318   7.700
 3919WAT      O11998   5.539   5.440   2.576
 3919WAT     H111999   5.475   5.364   2.567
 3919WAT     H212000   5.621   5.422   2.521
 3920WAT      O12001   2.297   6.738   3.658
 3920WAT     H112002   2.319   6.827   3.698
 3920WAT     H212003   2.272   6.674   3.731
 3921WAT      O12004   7.841   0.032   2.358
 3921WAT     H112005   7.823   0.114   2.303
 3921WAT     H212006   7.777   0.029   2.435
 3922WAT      O12007   5.972   0.553   0.937
 3922WAT     H112008   5.892   0.518   0.888
 3922WAT     H212009   5.962   0.535   1.035
 3923WAT      O12010   8.932   0.999   7.551
 3923WAT     H112011   8.964   1.053   7.474
 3923WAT     H212012   8.834   0.982   7.541
 3924WAT      O12013   8.623   1.169   1.184
 3924WAT     H112014   8.547   1.133   1.131
 3924WAT     H212015   8.673   1.094   1.228
 3925WAT      O12016   4.382   9.633   6.034
 3925WAT     H112017   4.300   9.689   6.024
 3925WAT     H212018   4.437   9.668   6.110
 3926WAT      O12019   1.460   6.682   7.314
 3926WAT     H112020   1.377   6.638   7.350
 3926WAT     H212021   1.435   6.769   7.272
 3927WAT      O12022   4.806   1.145   0.722
 3927WAT     H112023   4.852   1.222   0.679
 3927WAT     H212024   4.873   1.075   0.747
 3928WAT      O12025   5.520   9.581   5.248
 3928WAT     H112026   5.488   9.519   5.177
 3928WAT     H212027   5.544   9.669   5.207
 3929WAT      O12028   6.492   0.546   0.561
 3929WAT     H112029   6.552   0.469   0.580
 3929WAT     H212030   6.472   0.549   0.463
 3930WAT      O12031   3.779   6.408   2.331
 3930WAT     H112032   3.771   6.427   2.429
 3930WAT     H212033   3.691   6.422   2.287
 3931WAT      O12034   0.757   1.966   2.160
 3931WAT     H112035   0.779   1.912   2.078
 3931WAT     H212036   0.677   1.927   2.205
 3932WAT      O12037   6.005   7.057   0.078
 3932WAT     H112038   5.971   7.093  -0.009
 3932WAT     H212039   5.928   7.023   0.132
 3933WAT      O12040   7.081   2.915   2.441
 3933WAT     H112041   7.065   2.823   2.477
 3933WAT     H212042   7.158   2.956   2.490
 3934WAT      O12043   1.132   1.789   7.913
 3934WAT     H112044   1.117   1.888   7.917
 3934WAT     H212045   1.175   1.765   7.827
 3935WAT      O12046   4.206   8.972   3.137
 3935WAT     H112047   4.241   8.920   3.060
 3935WAT     H212048   4.109   8.949   3.152
 3936WAT      O12049   9.852   2.496   8.693
 3936WAT     H112050   9.838   2.420   8.756
 3936WAT     H212051   9.766   2.547   8.683
 3937WAT      O12052   6.794   3.871   3.451
 3937WAT     H112053   6.800   3.777   3.415
 3937WAT     H212054   6.867   3.886   3.518
 3938WAT      O12055   4.263   0.798   0.303
 3938WAT     H112056   4.300   0.889   0.282
 3938WAT     H212057   4.254   0.788   0.402
 3939WAT      O12058   2.766   4.331   4.052
 3939WAT     H112059   2.833   4.336   3.977
 3939WAT     H212060   2.756   4.236   4.081
 3940WAT      O12061   9.427   2.528   7.873
 3940WAT     H112062   9.373   2.604   7.838
 3940WAT     H212063   9.483   2.559   7.950
 3941WAT      O12064   5.310   9.262   2.185
 3941WAT     H112065   5.229   9.214   2.151
 3941WAT     H212066   5.342   9.327   2.117
 3942WAT      O12067   0.820   8.625   3.129
 3942WAT     H112068   0.753   8.651   3.060
 3942WAT     H212069   0.794   8.538   3.170
 3943WAT      O12070   0.898   2.955   2.608
 3943WAT     H112071   0.932   2.877   2.661
 3943WAT     H212072   0.799   2.948   2.597
 3944WAT      O12073   2.128   0.336   9.111
 3944WAT     H112074   2.130   0.344   9.211
 3944WAT     H212075   2.220   0.315   9.078
 3945WAT      O12076   9.035   6.040   5.525
 3945WAT     H112077   8.981   6.080   5.599
 3945WAT     H212078   9.016   6.090   5.440
 3946WAT      O12079   5.987   2.379   9.710
 3946WAT     H112080   6.066   2.386   9.650
 3946WAT     H212081   5.909   2.344   9.659
 3947WAT      O12082   0.791   7.305   2.376
 3947WAT     H112083   0.721   7.311   2.304
 3947WAT     H212084   0.746   7.305   2.466
 3948WAT      O12085   9.545   8.081   3.311
 3948WAT     H112086   9.642   8.063   3.331
 3948WAT     H212087   9.489   8.009   3.352
 3949WAT      O12088   2.931   8.832   2.955
 3949WAT     H112089   2.953   8.928   2.972
 3949WAT     H212090   2.986   8.798   2.878
 3950WAT      O12091   8.551   7.923   4.900
 3950WAT     H112092   8.458   7.943   4.929
 3950WAT     H212093   8.550   7.879   4.811
 3951WAT      O12094   4.861   4.524   8.129
 3951WAT     H112095   4.912   4.442   8.103
 3951WAT     H212096   4.763   4.503   8.133
 3952WAT      O12097   2.748   2.764   7.827
 3952WAT     H112098   2.725   2.709   7.746
 3952WAT     H212099   2.709   2.856   7.818
 3953WAT      O12100   4.425   6.221   4.340
 3953WAT     H112101   4.458   6.156   4.409
 3953WAT     H212102   4.453   6.190   4.249
 3954WAT      O12103   7.307   3.442   9.382
 3954WAT     H112104   7.273   3.356   9.421
 3954WAT     H212105   7.278   3.450   9.287
 3955WAT      O12106   6.132   5.826   7.653
 3955WAT     H112107   6.050   5.863   7.695
 3955WAT     H212108   6.156   5.881   7.572
 3956WAT      O12109   3.055   0.749   7.835
 3956WAT     H112110   3.146   0.778   7.805
 3956WAT     H212111   3.063   0.672   7.897
 3957WAT      O12112   3.513   5.445   4.446
 3957WAT     H112113   3.430   5.412   4.401
 3957WAT     H212114   3.503   5.542   4.466
 3958WAT      O12115   4.099   6.972   0.064
 3958WAT     H112116   4.077   6.909  -0.011
 3958WAT     H212117   4.181   6.939   0.112
 3959WAT      O12118   2.388   2.721   6.965
 3959WAT     H112119   2.364   2.659   6.890
 3959WAT     H212120   2.454   2.677   7.026
 3960WAT      O12121   4.961   0.278   4.572
 3960WAT     H112122   4.993   0.324   4.655
 3960WAT     H212123   5.025   0.295   4.497
 3961WAT      O12124   2.311   4.132   7.905
 3961WAT     H112125   2.377   4.201   7.935
 3961WAT     H212126   2.264   4.163   7.822
 3962WAT      O12127   2.744   2.019   0.770
 3962WAT     H112128   2.695   1.932   0.773
 3962WAT     H212129   2.741   2.061   0.861
 3963WAT      O12130   7.707   8.536   9.114
 3963WAT     H112131   7.647   8.557   9.191
 3963WAT     H212132   7.756   8.450   9.131
 3964WAT      O12133   6.644   1.777   4.338
 3964WAT     H112134   6.595   1.724   4.408
 3964WAT     H212135   6.740   1.784   4.363
 3965WAT      O12136   2.821   4.564   5.432
 3965WAT     H112137   2.772   4.604   5.510
 3965WAT     H212138   2.781   4.476   5.409
 3966WAT      O12139   7.478   5.084   9.270
 3966WAT     H112140   7.505   5.124   9.358
 3966WAT     H212141   7.379   5.079   9.264
 3967WAT      O12142   1.827   4.760   8.779
 3967WAT     H112143   1.784   4.849   8.793
 3967WAT     H212144   1.771   4.705   8.718
 3968WAT      O12145   0.982   9.818   5.598
 3968WAT     H112146   0.917   9.828   5.523
 3968WAT     H212147   0.956   9.881   5.672
 3969WAT      O12148   2.721   2.316   0.839
 3969WAT     H112149   2.720   2.225   0.798
 3969WAT     H212150   2.789   2.319   0.912
 3970WAT      O12151   3.792   8.126   9.289
 3970WAT     H112152   3.816   8.188   9.215
 3970WAT     H212153   3.793   8.176   9.376
 3971WAT      O12154   3.803   5.767   2.244
 3971WAT     H112155   3.727   5.788   2.182
 3971WAT     H212156   3.889   5.797   2.202
 3972WAT      O12157   8.601   0.031   2.494
 3972WAT     H112158   8.509   0.043   2.456
 3972WAT     H212159   8.664   0.095   2.450
 3973WAT      O12160   8.375   3.772   5.882
 3973WAT     H112161   8.333   3.837   5.819
 3973WAT     H212162   8.346   3.793   5.975
 3974WAT      O12163   3.455   4.530   8.541
 3974WAT     H112164   3.444   4.498   8.447
 3974WAT     H212165   3.532   4.594   8.545
 3975WAT      O12166   0.399   9.340   6.933
 3975WAT     H112167   0.429   9.396   6.855
 3975WAT     H212168   0.479   9.303   6.980
 3976WAT      O12169   0.511   0.226   3.821
 3976WAT     H112170   0.505   0.322   3.793
 3976WAT     H212171   0.601   0.190   3.799
 3977WAT      O12172   3.505   5.991   1.466
 3977WAT     H112173   3.406   6.000   1.477
 3977WAT     H212174   3.524   5.947   1.379
 3978WAT      O12175   2.531   4.657   0.610
 3978WAT     H112176   2.511   4.584   0.545
 3978WAT     H212177   2.630   4.673   0.612
 3979WAT      O12178   6.543   6.853   1.397
 3979WAT     H112179   6.506   6.878   1.486
 3979WAT     H212180   6.488   6.779   1.358
 3980WAT      O12181   7.044   1.464   8.093
 3980WAT     H112182   7.046   1.377   8.142
 3980WAT     H212183   6.984   1.528   8.141
 3981WAT      O12184   8.285   1.010   3.888
 3981WAT     H112185   8.315   1.102   3.863
 3981WAT     H212186   8.197   1.015   3.935
 3982WAT      O12187   3.503   5.246   6.241
 3982WAT     H112188   3.421   5.191   6.229
 3982WAT     H212189   3.484   5.320   6.307
 3983WAT      O12190   7.293   3.953   1.012
 3983WAT     H112191   7.280   3.934   0.915
 3983WAT     H212192   7.219   3.911   1.065
 3984WAT      O12193   3.396   9.242   3.665
 3984WAT     H112194   3.372   9.216   3.758
 3984WAT     H212195   3.360   9.333   3.645
 3985WAT      O12196   1.129   5.972   5.855
 3985WAT     H112197   1.058   6.036   5.826
 3985WAT     H212198   1.087   5.897   5.906
 3986WAT      O12199   3.776   8.933   8.920
 3986WAT     H112200   3.728   8.895   8.999
 3986WAT     H212201   3.869   8.958   8.946
 3987WAT      O12202   8.267   2.305   4.543
 3987WAT     H112203   8.226   2.307   4.452
 3987WAT     H212204   8.331   2.228   4.549
 3988WAT      O12205   1.855   3.232   3.376
 3988WAT     H112206   1.855   3.204   3.472
 3988WAT     H212207   1.943   3.208   3.335
 3989WAT      O12208   5.996   3.629   7.380
 3989WAT     H112209   5.958   3.653   7.469
 3989WAT     H212210   5.982   3.706   7.316
 3990WAT      O12211   2.421   6.328   0.353
 3990WAT     H112212   2.441   6.244   0.403
 3990WAT     H212213   2.494   6.347   0.288
 3991WAT      O12214   7.414   8.980   7.841
 3991WAT     H112215   7.367   8.913   7.899
 3991WAT     H212216   7.353   9.008   7.767
 3992WAT      O12217   6.240   8.636   8.122
 3992WAT     H112218   6.215   8.643   8.025
 3992WAT     H212219   6.222   8.722   8.168
 3993WAT      O12220   5.091   8.787   1.832
 3993WAT     H112221   5.146   8.818   1.754
 3993WAT     H212222   5.123   8.697   1.861
 3994WAT      O12223   3.024   2.154   1.234
 3994WAT     H112224   2.992   2.216   1.163
 3994WAT     H212225   2.978   2.175   1.320
 3995WAT      O12226   9.028   6.737   0.507
 3995WAT     H112227   8.978   6.818   0.540
 3995WAT     H212228   8.979   6.654   0.533
 3996WAT      O12229   5.182   9.482   8.566
 3996WAT     H112230   5.083   9.468   8.562
 3996WAT     H212231   5.202   9.576   8.538
 3997WAT      O12232   4.086   5.372   2.249
 3997WAT     H112233   4.024   5.311   2.298
 3997WAT     H212234   4.080   5.464   2.289
 3998WAT      O12235   0.004   3.072   5.929
 3998WAT     H112236   0.072   3.004   5.900
 3998WAT     H212237   0.050   3.147   5.976
 3999WAT      O12238   6.045   1.450   0.715
 3999WAT     H112239   6.078   1.358   0.693
 3999WAT     H212240   5.989   1.447   0.798
 4000WAT      O12241   9.014   5.113   3.948
 4000WAT     H112242   8.923   5.074   3.960
 4000WAT     H212243   9.081   5.056   3.996
 4001WAT      O12244   3.375   2.376   3.322
 4001WAT     H112245   3.406   2.303   3.382
 4001WAT     H212246   3.324   2.444   3.375
 4002WAT      O12247   4.255   7.387   9.778
 4002WAT     H112248   4.339   7.406   9.728
 4002WAT     H212249   4.189   7.461   9.763
 4003WAT      O12250   5.145   3.203   5.054
 4003WAT     H112251   5.160   3.144   5.133
 4003WAT     H212252   5.165   3.153   4.970
 4004WAT      O12253   0.885   3.675   2.187
 4004WAT     H112254   0.827   3.699   2.109
 4004WAT     H212255   0.867   3.738   2.262
 4005WAT      O12256   3.751   6.896   4.654
 4005WAT     H112257   3.656   6.922   4.673
 4005WAT     H212258   3.753   6.823   4.586
 4006WAT      O12259   2.052   1.877   8.331
 4006WAT     H112260   2.038   1.835   8.421
 4006WAT     H212261   1.965   1.913   8.297
 4007WAT      O12262   9.420   3.385   8.818
 4007WAT     H112263   9.449   3.452   8.749
 4007WAT     H212264   9.332   3.346   8.792
 4008WAT      O12265   3.078   3.703   3.485
 4008WAT     H112266   3.164   3.669   3.522
 4008WAT     H212267   3.057   3.792   3.525
 4009WAT      O12268   2.626   1.613   7.885
 4009WAT     H112269   2.684   1.691   7.864
 4009WAT     H212270   2.671   1.528   7.856
 4010WAT      O12271   8.022   7.424   3.301
 4010WAT     H112272   7.962   7.488   3.348
 4010WAT     H212273   7.973   7.338   3.284
 4011WAT      O12274   3.252   1.890   6.235
 4011WAT     H112275   3.239   1.833   6.155
 4011WAT     H212276   3.330   1.951   6.220
 4012WAT      O12277   9.001   5.912   1.553
 4012WAT     H112278   8.964   5.918   1.646
 4012WAT     H212279   8.946   5.967   1.491
 4013WAT      O12280   6.685   3.142   8.283
 4013WAT     H112281   6.716   3.077   8.353
 4013WAT     H212282   6.656   3.092   8.201
 4014WAT      O12283   5.884   4.965   8.148
 4014WAT     H112284   5.886   4.997   8.053
 4014WAT     H212285   5.966   4.997   8.196
 4015WAT      O12286   0.576   3.798   4.882
 4015WAT     H112287   0.671   3.774   4.902
 4015WAT     H212288   0.559   3.893   4.911
 4016WAT      O12289   5.981   0.163   7.606
 4016WAT     H112290   6.015   0.122   7.691
 4016WAT     H212291   5.992   0.098   7.531
 4017WAT      O12292   2.589   3.327   2.742
 4017WAT     H112293   2.494   3.334   2.775
 4017WAT     H212294   2.590   3.275   2.656
 4018WAT      O12295   1.649   7.623   3.469
 4018WAT     H112296   1.569   7.675   3.440
 4018WAT     H212297   1.659   7.631   3.568
 4019WAT      O12298   4.106   1.412   8.993
 4019WAT     H112299   4.112   1.343   8.921
 4019WAT     H212300   4.166   1.489   8.971
 4020WAT      O12301   6.996   9.531   1.089
 4020WAT     H112302   6.998   9.588   1.007
 4020WAT     H212303   6.905   9.489   1.098
 4021WAT      O12304   0.911   7.473   8.978
 4021WAT     H112305   0.908   7.408   8.902
 4021WAT     H212306   0.924   7.424   9.064
 4022WAT      O12307   5.162   2.776   7.318
 4022WAT     H112308   5.217   2.697   7.289
 4022WAT     H212309   5.160   2.844   7.245
 4023WAT      O12310   1.416   4.230   1.538
 4023WAT     H112311   1.503   4.192   1.507
 4023WAT     H212312   1.375   4.282   1.463
 4024WAT      O12313   0.537   2.519   0.205
 4024WAT     H112314   0.509   2.441   0.149
 4024WAT     H212315   0.582   2.588   0.147
 4025WAT      O12316   3.918   5.946   2.993
 4025WAT     H112317   3.983   5.988   3.056
 4025WAT     H212318   3.925   5.989   2.903
 4026WAT      O12319   0.704   5.934   0.123
 4026WAT     H112320   0.758   5.902   0.201
 4026WAT     H212321   0.763   5.986   0.061
 4027WAT      O12322   7.138   0.448   9.810
 4027WAT     H112323   7.182   0.526   9.854
 4027WAT     H212324   7.205   0.401   9.752
 4028WAT      O12325   8.720   1.801   6.430
 4028WAT     H112326   8.740   1.890   6.391
 4028WAT     H212327   8.708   1.734   6.357
 4029WAT      O12328   5.182   3.008   7.106
 4029WAT     H112329   5.246   3.074   7.066
 4029WAT     H212330   5.097   3.055   7.130
 4030WAT      O12331   4.582   2.774   3.706
 4030WAT     H112332   4.508   2.791   3.641
 4030WAT     H212333   4.669   2.797   3.663
 4031WAT      O12334   4.282   1.104   7.009
 4031WAT     H112335   4.203   1.140   7.058
 4031WAT     H212336   4.288   1.146   6.919
 4032WAT      O12337   9.568   3.084   2.981
 4032WAT     H112338   9.511   3.032   2.918
 4032WAT     H212339   9.664   3.057   2.969
 4033WAT      O12340   7.183   6.806   1.296
 4033WAT     H112341   7.243   6.726   1.292
 4033WAT     H212342   7.116   6.794   1.369
 4034WAT      O12343   7.745   7.493   3.186
 4034WAT     H112344   7.826   7.473   3.130
 4034WAT     H212345   7.774   7.534   3.273
 4035WAT      O12346   5.437   7.096   2.564
 4035WAT     H112347   5.343   7.085   2.529
 4035WAT     H212348   5.440   7.174   2.626
 4036WAT      O12349   4.241   6.176   5.848
 4036WAT     H112350   4.154   6.226   5.842
 4036WAT     H212351   4.232   6.089   5.800
 4037WAT      O12352   5.009   7.110   8.285
 4037WAT     H112353   5.089   7.101   8.344
 4037WAT     H212354   4.928   7.127   8.341
 4038WAT      O12355   1.313   6.343   9.812
 4038WAT     H112356   1.377   6.394   9.869
 4038WAT     H212357   1.273   6.269   9.865
 4039WAT      O12358   5.487   4.450   5.219
 4039WAT     H112359   5.448   4.515   5.285
 4039WAT     H212360   5.521   4.370   5.267
 4040WAT      O12361   5.951   0.665   4.338
 4040WAT     H112362   6.039   0.625   4.361
 4040WAT     H212363   5.934   0.656   4.240
 4041WAT      O12364   8.698   8.842   4.393
 4041WAT     H112365   8.665   8.840   4.488
 4041WAT     H212366   8.627   8.880   4.334
 4042WAT      O12367   2.867   4.706   9.049
 4042WAT     H112368   2.800   4.638   9.079
 4042WAT     H212369   2.933   4.663   8.987
 4043WAT      O12370   6.247   9.121   5.139
 4043WAT     H112371   6.169   9.184   5.133
 4043WAT     H212372   6.322   9.167   5.187
 4044WAT      O12373   2.775   7.448   4.394
 4044WAT     H112374   2.796   7.540   4.427
 4044WAT     H212375   2.712   7.403   4.458
 4045WAT      O12376   6.028   9.690   5.326
 4045WAT     H112377   6.059   9.637   5.247
 4045WAT     H212378   6.077   9.776   5.330
 4046WAT      O12379   8.178   7.053   7.007
 4046WAT     H112380   8.243   6.994   6.960
 4046WAT     H212381   8.228   7.122   7.060
 4047WAT      O12382   2.963   5.842   8.404
 4047WAT     H112383   3.057   5.808   8.397
 4047WAT     H212384   2.903   5.768   8.435
 4048WAT      O12385   5.902   3.365   6.959
 4048WAT     H112386   5.859   3.449   6.993
 4048WAT     H212387   5.837   3.317   6.900
 4049WAT      O12388   2.859   2.236   7.381
 4049WAT     H112389   2.776   2.207   7.333
 4049WAT     H212390   2.834   2.294   7.459
 4050WAT      O12391   7.656   7.803   9.302
 4050WAT     H112392   7.581   7.841   9.247
 4050WAT     H212393   7.729   7.772   9.241
 4051WAT      O12394   8.093   6.547   5.704
 4051WAT     H112395   8.103   6.646   5.691
 4051WAT     H212396   8.130   6.499   5.625
 4052WAT      O12397   4.326   2.281   1.675
 4052WAT     H112398   4.312   2.237   1.764
 4052WAT     H212399   4.394   2.229   1.623
 4053WAT      O12400   6.515   5.366   8.739
 4053WAT     H112401   6.469   5.290   8.785
 4053WAT     H212402   6.573   5.414   8.805
 4054WAT      O12403   7.036   4.791   6.485
 4054WAT     H112404   6.960   4.727   6.498
 4054WAT     H212405   7.023   4.841   6.399
 4055WAT      O12406   7.454   5.681   2.685
 4055WAT     H112407   7.496   5.704   2.773
 4055WAT     H212408   7.401   5.597   2.694
 4056WAT      O12409   8.300   8.481   2.494
 4056WAT     H112410   8.374   8.543   2.466
 4056WAT     H212411   8.216   8.504   2.445
 4057WAT      O12412   3.087   2.909   7.893
 4057WAT     H112413   3.052   2.824   7.855
 4057WAT     H212414   3.186   2.903   7.903
 4058WAT      O12415   6.786   7.290   3.630
 4058WAT     H112416   6.826   7.238   3.706
 4058WAT     H212417   6.687   7.292   3.640
 4059WAT      O12418   0.856   1.558   5.762
 4059WAT     H112419   0.829   1.490   5.694
 4059WAT     H212420   0.944   1.598   5.736
 4060WAT      O12421   8.112   8.655   4.484
 4060WAT     H112422   8.071   8.693   4.567
 4060WAT     H212423   8.085   8.710   4.405
 4061WAT      O12424   8.392   8.144   0.901
 4061WAT     H112425   8.308   8.139   0.955
 4061WAT     H212426   8.470   8.127   0.960
 4062WAT      O12427   2.190   3.277   2.645
 4062WAT     H112428   2.167   3.361   2.596
 4062WAT     H212429   2.262   3.228   2.595
 4063WAT      O12430   0.012   7.393   4.152
 4063WAT     H112431   0.043   7.324   4.086
 4063WAT     H212432   0.061   7.478   4.136
 4064WAT      O12433   0.577   6.728   3.163
 4064WAT     H112434   0.630   6.660   3.113
 4064WAT     H212435   0.516   6.776   3.100
 4065WAT      O12436   1.404   9.321   0.608
 4065WAT     H112437   1.347   9.269   0.544
 4065WAT     H212438   1.432   9.262   0.683
 4066WAT      O12439   4.725   6.718   7.820
 4066WAT     H112440   4.735   6.653   7.896
 4066WAT     H212441   4.643   6.773   7.834
 4067WAT      O12442   8.211   7.246   3.683
 4067WAT     H112443   8.241   7.235   3.588
 4067WAT     H212444   8.275   7.305   3.731
 4068WAT      O12445   4.682   3.393   2.850
 4068WAT     H112446   4.694   3.487   2.883
 4068WAT     H212447   4.753   3.335   2.888
 4069WAT      O12448   1.196   9.394   8.922
 4069WAT     H112449   1.204   9.311   8.867
 4069WAT     H212450   1.116   9.446   8.892
 4070WAT      O12451   5.498   7.724   7.832
 4070WAT     H112452   5.410   7.706   7.789
 4070WAT     H212453   5.534   7.639   7.870
 4071WAT      O12454   2.533   8.865   9.265
 4071WAT     H112455   2.520   8.907   9.176
 4071WAT     H212456   2.535   8.765   9.255
 4072WAT      O12457   2.319   9.641   9.890
 4072WAT     H112458   2.351   9.547   9.900
 4072WAT     H212459   2.375   9.688   9.821
 4073WAT      O12460   7.579   0.124   1.425
 4073WAT     H112461   7.629   0.048   1.466
 4073WAT     H212462   7.643   0.180   1.372
 4074WAT      O12463   0.910   9.086   6.215
 4074WAT     H112464   0.970   9.006   6.212
 4074WAT     H212465   0.831   9.067   6.273
 4075WAT      O12466   4.591   1.857   8.556
 4075WAT     H112467   4.522   1.922   8.525
 4075WAT     H212468   4.679   1.904   8.568
 4076WAT      O12469   3.054   9.271   9.687
 4076WAT     H112470   3.114   9.307   9.616
 4076WAT     H212471   3.012   9.186   9.655
 4077WAT      O12472   5.114   1.575   3.821
 4077WAT     H112473   5.035   1.636   3.823
 4077WAT     H212474   5.085   1.483   3.846
 4078WAT      O12475   0.974   1.593   6.483
 4078WAT     H112476   1.014   1.655   6.416
 4078WAT     H212477   0.976   1.500   6.448
 4079WAT      O12478   7.807   1.335   4.750
 4079WAT     H112479   7.714   1.368   4.767
 4079WAT     H212480   7.844   1.296   4.834
 4080WAT      O12481   5.050   2.821   4.847
 4080WAT     H112482   5.008   2.851   4.933
 4080WAT     H212483   5.062   2.722   4.848
 4081WAT      O12484   2.954   0.878   6.643
 4081WAT     H112485   2.927   0.952   6.704
 4081WAT     H212486   2.905   0.887   6.556
 4082WAT      O12487   3.494   1.839   5.849
 4082WAT     H112488   3.563   1.908   5.867
 4082WAT     H212489   3.424   1.842   5.921
 4083WAT      O12490   4.427   7.749   6.528
 4083WAT     H112491   4.327   7.752   6.519
 4083WAT     H212492   4.467   7.828   6.481
 4084WAT      O12493   7.821   4.814   0.900
 4084WAT     H112494   7.784   4.732   0.943
 4084WAT     H212495   7.921   4.813   0.907
 4085WAT      O12496   8.386   1.581   4.398
 4085WAT     H112497   8.303   1.561   4.346
 4085WAT     H212498   8.383   1.676   4.429
 4086WAT      O12499   6.109   2.922   9.349
 4086WAT     H112500   6.018   2.902   9.313
 4086WAT     H212501   6.120   2.877   9.437
 4087WAT      O12502   0.818   8.579   1.815
 4087WAT     H112503   0.853   8.596   1.723
 4087WAT     H212504   0.886   8.529   1.868
 4088WAT      O12505   6.491   7.930   9.486
 4088WAT     H112506   6.485   7.851   9.425
 4088WAT     H212507   6.503   7.898   9.580
 4089WAT      O12508   4.485   6.300   5.185
 4089WAT     H112509   4.533   6.376   5.229
 4089WAT     H212510   4.511   6.214   5.229
 4090WAT      O12511   0.944   0.103   4.370
 4090WAT     H112512   0.943   0.034   4.297
 4090WAT     H212513   0.993   0.067   4.449
 4091WAT      O12514   5.492   7.363   4.117
 4091WAT     H112515   5.563   7.418   4.073
 4091WAT     H212516   5.489   7.273   4.074
 4092WAT      O12517   1.139   6.243   6.202
 4092WAT     H112518   1.180   6.290   6.279
 4092WAT     H212519   1.061   6.295   6.167
 4093WAT      O12520   9.118   5.663   1.503
 4093WAT     H112521   9.213   5.664   1.535
 4093WAT     H212522   9.071   5.744   1.536
 4094WAT      O12523   1.915   0.614   9.205
 4094WAT     H112524   1.952   0.691   9.153
 4094WAT     H212525   1.937   0.529   9.158
 4095WAT      O12526   9.297   1.641   0.359
 4095WAT     H112527   9.385   1.611   0.324
 4095WAT     H212528   9.227   1.575   0.334
 4096WAT      O12529   6.474   6.501   5.473
 4096WAT     H112530   6.552   6.512   5.411
 4096WAT     H212531   6.497   6.436   5.544
 4097WAT      O12532   9.111   1.608   8.112
 4097WAT     H112533   9.071   1.516   8.121
 4097WAT     H212534   9.045   1.676   8.144
 4098WAT      O12535   4.320   6.519   0.196
 4098WAT     H112536   4.227   6.532   0.161
 4098WAT     H212537   4.322   6.543   0.293
 4099WAT      O12538   5.882   3.627   8.771
 4099WAT     H112539   5.836   3.632   8.860
 4099WAT     H212540   5.814   3.631   8.698
 4100WAT      O12541   6.342   9.592   0.843
 4100WAT     H112542   6.384   9.504   0.819
 4100WAT     H212543   6.245   9.590   0.818
 4101WAT      O12544   8.568   2.258   6.249
 4101WAT     H112545   8.643   2.194   6.230
 4101WAT     H212546   8.481   2.211   6.235
 4102WAT      O12547   0.010   7.252   2.210
 4102WAT     H112548   0.073   7.240   2.286
 4102WAT     H212549  -0.070   7.304   2.241
 4103WAT      O12550   5.821   2.951   6.723
 4103WAT     H112551   5.817   2.994   6.633
 4103WAT     H212552   5.762   2.870   6.724
 4104WAT      O12553   0.561   4.994   6.151
 4104WAT     H112554   0.650   4.955   6.126
 4104WAT     H212555   0.528   4.949   6.234
 4105WAT      O12556   0.685   4.146   1.572
 4105WAT     H112557   0.671   4.169   1.476
 4105WAT     H212558   0.672   4.047   1.584
 4106WAT      O12559   9.821   4.676   0.251
 4106WAT     H112560   9.813   4.727   0.337
 4106WAT     H212561   9.816   4.578   0.271
 4107WAT      O12562   1.277   9.155   5.142
 4107WAT     H112563   1.305   9.126   5.050
 4107WAT     H212564   1.265   9.254   5.143
 4108WAT      O12565   6.385   8.319   6.561
 4108WAT     H112566   6.450   8.395   6.553
 4108WAT     H212567   6.400   8.255   6.486
 4109WAT      O12568   3.968   0.319   5.202
 4109WAT     H112569   3.975   0.418   5.191
 4109WAT     H212570   3.895   0.284   5.142
 4110WAT      O12571   9.337   4.408   2.829
 4110WAT     H112572   9.327   4.309   2.843
 4110WAT     H212573   9.308   4.456   2.912
 4111WAT      O12574   8.201   1.725   7.144
 4111WAT     H112575   8.283   1.740   7.199
 4111WAT     H212576   8.211   1.772   7.056
 4112WAT      O12577   6.222   0.920   2.240
 4112WAT     H112578   6.196   0.904   2.336
 4112WAT     H212579   6.248   1.016   2.229
 4113WAT      O12580   4.212   6.078   1.343
 4113WAT     H112581   4.191   6.171   1.313
 4113WAT     H212582   4.299   6.078   1.391
 4114WAT      O12583   6.313   9.767   8.514
 4114WAT     H112584   6.292   9.840   8.580
 4114WAT     H212585   6.389   9.712   8.548
 4115WAT      O12586   4.711   7.286   1.648
 4115WAT     H112587   4.620   7.281   1.687
 4115WAT     H212588   4.748   7.378   1.661
 4116WAT      O12589   0.812   3.054   9.378
 4116WAT     H112590   0.861   3.137   9.353
 4116WAT     H212591   0.871   2.974   9.363
 4117WAT      O12592   1.446   0.977   3.844
 4117WAT     H112593   1.523   0.963   3.906
 4117WAT     H212594   1.383   1.044   3.883
 4118WAT      O12595   7.179   2.328   3.015
 4118WAT     H112596   7.152   2.234   3.037
 4118WAT     H212597   7.279   2.334   3.016
 4119WAT      O12598   2.512   0.400   2.875
 4119WAT     H112599   2.567   0.349   2.808
 4119WAT     H212600   2.553   0.491   2.888
 4120WAT      O12601   5.534   9.831   9.370
 4120WAT     H112602   5.627   9.863   9.389
 4120WAT     H212603   5.474   9.854   9.446
 4121WAT      O12604   5.722   0.308   7.365
 4121WAT     H112605   5.657   0.350   7.428
 4121WAT     H212606   5.708   0.209   7.365
 4122WAT      O12607   5.563   0.779   5.059
 4122WAT     H112608   5.491   0.724   5.103
 4122WAT     H212609   5.533   0.806   4.967
 4123WAT      O12610   0.420   7.528   7.371
 4123WAT     H112611   0.407   7.625   7.352
 4123WAT     H212612   0.333   7.488   7.401
 4124WAT      O12613   9.536   7.910   9.552
 4124WAT     H112614   9.611   7.913   9.486
 4124WAT     H212615   9.449   7.903   9.503
 4125WAT      O12616   2.221   2.247   8.966
 4125WAT     H112617   2.276   2.253   8.882
 4125WAT     H212618   2.233   2.156   9.007
 4126WAT      O12619   1.522   2.875   7.049
 4126WAT     H112620   1.621   2.874   7.065
 4126WAT     H212621   1.496   2.959   7.002
 4127WAT      O12622   1.361   8.227   2.896
 4127WAT     H112623   1.408   8.140   2.882
 4127WAT     H212624   1.426   8.295   2.931
 4128WAT      O12625   1.468   3.508   2.330
 4128WAT     H112626   1.460   3.558   2.243
 4128WAT     H212627   1.525   3.560   2.393
 4129WAT      O12628   6.619   0.545   9.283
 4129WAT     H112629   6.626   0.446   9.294
 4129WAT     H212630   6.531   0.568   9.240
 4130WAT      O12631   6.862   3.447   2.981
 4130WAT     H112632   6.821   3.366   3.022
 4130WAT     H212633   6.960   3.447   2.997
 4131WAT      O12634   0.354   2.659   0.366
 4131WAT     H112635   0.376   2.742   0.417
 4131WAT     H212636   0.426   2.641   0.298
 4132WAT      O12637   6.138   0.648   6.473
 4132WAT     H112638   6.097   0.739   6.471
 4132WAT     H212639   6.179   0.629   6.384
 4133WAT      O12640   6.082   5.154   6.217
 4133WAT     H112641   6.124   5.064   6.214
 4133WAT     H212642   6.130   5.216   6.154
 4134WAT      O12643   0.014   9.671   5.097
 4134WAT     H112644   0.004   9.743   5.028
 4134WAT     H212645  -0.017   9.706   5.185
 4135WAT      O12646   4.995   1.646   5.527
 4135WAT     H112647   5.094   1.635   5.524
 4135WAT     H212648   4.971   1.742   5.514
 4136WAT      O12649   3.276   7.419   8.732
 4136WAT     H112650   3.229   7.398   8.647
 4136WAT     H212651   3.305   7.333   8.776
 4137WAT      O12652   4.526   9.057   7.872
 4137WAT     H112653   4.619   9.067   7.835
 4137WAT     H212654   4.516   9.116   7.952
 4138WAT      O12655   3.187   7.317   5.177
 4138WAT     H112656   3.118   7.363   5.121
 4138WAT     H212657   3.143   7.275   5.256
 4139WAT      O12658   9.372   7.308   3.758
 4139WAT     H112659   9.367   7.282   3.855
 4139WAT     H212660   9.305   7.379   3.739
 4140WAT      O12661   5.250   6.282   9.025
 4140WAT     H112662   5.187   6.318   9.094
 4140WAT     H212663   5.341   6.271   9.066
 4141WAT      O12664   0.665   6.782   7.525
 4141WAT     H112665   0.582   6.805   7.576
 4141WAT     H212666   0.746   6.803   7.580
 4142WAT      O12667   2.891   2.708   5.698
 4142WAT     H112668   2.936   2.755   5.774
 4142WAT     H212669   2.831   2.636   5.733
 4143WAT      O12670   3.188   3.250   8.835
 4143WAT     H112671   3.185   3.344   8.870
 4143WAT     H212672   3.094   3.218   8.819
 4144WAT      O12673   0.717   9.557   6.004
 4144WAT     H112674   0.661   9.595   5.931
 4144WAT     H212675   0.754   9.468   5.974
 4145WAT      O12676   4.036   8.013   2.314
 4145WAT     H112677   4.038   7.943   2.385
 4145WAT     H212678   4.124   8.060   2.311
 4146WAT      O12679   6.450   1.825   3.050
 4146WAT     H112680   6.482   1.782   2.966
 4146WAT     H212681   6.444   1.756   3.123
 4147WAT      O12682   3.617   2.873   7.709
 4147WAT     H112683   3.541   2.855   7.646
 4147WAT     H212684   3.633   2.971   7.715
 4148WAT      O12685   0.437   5.095   7.167
 4148WAT     H112686   0.410   5.191   7.164
 4148WAT     H212687   0.417   5.052   7.078
 4149WAT      O12688   5.695   0.352   1.689
 4149WAT     H112689   5.790   0.376   1.708
 4149WAT     H212690   5.640   0.436   1.684
 4150WAT      O12691   0.997   9.510   8.176
 4150WAT     H112692   1.042   9.428   8.212
 4150WAT     H212693   1.057   9.589   8.187
 4151WAT      O12694   1.881   5.052   1.888
 4151WAT     H112695   1.796   5.013   1.852
 4151WAT     H212696   1.860   5.136   1.939
 4152WAT      O12697   5.603   1.295   6.202
 4152WAT     H112698   5.634   1.203   6.224
 4152WAT     H212699   5.539   1.291   6.125
 4153WAT      O12700   7.853   0.241   2.669
 4153WAT     H112701   7.860   0.142   2.658
 4153WAT     H212702   7.758   0.266   2.687
 4154WAT      O12703   4.032   3.524   1.363
 4154WAT     H112704   4.094   3.456   1.403
 4154WAT     H212705   3.985   3.484   1.285
 4155WAT      O12706   0.121   7.202   3.086
 4155WAT     H112707   0.209   7.197   3.038
 4155WAT     H212708   0.131   7.260   3.167
 4156WAT      O12709   6.726   1.280   4.378
 4156WAT     H112710   6.719   1.184   4.405
 4156WAT     H212711   6.635   1.315   4.356
 4157WAT      O12712   2.499   8.833   8.842
 4157WAT     H112713   2.485   8.887   8.759
 4157WAT     H212714   2.473   8.887   8.922
 4158WAT      O12715   8.444   3.910   9.379
 4158WAT     H112716   8.493   3.888   9.463
 4158WAT     H212717   8.496   3.977   9.326
 4159WAT      O12718   4.314   1.133   1.647
 4159WAT     H112719   4.376   1.123   1.724
 4159WAT     H212720   4.270   1.046   1.627
 4160WAT      O12721   5.366   8.248   3.649
 4160WAT     H112722   5.295   8.307   3.610
 4160WAT     H212723   5.364   8.255   3.749
 4161WAT      O12724   7.634   2.153   2.752
 4161WAT     H112725   7.623   2.230   2.689
 4161WAT     H212726   7.667   2.074   2.701
 4162WAT      O12727   5.701   5.913   7.397
 4162WAT     H112728   5.608   5.875   7.393
 4162WAT     H212729   5.764   5.844   7.433
 4163WAT      O12730   0.157   5.053   7.000
 4163WAT     H112731   0.072   5.067   6.949
 4163WAT     H212732   0.144   5.082   7.095
 4164WAT      O12733   5.226   7.488   5.380
 4164WAT     H112734   5.286   7.516   5.455
 4164WAT     H212735   5.200   7.568   5.327
 4165WAT      O12736   0.589   4.588   0.220
 4165WAT     H112737   0.590   4.491   0.198
 4165WAT     H212738   0.655   4.636   0.162
 4166WAT      O12739   4.143   0.174   2.637
 4166WAT     H112740   4.164   0.271   2.647
 4166WAT     H212741   4.228   0.121   2.642
 4167WAT      O12742   7.836   7.337   4.005
 4167WAT     H112743   7.929   7.363   4.029
 4167WAT     H212744   7.837   7.278   3.925
 4168WAT      O12745   1.653   4.361   6.367
 4168WAT     H112746   1.597   4.428   6.415
 4168WAT     H212747   1.649   4.379   6.269
 4169WAT      O12748   2.802   8.086   6.568
 4169WAT     H112749   2.731   8.126   6.510
 4169WAT     H212750   2.765   8.006   6.615
 4170WAT      O12751   5.035   4.759   8.896
 4170WAT     H112752   5.133   4.776   8.903
 4170WAT     H212753   5.010   4.685   8.958
 4171WAT      O12754   9.545   0.736   8.205
 4171WAT     H112755   9.482   0.659   8.213
 4171WAT     H212756   9.543   0.771   8.112
 4172WAT      O12757   0.414   6.762   3.368
 4172WAT     H112758   0.384   6.854   3.345
 4172WAT     H212759   0.489   6.735   3.307
 4173WAT      O12760   6.557   9.223   7.577
 4173WAT     H112761   6.607   9.308   7.594
 4173WAT     H212762   6.460   9.244   7.560
 4174WAT      O12763   2.231   8.077   7.187
 4174WAT     H112764   2.211   8.174   7.177
 4174WAT     H212765   2.306   8.052   7.126
 4175WAT      O12766   4.134   8.101   6.358
 4175WAT     H112767   4.110   8.166   6.429
 4175WAT     H212768   4.051   8.063   6.317
 4176WAT      O12769   2.095   5.424   7.110
 4176WAT     H112770   2.150   5.416   7.026
 4176WAT     H212771   2.097   5.337   7.159
 4177WAT      O12772   1.608   3.104   1.203
 4177WAT     H112773   1.566   3.146   1.123
 4177WAT     H212774   1.700   3.071   1.179
 4178WAT      O12775   3.749   4.319   7.052
 4178WAT     H112776   3.666   4.374   7.038
 4178WAT     H212777   3.813   4.335   6.977
 4179WAT      O12778   8.743   6.537   1.913
 4179WAT     H112779   8.753   6.620   1.968
 4179WAT     H212780   8.648   6.527   1.885
 4180WAT      O12781   2.728   7.052   2.032
 4180WAT     H112782   2.827   7.047   2.021
 4180WAT     H212783   2.699   6.984   2.100
 4181WAT      O12784   6.809   0.113   9.764
 4181WAT     H112785   6.797   0.195   9.820
 4181WAT     H212786   6.769   0.128   9.674
 4182WAT      O12787   4.791   8.808   6.600
 4182WAT     H112788   4.884   8.776   6.621
 4182WAT     H212789   4.793   8.861   6.516
 4183WAT      O12790   4.785   8.634   8.718
 4183WAT     H112791   4.750   8.602   8.806
 4183WAT     H212792   4.793   8.557   8.654
 4184WAT      O12793   5.332   5.774   3.298
 4184WAT     H112794   5.261   5.749   3.232
 4184WAT     H212795   5.349   5.872   3.293
 4185WAT      O12796   1.572   5.850   0.137
 4185WAT     H112797   1.569   5.899   0.050
 4185WAT     H212798   1.479   5.821   0.162
 4186WAT      O12799   7.343   2.313   0.720
 4186WAT     H112800   7.249   2.347   0.711
 4186WAT     H212801   7.347   2.247   0.795
 4187WAT      O12802   5.404   2.261   4.922
 4187WAT     H112803   5.431   2.343   4.973
 4187WAT     H212804   5.480   2.196   4.922
 4188WAT      O12805   8.159   7.862   3.823
 4188WAT     H112806   8.086   7.894   3.884
 4188WAT     H212807   8.139   7.768   3.794
 4189WAT      O12808   5.866   4.387   0.238
 4189WAT     H112809   5.769   4.374   0.257
 4189WAT     H212810   5.884   4.370   0.141
 4190WAT      O12811   7.186   8.954   5.686
 4190WAT     H112812   7.127   9.028   5.720
 4190WAT     H212813   7.207   8.892   5.762
 4191WAT      O12814   8.084   3.725   2.542
 4191WAT     H112815   8.030   3.808   2.527
 4191WAT     H212816   8.024   3.646   2.546
 4192WAT      O12817   7.750   8.830   7.990
 4192WAT     H112818   7.695   8.794   7.915
 4192WAT     H212819   7.832   8.774   8.001
 4193WAT      O12820   0.892   5.737   2.807
 4193WAT     H112821   0.893   5.726   2.906
 4193WAT     H212822   0.869   5.650   2.764
 4194WAT      O12823   1.459   1.121   9.465
 4194WAT     H112824   1.416   1.054   9.524
 4194WAT     H212825   1.405   1.205   9.464
 4195WAT      O12826   6.622   6.381   2.777
 4195WAT     H112827   6.590   6.294   2.739
 4195WAT     H212828   6.638   6.371   2.875
 4196WAT      O12829   3.145   3.897   3.912
 4196WAT     H112830   3.238   3.879   3.881
 4196WAT     H212831   3.142   3.894   4.012
 4197WAT      O12832   1.846   9.190   6.261
 4197WAT     H112833   1.855   9.131   6.181
 4197WAT     H212834   1.927   9.178   6.319
 4198WAT      O12835   6.885   3.845   2.413
 4198WAT     H112836   6.800   3.885   2.380
 4198WAT     H212837   6.957   3.855   2.344
 4199WAT      O12838   0.706   0.327   8.758
 4199WAT     H112839   0.793   0.370   8.780
 4199WAT     H212840   0.637   0.354   8.826
 4200WAT      O12841   6.833   8.713   7.973
 4200WAT     H112842   6.850   8.631   8.028
 4200WAT     H212843   6.828   8.792   8.033
 4201WAT      O12844   6.064   7.038   6.822
 4201WAT     H112845   5.981   7.093   6.830
 4201WAT     H212846   6.048   6.947   6.862
 4202WAT      O12847   6.444   1.636   8.061
 4202WAT     H112848   6.405   1.602   7.976
 4202WAT     H212849   6.540   1.606   8.068
 4203WAT      O12850   4.283   5.197   4.243
 4203WAT     H112851   4.292   5.143   4.160
 4203WAT     H212852   4.371   5.199   4.291
 4204WAT      O12853   2.752   4.869   0.721
 4204WAT     H112854   2.815   4.869   0.798
 4204WAT     H212855   2.692   4.950   0.726
 4205WAT      O12856   8.835   0.328   4.959
 4205WAT     H112857   8.855   0.262   5.031
 4205WAT     H212858   8.900   0.316   4.884
 4206WAT      O12859   1.941   4.978   1.565
 4206WAT     H112860   1.845   5.006   1.563
 4206WAT     H212861   1.960   4.932   1.652
 4207WAT      O12862   3.184   6.190   3.806
 4207WAT     H112863   3.197   6.158   3.712
 4207WAT     H212864   3.265   6.242   3.835
 4208WAT      O12865   6.615   9.826   1.176
 4208WAT     H112866   6.544   9.759   1.154
 4208WAT     H212867   6.574   9.917   1.182
 4209WAT      O12868   8.377   5.899   8.158
 4209WAT     H112869   8.457   5.858   8.203
 4209WAT     H212870   8.316   5.827   8.127
 4210WAT      O12871   1.624   8.284   6.321
 4210WAT     H112872   1.568   8.366   6.304
 4210WAT     H212873   1.655   8.247   6.233
 4211WAT      O12874   9.143   9.416   7.539
 4211WAT     H112875   9.092   9.351   7.482
 4211WAT     H212876   9.100   9.507   7.532
 4212WAT      O12877   2.359   6.863   6.356
 4212WAT     H112878   2.296   6.785   6.355
 4212WAT     H212879   2.392   6.877   6.449
 4213WAT      O12880   4.796   1.985   1.103
 4213WAT     H112881   4.874   1.962   1.162
 4213WAT     H212882   4.829   2.035   1.023
 4214WAT      O12883   8.061   8.492   9.890
 4214WAT     H112884   8.124   8.567   9.869
 4214WAT     H212885   8.113   8.406   9.894
 4215WAT      O12886   5.330   5.552   6.168
 4215WAT     H112887   5.318   5.647   6.141
 4215WAT     H212888   5.424   5.524   6.150
 4216WAT      O12889   4.989   1.364   3.023
 4216WAT     H112890   5.037   1.286   3.062
 4216WAT     H212891   5.043   1.403   2.948
 4217WAT      O12892   6.029   2.107   8.270
 4217WAT     H112893   6.122   2.146   8.270
 4217WAT     H212894   5.983   2.132   8.355
 4218WAT      O12895   2.023   7.267   3.800
 4218WAT     H112896   2.099   7.294   3.741
 4218WAT     H212897   1.937   7.280   3.750
 4219WAT      O12898   7.983   4.133   9.546
 4219WAT     H112899   8.004   4.212   9.603
 4219WAT     H212900   8.069   4.090   9.516
 4220WAT      O12901   7.841   9.119   2.100
 4220WAT     H112902   7.866   9.022   2.098
 4220WAT     H212903   7.891   9.168   2.028
 4221WAT      O12904   2.501   4.759   8.434
 4221WAT     H112905   2.430   4.794   8.373
 4221WAT     H212906   2.589   4.800   8.410
 4222WAT      O12907   4.036   5.015   0.608
 4222WAT     H112908   4.003   4.955   0.680
 4222WAT     H212909   4.132   5.038   0.625
 4223WAT      O12910   3.816   3.890   6.282
 4223WAT     H112911   3.799   3.807   6.337
 4223WAT     H212912   3.759   3.964   6.318
 4224WAT      O12913   8.680   0.159   7.046
 4224WAT     H112914   8.673   0.078   7.104
 4224WAT     H212915   8.667   0.241   7.102
 4225WAT      O12916   6.758   7.089   9.599
 4225WAT     H112917   6.735   7.152   9.674
 4225WAT     H212918   6.774   7.141   9.515
 4226WAT      O12919   8.435   4.143   9.035
 4226WAT     H112920   8.440   4.067   8.971
 4226WAT     H212921   8.517   4.143   9.093
 4227WAT      O12922   6.959   8.990   0.573
 4227WAT     H112923   6.862   9.011   0.588
 4227WAT     H212924   6.967   8.899   0.532
 4228WAT      O12925   8.713   7.614   7.785
 4228WAT     H112926   8.795   7.581   7.832
 4228WAT     H212927   8.685   7.546   7.717
 4229WAT      O12928   9.753   6.945   2.414
 4229WAT     H112929   9.749   6.877   2.488
 4229WAT     H212930   9.726   7.034   2.450
 4230WAT      O12931   2.820   3.939   5.643
 4230WAT     H112932   2.739   3.993   5.620
 4230WAT     H212933   2.796   3.843   5.649
 4231WAT      O12934   7.148   8.574   8.154
 4231WAT     H112935   7.176   8.657   8.204
 4231WAT     H212936   7.219   8.550   8.088
 4232WAT      O12937   2.587   7.975   8.821
 4232WAT     H112938   2.519   8.048   8.831
 4232WAT     H212939   2.675   8.014   8.793
 4233WAT      O12940   3.594   4.062   1.207
 4233WAT     H112941   3.683   4.105   1.191
 4233WAT     H212942   3.521   4.128   1.188
 4234WAT      O12943   6.737   7.968   5.887
 4234WAT     H112944   6.807   8.020   5.838
 4234WAT     H212945   6.772   7.945   5.978
 4235WAT      O12946   1.954   2.115   8.035
 4235WAT     H112947   1.929   2.097   8.130
 4235WAT     H212948   1.987   2.209   8.027
 4236WAT      O12949   5.775   6.211   8.266
 4236WAT     H112950   5.740   6.297   8.227
 4236WAT     H212951   5.790   6.223   8.364
 4237WAT      O12952   1.441   7.433   8.911
 4237WAT     H112953   1.527   7.484   8.900
 4237WAT     H212954   1.399   7.419   8.821
 4238WAT      O12955   3.915   9.401   7.274
 4238WAT     H112956   3.848   9.460   7.228
 4238WAT     H212957   3.976   9.361   7.207
 4239WAT      O12958   8.514   4.357   7.911
 4239WAT     H112959   8.498   4.337   7.814
 4239WAT     H212960   8.449   4.426   7.942
 4240WAT      O12961   8.632   4.484   6.436
 4240WAT     H112962   8.682   4.510   6.518
 4240WAT     H212963   8.684   4.513   6.355
 4241WAT      O12964   3.239   0.631   7.232
 4241WAT     H112965   3.179   0.651   7.155
 4241WAT     H212966   3.207   0.549   7.279
 4242WAT      O12967   5.024   9.817   2.807
 4242WAT     H112968   5.051   9.791   2.900
 4242WAT     H212969   4.954   9.753   2.774
 4243WAT      O12970   2.305   1.743   0.657
 4243WAT     H112971   2.371   1.818   0.651
 4243WAT     H212972   2.353   1.656   0.663
 4244WAT      O12973   1.104   0.013   5.250
 4244WAT     H112974   1.113   0.079   5.174
 4244WAT     H212975   1.014   0.024   5.292
 4245WAT      O12976   5.534   1.408   3.870
 4245WAT     H112977   5.612   1.458   3.909
 4245WAT     H212978   5.503   1.339   3.935
 4246WAT      O12979   0.645   8.349   4.370
 4246WAT     H112980   0.613   8.320   4.460
 4246WAT     H212981   0.596   8.432   4.342
 4247WAT      O12982   5.987   3.880   8.768
 4247WAT     H112983   5.979   3.780   8.765
 4247WAT     H212984   5.896   3.920   8.756
 4248WAT      O12985   6.656   0.510   7.119
 4248WAT     H112986   6.735   0.448   7.116
 4248WAT     H212987   6.603   0.501   7.035
 4249WAT      O12988   0.512   2.765   6.252
 4249WAT     H112989   0.461   2.683   6.279
 4249WAT     H212990   0.608   2.741   6.236
 4250WAT      O12991   4.491   0.012   9.704
 4250WAT     H112992   4.563  -0.021   9.764
 4250WAT     H212993   4.414  -0.052   9.706
 4251WAT      O12994   0.086   7.721   4.979
 4251WAT     H112995   0.041   7.677   5.057
 4251WAT     H212996   0.137   7.801   5.010
 4252WAT      O12997   0.138   7.520   0.285
 4252WAT     H112998   0.062   7.541   0.347
 4252WAT     H212999   0.197   7.451   0.327
 4253WAT      O13000   5.679   2.846   2.752
 4253WAT     H113001   5.732   2.915   2.802
 4253WAT     H213002   5.685   2.864   2.654
 4254WAT      O13003   8.617   9.548   7.020
 4254WAT     H113004   8.653   9.610   6.950
 4254WAT     H213005   8.675   9.466   7.024
 4255WAT      O13006   8.888   2.801   9.885
 4255WAT     H113007   8.963   2.859   9.917
 4255WAT     H213008   8.830   2.776   9.962
 4256WAT      O13009   9.534   4.761   0.848
 4256WAT     H113010   9.492   4.687   0.796
 4256WAT     H213011   9.630   4.770   0.821
 4257WAT      O13012   5.020   4.519   9.118
 4257WAT     H113013   4.941   4.469   9.155
 4257WAT     H213014   5.046   4.481   9.030
 4258WAT      O13015   5.740   3.189   6.838
 4258WAT     H113016   5.659   3.227   6.793
 4258WAT     H213017   5.760   3.099   6.801
 4259WAT      O13018   7.327   6.365   4.945
 4259WAT     H113019   7.295   6.327   5.032
 4259WAT     H213020   7.427   6.361   4.941
 4260WAT      O13021   4.749   9.035   2.048
 4260WAT     H113022   4.779   8.986   2.130
 4260WAT     H213023   4.741   9.132   2.069
 4261WAT      O13024   3.129   5.550   2.490
 4261WAT     H113025   3.142   5.604   2.574
 4261WAT     H213026   3.196   5.578   2.422
 4262WAT      O13027   0.744   9.802   9.882
 4262WAT     H113028   0.686   9.752   9.946
 4262WAT     H213029   0.692   9.877   9.841
 4263WAT      O13030   6.321   7.564   4.919
 4263WAT     H113031   6.240   7.591   4.866
 4263WAT     H213032   6.403   7.597   4.873
 4264WAT      O13033   5.281   6.371   6.240
 4264WAT     H113034   5.188   6.347   6.213
 4264WAT     H213035   5.278   6.435   6.317
 4265WAT      O13036   3.876   3.859   3.340
 4265WAT     H113037   3.778   3.840   3.346
 4265WAT     H213038   3.924   3.808   3.411
 4266WAT      O13039   7.321   6.712   6.945
 4266WAT     H113040   7.236   6.749   6.982
 4266WAT     H213041   7.393   6.719   7.015
 4267WAT      O13042   3.740   4.946   4.156
 4267WAT     H113043   3.781   5.026   4.112
 4267WAT     H213044   3.683   4.897   4.090
 4268WAT      O13045   4.416   9.462   8.780
 4268WAT     H113046   4.440   9.394   8.849
 4268WAT     H213047   4.345   9.425   8.720
 4269WAT      O13048   6.214   3.727   5.407
 4269WAT     H113049   6.148   3.797   5.435
 4269WAT     H213050   6.297   3.737   5.461
 4270WAT      O13051   1.116   3.939   4.506
 4270WAT     H113052   1.092   4.033   4.483
 4270WAT     H213053   1.091   3.921   4.602
 4271WAT      O13054   7.780   6.270   2.209
 4271WAT     H113055   7.752   6.264   2.113
 4271WAT     H213056   7.784   6.179   2.249
 4272WAT      O13057   8.645   8.472   9.832
 4272WAT     H113058   8.616   8.412   9.758
 4272WAT     H213059   8.743   8.489   9.825
 4273WAT      O13060   5.195   0.613   7.991
 4273WAT     H113061   5.195   0.641   8.087
 4273WAT     H213062   5.117   0.655   7.944
 4274WAT      O13063   6.785   5.820   1.134
 4274WAT     H113064   6.867   5.778   1.172
 4274WAT     H213065   6.771   5.910   1.176
 4275WAT      O13066   1.730   1.137   7.412
 4275WAT     H113067   1.663   1.210   7.416
 4275WAT     H213068   1.705   1.073   7.338
 4276WAT      O13069   7.803   1.385   2.838
 4276WAT     H113070   7.819   1.481   2.861
 4276WAT     H213071   7.803   1.374   2.738
 4277WAT      O13072   7.168   8.713   9.257
 4277WAT     H113073   7.082   8.733   9.304
 4277WAT     H213074   7.228   8.660   9.318
 4278WAT      O13075   3.982   1.066   0.664
 4278WAT     H113076   3.962   1.110   0.576
 4278WAT     H213077   3.975   0.967   0.653
 4279WAT      O13078   0.849   0.824   7.393
 4279WAT     H113079   0.904   0.854   7.314
 4279WAT     H213080   0.868   0.885   7.470
 4280WAT      O13081   1.876   2.582   3.916
 4280WAT     H113082   1.860   2.554   3.821
 4280WAT     H213083   1.972   2.609   3.927
 4281WAT      O13084   8.341   8.082   5.756
 4281WAT     H113085   8.399   8.003   5.775
 4281WAT     H213086   8.299   8.115   5.841
 4282WAT      O13087   5.774   5.773   9.162
 4282WAT     H113088   5.842   5.806   9.096
 4282WAT     H213089   5.789   5.676   9.180
 4283WAT      O13090   3.835   0.471   7.917
 4283WAT     H113091   3.773   0.542   7.885
 4283WAT     H213092   3.830   0.392   7.856
 4284WAT      O13093   7.501   1.044   6.607
 4284WAT     H113094   7.461   1.114   6.547
 4284WAT     H213095   7.480   0.953   6.571
 4285WAT      O13096   9.559   4.575   1.896
 4285WAT     H113097   9.602   4.594   1.985
 4285WAT     H213098   9.623   4.523   1.839
 4286WAT      O13099   0.936   5.832   0.605
 4286WAT     H113100   1.004   5.903   0.590
 4286WAT     H213101   0.881   5.855   0.685
 4287WAT      O13102   0.896   5.302   9.094
 4287WAT     H113103   0.814   5.330   9.143
 4287WAT     H213104   0.870   5.249   9.013
 4288WAT      O13105   4.087   7.348   1.505
 4288WAT     H113106   4.041   7.393   1.581
 4288WAT     H213107   4.019   7.304   1.446
 4289WAT      O13108   0.123   8.402   5.068
 4289WAT     H113109   0.168   8.447   4.991
 4289WAT     H213110   0.033   8.369   5.039
 4290WAT      O13111   1.204   5.756   8.518
 4290WAT     H113112   1.243   5.668   8.546
 4290WAT     H213113   1.150   5.794   8.593
 4291WAT      O13114   7.438   9.475   0.434
 4291WAT     H113115   7.339   9.475   0.449
 4291WAT     H213116   7.483   9.435   0.514
 4292WAT      O13117   5.463   0.594   0.187
 4292WAT     H113118   5.547   0.573   0.138
 4292WAT     H213119   5.417   0.508   0.213
 4293WAT      O13120   9.460   2.481   1.997
 4293WAT     H113121   9.437   2.551   2.065
 4293WAT     H213122   9.376   2.438   1.965
 4294WAT      O13123   2.418   3.436   4.794
 4294WAT     H113124   2.418   3.524   4.746
 4294WAT     H213125   2.499   3.430   4.852
 4295WAT      O13126   4.497   0.625   7.119
 4295WAT     H113127   4.405   0.664   7.114
 4295WAT     H213128   4.492   0.532   7.157
 4296WAT      O13129   9.634   9.392   3.419
 4296WAT     H113130   9.651   9.310   3.364
 4296WAT     H213131   9.651   9.474   3.363
 4297WAT      O13132   1.786   2.652   9.337
 4297WAT     H113133   1.790   2.706   9.252
 4297WAT     H213134   1.849   2.575   9.330
 4298WAT      O13135   1.061   2.440   6.287
 4298WAT     H113136   0.967   2.454   6.318
 4298WAT     H213137   1.108   2.378   6.350
 4299WAT      O13138   0.983   1.345   4.237
 4299WAT     H113139   1.030   1.408   4.176
 4299WAT     H213140   0.979   1.254   4.194
 4300WAT      O13141   8.447   9.213   7.832
 4300WAT     H113142   8.455   9.166   7.920
 4300WAT     H213143   8.401   9.153   7.767
 4301WAT      O13144   1.362   4.930   0.172
 4301WAT     H113145   1.416   4.898   0.095
 4301WAT     H213146   1.414   4.918   0.257
 4302WAT      O13147   9.014   8.771   5.895
 4302WAT     H113148   9.046   8.722   5.976
 4302WAT     H213149   8.943   8.837   5.922
 4303WAT      O13150   9.166   7.433   2.907
 4303WAT     H113151   9.210   7.379   2.834
 4303WAT     H213152   9.068   7.417   2.905
 4304WAT      O13153   4.059   5.093   0.038
 4304WAT     H113154   4.050   5.188   0.009
 4304WAT     H213155   3.981   5.067   0.093
 4305WAT      O13156   7.263   4.784   1.099
 4305WAT     H113157   7.340   4.838   1.131
 4305WAT     H213158   7.270   4.691   1.137
 4306WAT      O13159   2.231   2.908   3.571
 4306WAT     H113160   2.301   2.880   3.504
 4306WAT     H213161   2.142   2.910   3.526
 4307WAT      O13162   9.434   0.215   2.477
 4307WAT     H113163   9.398   0.128   2.510
 4307WAT     H213164   9.411   0.288   2.542
 4308WAT      O13165   4.653   4.652   6.086
 4308WAT     H113166   4.599   4.703   6.152
 4308WAT     H213167   4.610   4.564   6.068
 4309WAT      O13168   0.628   3.959   6.359
 4309WAT     H113169   0.579   3.953   6.445
 4309WAT     H213170   0.682   3.876   6.346
 4310WAT      O13171   0.628   1.883   4.352
 4310WAT     H113172   0.556   1.896   4.421
 4310WAT     H213173   0.605   1.804   4.295
 4311WAT      O13174   4.853   1.993   3.021
 4311WAT     H113175   4.952   1.996   3.003
 4311WAT     H213176   4.837   1.949   3.109
 4312WAT      O13177   2.327   7.567   3.831
 4312WAT     H113178   2.252   7.537   3.890
 4312WAT     H213179   2.356   7.659   3.859
 4313WAT      O13180   0.005   2.300   5.163
 4313WAT     H113181   0.060   2.217   5.164
 4313WAT     H213182  -0.045   2.306   5.076
 4314WAT      O13183   1.144   8.028   5.465
 4314WAT     H113184   1.199   7.945   5.463
 4314WAT     H213185   1.141   8.065   5.558
 4315WAT      O13186   2.330   6.117   4.629
 4315WAT     H113187   2.255   6.104   4.564
 4315WAT     H213188   2.320   6.053   4.705
 4316WAT      O13189   4.771   7.205   3.298
 4316WAT     H113190   4.709   7.243   3.366
 4316WAT     H213191   4.777   7.268   3.220
 4317WAT      O13192   8.911   6.795   7.859
 4317WAT     H113193   8.971   6.764   7.786
 4317WAT     H213194   8.868   6.715   7.903
 4318WAT      O13195   3.289   4.693   7.612
 4318WAT     H113196   3.267   4.596   7.615
 4318WAT     H213197   3.274   4.728   7.520
 4319WAT      O13198   2.807   0.906   1.278
 4319WAT     H113199   2.774   0.884   1.187
 4319WAT     H213200   2.843   1.000   1.279
 4320WAT      O13201   0.461   2.336   9.660
 4320WAT     H113202   0.455   2.422   9.710
 4320WAT     H213203   0.528   2.345   9.586
 4321WAT      O13204   6.828   4.660   7.574
 4321WAT     H113205   6.757   4.712   7.622
 4321WAT     H213206   6.899   4.633   7.639
 4322WAT      O13207   9.599   6.114   0.886
 4322WAT     H113208   9.560   6.028   0.856
 4322WAT     H213209   9.587   6.184   0.815
 4323WAT      O13210   7.293   2.264   8.469
 4323WAT     H113211   7.211   2.312   8.500
 4323WAT     H213212   7.266   2.195   8.402
 4324WAT      O13213   1.235   3.258   8.236
 4324WAT     H113214   1.234   3.161   8.260
 4324WAT     H213215   1.330   3.289   8.231
 4325WAT      O13216   4.263   3.142   4.734
 4325WAT     H113217   4.326   3.166   4.807
 4325WAT     H213218   4.292   3.184   4.648
 4326WAT      O13219   3.603   7.477   3.247
 4326WAT     H113220   3.570   7.545   3.183
 4326WAT     H213221   3.673   7.421   3.203
 4327WAT      O13222   1.796   2.102   6.004
 4327WAT     H113223   1.727   2.155   6.053
 4327WAT     H213224   1.828   2.153   5.925
 4328WAT      O13225   7.875   3.929   8.826
 4328WAT     H113226   7.912   3.992   8.758
 4328WAT     H213227   7.822   3.981   8.893
 4329WAT      O13228   5.631   0.129   7.583
 4329WAT     H113229   5.617   0.061   7.655
 4329WAT     H213230   5.718   0.175   7.596
 4330WAT      O13231   8.348   9.363   4.524
 4330WAT     H113232   8.283   9.424   4.479
 4330WAT     H213233   8.420   9.418   4.567
 4331WAT      O13234   7.023   6.515   3.486
 4331WAT     H113235   7.017   6.489   3.389
 4331WAT     H213236   7.006   6.435   3.543
 4332WAT      O13237   3.901   2.014   7.343
 4332WAT     H113238   3.860   2.056   7.262
 4332WAT     H213239   3.854   2.047   7.425
 4333WAT      O13240   4.480   4.295   2.075
 4333WAT     H113241   4.546   4.335   2.012
 4333WAT     H213242   4.468   4.198   2.054
 4334WAT      O13243   7.314   9.598   7.843
 4334WAT     H113244   7.276   9.510   7.815
 4334WAT     H213245   7.249   9.646   7.901
 4335WAT      O13246   1.770   2.077   0.383
 4335WAT     H113247   1.715   2.006   0.339
 4335WAT     H213248   1.866   2.066   0.356
 4336WAT      O13249   1.638   1.402   6.165
 4336WAT     H113250   1.616   1.330   6.231
 4336WAT     H213251   1.728   1.386   6.126
 4337WAT      O13252   1.589   2.281   1.219
 4337WAT     H113253   1.661   2.350   1.224
 4337WAT     H213254   1.601   2.214   1.292
 4338WAT      O13255   4.288   0.436   0.954
 4338WAT     H113256   4.334   0.380   1.023
 4338WAT     H213257   4.345   0.516   0.932
 4339WAT      O13258   9.111   1.839   1.670
 4339WAT     H113259   9.089   1.776   1.744
 4339WAT     H213260   9.129   1.930   1.708
 4340WAT      O13261   0.319   4.768   5.434
 4340WAT     H113262   0.240   4.794   5.379
 4340WAT     H213263   0.371   4.849   5.460
 4341WAT      O13264   7.657   7.827   1.512
 4341WAT     H113265   7.733   7.838   1.577
 4341WAT     H213266   7.610   7.740   1.530
 4342WAT      O13267   4.855   2.583   1.939
 4342WAT     H113268   4.922   2.651   1.910
 4342WAT     H213269   4.856   2.505   1.876
 4343WAT      O13270   5.453   7.445   2.955
 4343WAT     H113271   5.428   7.425   3.050
 4343WAT     H213272   5.547   7.417   2.939
 4344WAT      O13273   6.216   2.490   6.081
 4344WAT     H113274   6.241   2.396   6.056
 4344WAT     H213275   6.118   2.504   6.064
 4345WAT      O13276   9.654   9.154   9.261
 4345WAT     H113277   9.595   9.081   9.297
 4345WAT     H213278   9.621   9.242   9.293
 4346WAT      O13279   2.112   6.214  -0.001
 4346WAT     H113280   2.145   6.179   0.087
 4346WAT     H213281   2.016   6.240   0.006
 4347WAT      O13282   0.143   7.546   7.518
 4347WAT     H113283   0.209   7.539   7.593
 4347WAT     H213284   0.145   7.463   7.463
 4348WAT      O13285   6.326   1.452   7.050
 4348WAT     H113286   6.367   1.415   6.966
 4348WAT     H213287   6.312   1.550   7.039
 4349WAT      O13288   9.801   1.671   0.240
 4349WAT     H113289   9.848   1.630   0.162
 4349WAT     H213290   9.828   1.767   0.249
 4350WAT      O13291   6.308   1.894   6.045
 4350WAT     H113292   6.381   1.922   5.982
 4350WAT     H213293   6.304   1.795   6.050
 4351WAT      O13294   2.102   6.078   3.007
 4351WAT     H113295   2.161   6.085   3.087
 4351WAT     H213296   2.157   6.059   2.926
 4352WAT      O13297   2.156   5.809   2.521
 4352WAT     H113298   2.162   5.721   2.476
 4352WAT     H213299   2.238   5.825   2.576
 4353WAT      O13300   5.065   1.299   9.360
 4353WAT     H113301   5.027   1.353   9.284
 4353WAT     H213302   5.138   1.351   9.404
 4354WAT      O13303   2.519   6.428   5.881
 4354WAT     H113304   2.616   6.411   5.863
 4354WAT     H213305   2.493   6.517   5.843
 4355WAT      O13306   8.936   2.036   5.786
 4355WAT     H113307   8.995   1.956   5.777
 4355WAT     H213308   8.991   2.117   5.806
 4356WAT      O13309   1.435   3.388   1.691
 4356WAT     H113310   1.448   3.436   1.604
 4356WAT     H213311   1.489   3.433   1.762
 4357WAT      O13312   5.096   9.696   7.415
 4357WAT     H113313   5.142   9.655   7.493
 4357WAT     H213314   5.006   9.730   7.443
 4358WAT      O13315   1.941   8.579   3.776
 4358WAT     H113316   2.031   8.578   3.820
 4358WAT     H213317   1.874   8.536   3.836
 4359WAT      O13318   4.137   4.031   0.254
 4359WAT     H113319   4.228   3.993   0.268
 4359WAT     H213320   4.118   4.038   0.156
 4360WAT      O13321   5.620   6.857   7.436
 4360WAT     H113322   5.531   6.899   7.452
 4360WAT     H213323   5.692   6.913   7.479
 4361WAT      O13324   8.950   7.025   6.361
 4361WAT     H113325   8.892   6.950   6.329
 4361WAT     H213326   8.993   7.069   6.283
 4362WAT      O13327   6.917   6.327   7.540
 4362WAT     H113328   6.918   6.415   7.589
 4362WAT     H213329   6.844   6.270   7.578
 4363WAT      O13330   8.558   0.613   5.971
 4363WAT     H113331   8.642   0.578   5.929
 4363WAT     H213332   8.479   0.561   5.937
 4364WAT      O13333   7.119   0.913   1.360
 4364WAT     H113334   7.053   0.987   1.366
 4364WAT     H213335   7.072   0.828   1.334
 4365WAT      O13336   8.066   2.900   3.658
 4365WAT     H113337   8.057   2.960   3.738
 4365WAT     H213338   8.054   2.953   3.574
 4366WAT      O13339   4.875   6.418   2.987
 4366WAT     H113340   4.792   6.472   2.998
 4366WAT     H213341   4.863   6.329   3.033
 4367WAT      O13342   0.579   5.109   4.687
 4367WAT     H113343   0.548   5.034   4.745
 4367WAT     H213344   0.572   5.196   4.737
 4368WAT      O13345   0.300   1.901   5.767
 4368WAT     H113346   0.341   1.921   5.857
 4368WAT     H213347   0.369   1.913   5.696
 4369WAT      O13348   0.540   8.174   9.040
 4369WAT     H113349   0.509   8.082   9.017
 4369WAT     H213350   0.565   8.178   9.136
 4370WAT      O13351   3.353   4.606   7.233
 4370WAT     H113352   3.439   4.638   7.272
 4370WAT     H213353   3.328   4.664   7.155
 4371WAT      O13354   4.720   6.398   8.203
 4371WAT     H113355   4.648   6.456   8.243
 4371WAT     H213356   4.686   6.305   8.194
 4372WAT      O13357   4.558   6.860   9.547
 4372WAT     H113358   4.536   6.930   9.615
 4372WAT     H213359   4.563   6.901   9.457
 4373WAT      O13360   2.879   3.276   0.076
 4373WAT     H113361   2.863   3.312  -0.016
 4373WAT     H213362   2.912   3.182   0.068
 4374WAT      O13363   9.554   1.266   9.615
 4374WAT     H113364   9.595   1.184   9.656
 4374WAT     H213365   9.579   1.346   9.669
 4375WAT      O13366   0.677   2.693   0.007
 4375WAT     H113367   0.774   2.671   0.022
 4375WAT     H213368   0.670   2.785  -0.030
 4376WAT      O13369   8.633   5.774   5.772
 4376WAT     H113370   8.550   5.734   5.733
 4376WAT     H213371   8.636   5.754   5.870
 4377WAT      O13372   5.079   5.605   6.649
 4377WAT     H113373   4.986   5.598   6.611
 4377WAT     H213374   5.086   5.545   6.729
 4378WAT      O13375   9.796   2.679   7.339
 4378WAT     H113376   9.772   2.619   7.416
 4378WAT     H213377   9.754   2.768   7.351
 4379WAT      O13378   3.563   6.551   9.751
 4379WAT     H113379   3.629   6.552   9.827
 4379WAT     H213380   3.612   6.539   9.665
 4380WAT      O13381   2.965   4.035   2.067
 4380WAT     H113382   2.975   4.038   2.167
 4380WAT     H213383   3.009   4.116   2.027
 4381WAT      O13384   4.791   9.574   5.104
 4381WAT     H113385   4.859   9.624   5.051
 4381WAT     H213386   4.812   9.476   5.101
 4382WAT      O13387   0.757   6.081   4.355
 4382WAT     H113388   0.690   6.061   4.283
 4382WAT     H213389   0.709   6.108   4.438
 4383WAT      O13390   4.689   1.459   8.027
 4383WAT     H113391   4.643   1.395   8.090
 4383WAT     H213392   4.725   1.536   8.079
 4384WAT      O13393   7.898   2.443   5.121
 4384WAT     H113394   7.827   2.433   5.052
 4384WAT     H213395   7.984   2.466   5.078
 4385WAT      O13396   8.360   5.805   0.597
 4385WAT     H113397   8.454   5.773   0.585
 4385WAT     H213398   8.349   5.842   0.689
 4386WAT      O13399   3.624   8.280   5.149
 4386WAT     H113400   3.631   8.220   5.069
 4386WAT     H213401   3.559   8.240   5.214
 4387WAT      O13402   2.162   7.756   6.280
 4387WAT     H113403   2.126   7.699   6.354
 4387WAT     H213404   2.221   7.700   6.220
 4388WAT      O13405   6.707   6.475   1.279
 4388WAT     H113406   6.675   6.448   1.188
 4388WAT     H213407   6.629   6.497   1.337
 4389WAT      O13408   0.608   5.791   1.325
 4389WAT     H113409   0.564   5.702   1.314
 4389WAT     H213410   0.577   5.833   1.410
 4390WAT      O13411   4.215   0.749   0.547
 4390WAT     H113412   4.300   0.764   0.597
 4390WAT     H213413   4.137   0.779   0.603
 4391WAT      O13414   6.029   3.695   6.750
 4391WAT     H113415   5.935   3.718   6.723
 4391WAT     H213416   6.079   3.664   6.669
 4392WAT      O13417   2.016   0.233   6.381
 4392WAT     H113418   2.042   0.162   6.447
 4392WAT     H213419   1.927   0.210   6.342
 4393WAT      O13420   5.411   9.755   4.274
 4393WAT     H113421   5.463   9.710   4.347
 4393WAT     H213422   5.317   9.722   4.275
 4394WAT      O13423   9.424   3.512   7.472
 4394WAT     H113424   9.457   3.547   7.559
 4394WAT     H213425   9.336   3.554   7.450
 4395WAT      O13426   1.195   1.756   4.395
 4395WAT     H113427   1.226   1.746   4.490
 4395WAT     H213428   1.100   1.785   4.394
 4396WAT      O13429   3.830   4.479   8.057
 4396WAT     H113430   3.829   4.442   7.964
 4396WAT     H213431   3.910   4.444   8.105
 4397WAT      O13432   5.804   0.624   8.936
 4397WAT     H113433   5.827   0.668   8.850
 4397WAT     H213434   5.810   0.524   8.925
 4398WAT      O13435   1.709   6.657   7.229
 4398WAT     H113436   1.718   6.728   7.159
 4398WAT     H213437   1.625   6.671   7.280
 4399WAT      O13438   9.230   6.608   1.168
 4399WAT     H113439   9.203   6.512   1.164
 4399WAT     H213440   9.298   6.626   1.098
 4400WAT      O13441   4.830   7.475   9.016
 4400WAT     H113442   4.738   7.475   9.056
 4400WAT     H213443   4.834   7.406   8.943
 4401WAT      O13444   7.702   5.329   9.377
 4401WAT     H113445   7.664   5.402   9.319
 4401WAT     H213446   7.761   5.270   9.322
 4402WAT      O13447   1.992   2.289   2.697
 4402WAT     H113448   1.955   2.232   2.771
 4402WAT     H213449   2.054   2.357   2.736
 4403WAT      O13450   6.828   8.536   8.674
 4403WAT     H113451   6.742   8.586   8.663
 4403WAT     H213452   6.818   8.466   8.744
 4404WAT      O13453   7.326   8.849   0.674
 4404WAT     H113454   7.350   8.903   0.593
 4404WAT     H213455   7.296   8.758   0.647
 4405WAT      O13456   6.356   0.481   6.646
 4405WAT     H113457   6.292   0.413   6.679
 4405WAT     H213458   6.317   0.573   6.658
 4406WAT      O13459   5.727   9.394   9.846
 4406WAT     H113460   5.630   9.400   9.823
 4406WAT     H213461   5.780   9.444   9.777
 4407WAT      O13462   0.158   0.055   9.471
 4407WAT     H113463   0.117  -0.036   9.477
 4407WAT     H213464   0.232   0.054   9.405
 4408WAT      O13465   8.647   2.903   9.288
 4408WAT     H113466   8.618   2.808   9.301
 4408WAT     H213467   8.613   2.959   9.363
 4409WAT      O13468   3.631   7.541   4.796
 4409WAT     H113469   3.549   7.553   4.738
 4409WAT     H213470   3.607   7.560   4.891
 4410WAT      O13471   8.327   0.736   2.711
 4410WAT     H113472   8.271   0.770   2.635
 4410WAT     H213473   8.353   0.814   2.769
 4411WAT      O13474   5.772   9.389   4.783
 4411WAT     H113475   5.722   9.371   4.698
 4411WAT     H213476   5.721   9.456   4.837
 4412WAT      O13477   8.502   2.169   2.901
 4412WAT     H113478   8.465   2.240   2.961
 4412WAT     H213479   8.597   2.190   2.878
 4413WAT      O13480   5.628   9.456   1.246
 4413WAT     H113481   5.528   9.461   1.253
 4413WAT     H213482   5.662   9.387   1.309
 4414WAT      O13483   2.614   5.231   1.624
 4414WAT     H113484   2.516   5.243   1.608
 4414WAT     H213485   2.642   5.143   1.587
 4415WAT      O13486   8.668   3.644   1.699
 4415WAT     H113487   8.677   3.655   1.798
 4415WAT     H213488   8.757   3.626   1.658
 4416WAT      O13489   5.922   3.400   0.636
 4416WAT     H113490   5.854   3.327   0.630
 4416WAT     H213491   5.923   3.437   0.729
 4417WAT      O13492   3.156   3.489   6.185
 4417WAT     H113493   3.225   3.554   6.153
 4417WAT     H213494   3.190   3.396   6.173
 4418WAT      O13495   1.072   9.729   4.973
 4418WAT     H113496   0.985   9.750   5.018
 4418WAT     H213497   1.054   9.672   4.893
 4419WAT      O13498   3.124   4.003   1.526
 4419WAT     H113499   3.120   3.909   1.491
 4419WAT     H213500   3.175   4.004   1.612
 4420WAT      O13501   4.870   6.131   4.468
 4420WAT     H113502   4.949   6.071   4.452
 4420WAT     H213503   4.824   6.103   4.552
 4421WAT      O13504   1.088   9.294   5.809
 4421WAT     H113505   1.188   9.305   5.811
 4421WAT     H213506   1.054   9.317   5.718
 4422WAT      O13507   2.865   1.448   7.638
 4422WAT     H113508   2.830   1.530   7.592
 4422WAT     H213509   2.908   1.388   7.571
 4423WAT      O13510   5.886   7.455   0.325
 4423WAT     H113511   5.935   7.417   0.402
 4423WAT     H213512   5.951   7.485   0.255
 4424WAT      O13513   7.647   7.053   2.597
 4424WAT     H113514   7.622   6.973   2.543
 4424WAT     H213515   7.696   7.024   2.679
 4425WAT      O13516   8.952   8.243   0.548
 4425WAT     H113517   8.912   8.252   0.640
 4425WAT     H213518   9.052   8.241   0.555
 4426WAT      O13519   1.183   4.502   2.403
 4426WAT     H113520   1.137   4.533   2.487
 4426WAT     H213521   1.240   4.576   2.368
 4427WAT      O13522   4.369   1.640   2.629
 4427WAT     H113523   4.332   1.581   2.557
 4427WAT     H213524   4.420   1.584   2.695
 4428WAT      O13525   2.588   4.550   2.091
 4428WAT     H113526   2.656   4.477   2.085
 4428WAT     H213527   2.590   4.603   2.006
 4429WAT      O13528   4.827   8.411   3.864
 4429WAT     H113529   4.780   8.498   3.877
 4429WAT     H213530   4.916   8.414   3.910
 4430WAT      O13531   4.284   8.548   8.758
 4430WAT     H113532   4.328   8.486   8.693
 4430WAT     H213533   4.207   8.503   8.802
 4431WAT      O13534   2.786   8.554   7.093
 4431WAT     H113535   2.872   8.545   7.043
 4431WAT     H213536   2.806   8.581   7.188
 4432WAT      O13537   9.671   7.791   4.643
 4432WAT     H113538   9.712   7.827   4.560
 4432WAT     H213539   9.734   7.802   4.719
 4433WAT      O13540   7.103   6.131   3.418
 4433WAT     H113541   7.058   6.043   3.431
 4433WAT     H213542   7.084   6.190   3.497
 4434WAT      O13543   3.959   5.295   3.094
 4434WAT     H113544   3.941   5.215   3.151
 4434WAT     H213545   3.962   5.376   3.151
 4435WAT      O13546   3.807   5.549   5.189
 4435WAT     H113547   3.905   5.560   5.208
 4435WAT     H213548   3.784   5.598   5.105
 4436WAT      O13549   0.394   0.019   8.287
 4436WAT     H113550   0.340   0.103   8.285
 4436WAT     H213551   0.447   0.011   8.202
 4437WAT      O13552   2.123   3.695   3.904
 4437WAT     H113553   2.067   3.612   3.902
 4437WAT     H213554   2.073   3.769   3.860
 4438WAT      O13555   7.756   2.204   0.472
 4438WAT     H113556   7.717   2.290   0.441
 4438WAT     H213557   7.747   2.197   0.571
 4439WAT      O13558   4.077   2.161   4.429
 4439WAT     H113559   4.104   2.242   4.481
 4439WAT     H213560   4.123   2.161   4.340
 4440WAT      O13561   8.637   1.615   6.205
 4440WAT     H113562   8.621   1.530   6.256
 4440WAT     H213563   8.722   1.607   6.152
 4441WAT      O13564   2.436   9.312   9.349
 4441WAT     H113565   2.407   9.402   9.381
 4441WAT     H213566   2.357   9.250   9.348
 4442WAT      O13567   0.121   3.035   9.742
 4442WAT     H113568   0.123   3.110   9.808
 4442WAT     H213569   0.054   2.967   9.772
 4443WAT      O13570   8.530   3.916   3.059
 4443WAT     H113571   8.468   3.851   3.103
 4443WAT     H213572   8.549   3.887   2.965
 4444WAT      O13573   8.821   6.551   2.860
 4444WAT     H113574   8.901   6.603   2.828
 4444WAT     H213575   8.772   6.604   2.929
 4445WAT      O13576   4.626   5.371   8.083
 4445WAT     H113577   4.660   5.296   8.139
 4445WAT     H213578   4.603   5.449   8.142
 4446WAT      O13579   8.305   9.151   1.841
 4446WAT     H113580   8.300   9.247   1.814
 4446WAT     H213581   8.392   9.112   1.812
 4447WAT      O13582   1.818   8.557   0.400
 4447WAT     H113583   1.805   8.602   0.312
 4447WAT     H213584   1.915   8.555   0.422
 4448WAT      O13585   7.701   4.107   4.249
 4448WAT     H113586   7.646   4.101   4.165
 4448WAT     H213587   7.764   4.030   4.252
 4449WAT      O13588   1.976   3.916   3.851
 4449WAT     H113589   2.038   3.994   3.857
 4449WAT     H213590   1.891   3.938   3.899
 4450WAT      O13591   7.902   8.925   9.292
 4450WAT     H113592   7.950   9.007   9.261
 4450WAT     H213593   7.895   8.860   9.216
 4451WAT      O13594   2.738   7.800   2.553
 4451WAT     H113595   2.795   7.718   2.546
 4451WAT     H213596   2.725   7.839   2.461
 4452WAT      O13597   7.026   0.380   9.428
 4452WAT     H113598   6.992   0.449   9.492
 4452WAT     H213599   7.084   0.424   9.360
 4453WAT      O13600   0.531   1.951   8.359
 4453WAT     H113601   0.534   1.853   8.343
 4453WAT     H213602   0.567   1.999   8.278
 4454WAT      O13603   3.394   3.541   7.842
 4454WAT     H113604   3.409   3.638   7.858
 4454WAT     H213605   3.305   3.515   7.880
 4455WAT      O13606   4.374   5.714   4.975
 4455WAT     H113607   4.319   5.706   4.892
 4455WAT     H213608   4.322   5.761   5.046
 4456WAT      O13609   7.148   7.533   1.529
 4456WAT     H113610   7.236   7.539   1.577
 4456WAT     H213611   7.073   7.534   1.596
 4457WAT      O13612   3.605   3.869   1.381
 4457WAT     H113613   3.568   3.905   1.466
 4457WAT     H213614   3.597   3.938   1.309
 4458WAT      O13615   8.152   5.001   2.142
 4458WAT     H113616   8.177   5.026   2.235
 4458WAT     H213617   8.073   5.055   2.113
 4459WAT      O13618   7.029   4.167   5.293
 4459WAT     H113619   7.017   4.254   5.245
 4459WAT     H213620   7.045   4.185   5.390
 4460WAT      O13621   2.652   6.481   1.463
 4460WAT     H113622   2.613   6.571   1.480
 4460WAT     H213623   2.699   6.482   1.375
 4461WAT      O13624   2.214   3.655   2.953
 4461WAT     H113625   2.178   3.629   3.043
 4461WAT     H213626   2.218   3.754   2.946
 4462WAT      O13627   6.770   2.685   5.176
 4462WAT     H113628   6.834   2.609   5.172
 4462WAT     H213629   6.732   2.692   5.269
 4463WAT      O13630   8.782   0.193   1.130
 4463WAT     H113631   8.875   0.231   1.132
 4463WAT     H213632   8.717   0.265   1.153
 4464WAT      O13633   0.321   8.160   2.761
 4464WAT     H113634   0.367   8.191   2.844
 4464WAT     H213635   0.352   8.068   2.739
 4465WAT      O13636   1.546   3.567   8.197
 4465WAT     H113637   1.602   3.486   8.215
 4465WAT     H213638   1.513   3.564   8.103
 4466WAT      O13639   1.563   8.655   8.454
 4466WAT     H113640   1.601   8.655   8.546
 4466WAT     H213641   1.463   8.652   8.459
 4467WAT      O13642   6.164   2.394   2.005
 4467WAT     H113643   6.233   2.467   2.006
 4467WAT     H213644   6.092   2.417   1.940
 4468WAT      O13645   5.397   7.058   0.847
 4468WAT     H113646   5.314   7.085   0.896
 4468WAT     H213647   5.411   7.118   0.768
 4469WAT      O13648   6.388   5.611   3.291
 4469WAT     H113649   6.475   5.612   3.242
 4469WAT     H213650   6.405   5.591   3.388
 4470WAT      O13651   8.431   1.474   9.128
 4470WAT     H113652   8.509   1.413   9.116
 4470WAT     H213653   8.375   1.474   9.045
 4471WAT      O13654   9.395   2.778   6.711
 4471WAT     H113655   9.441   2.828   6.636
 4471WAT     H213656   9.439   2.802   6.798
 4472WAT      O13657   2.376   4.623   1.584
 4472WAT     H113658   2.456   4.680   1.565
 4472WAT     H213659   2.406   4.529   1.600
 4473WAT      O13660   1.212   3.828   0.200
 4473WAT     H113661   1.235   3.916   0.241
 4473WAT     H213662   1.209   3.838   0.100
 4474WAT      O13663   3.829   7.405   7.888
 4474WAT     H113664   3.882   7.326   7.857
 4474WAT     H213665   3.856   7.428   7.982
 4475WAT      O13666   3.918   6.492   3.549
 4475WAT     H113667   3.873   6.547   3.479
 4475WAT     H213668   3.907   6.395   3.527
 4476WAT      O13669   9.712   0.648   4.500
 4476WAT     H113670   9.639   0.586   4.471
 4476WAT     H213671   9.800   0.600   4.499
 4477WAT      O13672   7.916   1.824   3.296
 4477WAT     H113673   7.958   1.903   3.251
 4477WAT     H213674   7.940   1.740   3.247
 4478WAT      O13675   1.938   0.923   5.751
 4478WAT     H113676   1.983   0.844   5.794
 4478WAT     H213677   2.005   0.975   5.698
 4479WAT      O13678   6.283   0.295   7.223
 4479WAT     H113679   6.371   0.259   7.194
 4479WAT     H213680   6.246   0.355   7.152
 4480WAT      O13681   0.169   2.991   4.105
 4480WAT     H113682   0.135   3.079   4.138
 4480WAT     H213683   0.264   2.979   4.135
 4481WAT      O13684   6.685   2.882   8.752
 4481WAT     H113685   6.611   2.834   8.798
 4481WAT     H213686   6.689   2.977   8.783
 4482WAT      O13687   4.418   2.203   5.699
 4482WAT     H113688   4.324   2.183   5.673
 4482WAT     H213689   4.479   2.180   5.623
 4483WAT      O13690   5.256   3.345   8.402
 4483WAT     H113691   5.212   3.435   8.396
 4483WAT     H213692   5.222   3.296   8.482
 4484WAT      O13693   0.375   6.697   4.178
 4484WAT     H113694   0.373   6.695   4.078
 4484WAT     H213695   0.435   6.771   4.208
 4485WAT      O13696   0.475   3.081   5.075
 4485WAT     H113697   0.432   3.005   5.123
 4485WAT     H213698   0.565   3.099   5.114
 4486WAT      O13699   0.581   5.200   9.061
 4486WAT     H113700   0.496   5.174   9.106
 4486WAT     H213701   0.628   5.269   9.116
 4487WAT      O13702   9.210   6.549   7.424
 4487WAT     H113703   9.264   6.522   7.504
 4487WAT     H213704   9.113   6.532   7.443
 4488WAT      O13705   6.250   5.942   4.512
 4488WAT     H113706   6.201   5.981   4.590
 4488WAT     H213707   6.188   5.931   4.435
 4489WAT      O13708   6.566   2.954   1.425
 4489WAT     H113709   6.656   2.920   1.453
 4489WAT     H213710   6.540   2.912   1.338
 4490WAT      O13711   6.197   3.873   1.931
 4490WAT     H113712   6.102   3.894   1.910
 4490WAT     H213713   6.205   3.847   2.027
 4491WAT      O13714   8.244   5.199   1.106
 4491WAT     H113715   8.164   5.139   1.102
 4491WAT     H213716   8.307   5.165   1.175
 4492WAT      O13717   8.349   3.418   6.731
 4492WAT     H113718   8.440   3.424   6.772
 4492WAT     H213719   8.318   3.509   6.704
 4493WAT      O13720   9.154   1.539   8.647
 4493WAT     H113721   9.102   1.526   8.562
 4493WAT     H213722   9.218   1.463   8.658
 4494WAT      O13723   3.601   3.832   3.378
 4494WAT     H113724   3.563   3.746   3.344
 4494WAT     H213725   3.567   3.908   3.324
 4495WAT      O13726   4.933   2.564   2.986
 4495WAT     H113727   4.844   2.521   2.973
 4495WAT     H213728   4.937   2.649   2.934
 4496WAT      O13729   9.710   8.792   7.570
 4496WAT     H113730   9.737   8.806   7.666
 4496WAT     H213731   9.625   8.841   7.553
 4497WAT      O13732   0.922   9.347   3.180
 4497WAT     H113733   0.866   9.403   3.241
 4497WAT     H213734   0.999   9.402   3.146
 4498WAT      O13735   7.223   2.042   9.849
 4498WAT     H113736   7.272   2.042   9.762
 4498WAT     H213737   7.186   2.134   9.865
 4499WAT      O13738   5.221   1.159   1.035
 4499WAT     H113739   5.181   1.202   1.116
 4499WAT     H213740   5.190   1.064   1.029
 4500WAT      O13741   5.300   0.749   0.708
 4500WAT     H113742   5.313   0.670   0.647
 4500WAT     H213743   5.248   0.819   0.660
 4501WAT      O13744   7.671   3.978   7.631
 4501WAT     H113745   7.606   4.051   7.651
 4501WAT     H213746   7.622   3.891   7.626
 4502WAT      O13747   1.665   5.186   1.080
 4502WAT     H113748   1.621   5.101   1.109
 4502WAT     H213749   1.645   5.203   0.984
 4503WAT      O13750   4.344   3.025   0.421
 4503WAT     H113751   4.326   2.929   0.400
 4503WAT     H213752   4.295   3.050   0.505
 4504WAT      O13753   7.926   2.167   8.098
 4504WAT     H113754   8.008   2.222   8.088
 4504WAT     H213755   7.846   2.219   8.066
 4505WAT      O13756   5.928   1.577   7.748
 4505WAT     H113757   5.909   1.624   7.834
 4505WAT     H213758   5.921   1.478   7.761
 4506WAT      O13759   4.471   1.811   7.104
 4506WAT     H113760   4.418   1.782   7.025
 4506WAT     H213761   4.428   1.892   7.145
 4507WAT      O13762   1.951   8.319   6.244
 4507WAT     H113763   2.017   8.307   6.170
 4507WAT     H213764   1.982   8.392   6.305
 4508WAT      O13765   8.694   4.349   9.190
 4508WAT     H113766   8.686   4.324   9.093
 4508WAT     H213767   8.756   4.427   9.199
 4509WAT      O13768   2.745   8.356   4.314
 4509WAT     H113769   2.720   8.442   4.358
 4509WAT     H213770   2.844   8.353   4.301
 4510WAT      O13771   9.466   7.063   7.677
 4510WAT     H113772   9.543   7.002   7.656
 4510WAT     H213773   9.383   7.027   7.636
 4511WAT      O13774   3.210   1.900   2.271
 4511WAT     H113775   3.194   1.802   2.283
 4511WAT     H213776   3.287   1.915   2.210
 4512WAT      O13777   9.332   3.086   9.602
 4512WAT     H113778   9.372   3.020   9.539
 4512WAT     H213779   9.239   3.057   9.626
 4513WAT      O13780   5.483   2.425   7.421
 4513WAT     H113781   5.559   2.490   7.418
 4513WAT     H213782   5.517   2.334   7.398
 4514WAT      O13783   7.750   1.278   7.974
 4514WAT     H113784   7.729   1.298   7.879
 4514WAT     H213785   7.762   1.363   8.025
 4515WAT      O13786   5.072   6.745   9.584
 4515WAT     H113787   5.170   6.745   9.563
 4515WAT     H213788   5.029   6.826   9.544
 4516WAT      O13789   0.177   1.815   5.496
 4516WAT     H113790   0.269   1.809   5.457
 4516WAT     H213791   0.130   1.896   5.460
 4517WAT      O13792   9.091   4.379   7.707
 4517WAT     H113793   9.023   4.448   7.680
 4517WAT     H213794   9.125   4.334   7.625
 4518WAT      O13795   3.689   2.453   4.174
 4518WAT     H113796   3.594   2.436   4.149
 4518WAT     H213797   3.719   2.384   4.240
 4519WAT      O13798   8.381   2.151   8.363
 4519WAT     H113799   8.396   2.241   8.320
 4519WAT     H213800   8.462   2.125   8.415
 4520WAT      O13801   0.459   9.735   8.503
 4520WAT     H113802   0.385   9.710   8.564
 4520WAT     H213803   0.423   9.791   8.428
 4521WAT      O13804   3.172   1.027   0.015
 4521WAT     H113805   3.226   0.944   0.032
 4521WAT     H213806   3.078   1.011   0.046
 4522WAT      O13807   0.063   6.360   7.159
 4522WAT     H113808  -0.023   6.311   7.179
 4522WAT     H213809   0.140   6.296   7.168
 4523WAT      O13810   6.239   4.183   2.187
 4523WAT     H113811   6.323   4.214   2.232
 4523WAT     H213812   6.164   4.245   2.210
 4524WAT      O13813   3.992   9.106   6.218
 4524WAT     H113814   4.075   9.117   6.163
 4524WAT     H213815   4.018   9.073   6.310
 4525WAT      O13816   3.747   1.647   2.181
 4525WAT     H113817   3.805   1.581   2.229
 4525WAT     H213818   3.725   1.723   2.242
 4526WAT      O13819   1.993   1.632   0.289
 4526WAT     H113820   1.926   1.691   0.244
 4526WAT     H213821   2.080   1.681   0.299
 4527WAT      O13822   8.622   9.345   4.382
 4527WAT     H113823   8.605   9.377   4.475
 4527WAT     H213824   8.700   9.282   4.383
 4528WAT      O13825   6.857   6.740   5.962
 4528WAT     H113826   6.810   6.687   5.892
 4528WAT     H213827   6.791   6.792   6.016
 4529WAT      O13828   3.656   7.777   1.637
 4529WAT     H113829   3.639   7.717   1.559
 4529WAT     H213830   3.599   7.859   1.630
 4530WAT      O13831   0.038   4.004   6.450
 4530WAT     H113832   0.042   3.951   6.365
 4530WAT     H213833  -0.013   3.953   6.519
 4531WAT      O13834   7.137   7.643   9.417
 4531WAT     H113835   7.040   7.642   9.393
 4531WAT     H213836   7.174   7.550   9.409
 4532WAT      O13837   4.270   8.161   9.336
 4532WAT     H113838   4.291   8.254   9.369
 4532WAT     H213839   4.196   8.122   9.391
 4533WAT      O13840   5.269   2.714   1.260
 4533WAT     H113841   5.335   2.784   1.232
 4533WAT     H213842   5.256   2.649   1.186
 4534WAT      O13843   4.335   6.845   1.213
 4534WAT     H113844   4.258   6.805   1.164
 4534WAT     H213845   4.309   6.862   1.308
 4535WAT      O13846   5.120   3.145   6.083
 4535WAT     H113847   5.033   3.118   6.042
 4535WAT     H213848   5.195   3.101   6.034
 4536WAT      O13849   0.177   5.462   2.677
 4536WAT     H113850   0.152   5.380   2.625
 4536WAT     H213851   0.253   5.508   2.633
 4537WAT      O13852   0.099   4.372   2.952
 4537WAT     H113853   0.003   4.399   2.964
 4537WAT     H213854   0.132   4.401   2.863
 4538WAT      O13855   2.378   0.251   1.093
 4538WAT     H113856   2.431   0.332   1.119
 4538WAT     H213857   2.435   0.170   1.104
 4539WAT      O13858   7.951   4.564   8.138
 4539WAT     H113859   7.965   4.486   8.078
 4539WAT     H213860   7.865   4.609   8.115
 4540WAT      O13861   4.164   5.696   9.865
 4540WAT     H113862   4.166   5.793   9.842
 4540WAT     H213863   4.244   5.674   9.921
 4541WAT      O13864   0.645   2.498   0.604
 4541WAT     H113865   0.549   2.496   0.575
 4541WAT     H213866   0.658   2.433   0.679
 4542WAT      O13867   7.658   0.129   3.488
 4542WAT     H113868   7.679   0.133   3.586
 4542WAT     H213869   7.722   0.068   3.442
 4543WAT      O13870   4.779   9.539   3.490
 4543WAT     H113871   4.776   9.548   3.390
 4543WAT     H213872   4.753   9.626   3.532
 4544WAT      O13873   5.649   2.738   6.725
 4544WAT     H113874   5.703   2.675   6.670
 4544WAT     H213875   5.552   2.713   6.718
 4545WAT      O13876   4.738   3.992   4.379
 4545WAT     H113877   4.778   3.917   4.326
 4545WAT     H213878   4.671   4.040   4.323
 4546WAT      O13879   1.344   1.383   0.468
 4546WAT     H113880   1.429   1.352   0.510
 4546WAT     H213881   1.359   1.399   0.370
 4547WAT      O13882   0.369   1.166   0.136
 4547WAT     H113883   0.442   1.226   0.101
 4547WAT     H213884   0.312   1.136   0.059
 4548WAT      O13885   8.300   7.441   3.250
 4548WAT     H113886   8.293   7.476   3.157
 4548WAT     H213887   8.213   7.399   3.276
 4549WAT      O13888   3.315   0.373   7.601
 4549WAT     H113889   3.253   0.403   7.529
 4549WAT     H213890   3.381   0.308   7.563
 4550WAT      O13891   6.082   1.320   7.138
 4550WAT     H113892   6.069   1.311   7.236
 4550WAT     H213893   6.162   1.378   7.120
 4551WAT      O13894   9.407   4.085   4.573
 4551WAT     H113895   9.498   4.108   4.607
 4551WAT     H213896   9.414   4.007   4.511
 4552WAT      O13897   1.341   1.588   0.718
 4552WAT     H113898   1.251   1.608   0.758
 4552WAT     H213899   1.329   1.554   0.625
 4553WAT      O13900   7.975   6.921   7.835
 4553WAT     H113901   7.885   6.889   7.864
 4553WAT     H213902   8.020   6.848   7.783
 4554WAT      O13903   8.676   3.938   7.167
 4554WAT     H113904   8.625   3.948   7.252
 4554WAT     H213905   8.687   3.840   7.147
 4555WAT      O13906   4.427   4.693   8.756
 4555WAT     H113907   4.373   4.656   8.832
 4555WAT     H213908   4.471   4.617   8.707
 4556WAT      O13909   1.874   0.860   3.419
 4556WAT     H113910   1.957   0.885   3.370
 4556WAT     H213911   1.863   0.761   3.420
 4557WAT      O13912   1.429   7.468   1.410
 4557WAT     H113913   1.353   7.403   1.408
 4557WAT     H213914   1.449   7.500   1.318
 4558WAT      O13915   1.480   3.747   6.919
 4558WAT     H113916   1.533   3.680   6.867
 4558WAT     H213917   1.415   3.699   6.977
 4559WAT      O13918   8.957   9.466   6.854
 4559WAT     H113919   8.934   9.462   6.951
 4559WAT     H213920   9.024   9.538   6.838
 4560WAT      O13921   7.639   7.373   9.136
 4560WAT     H113922   7.542   7.376   9.162
 4560WAT     H213923   7.649   7.314   9.056
 4561WAT      O13924   8.829   0.050   8.846
 4561WAT     H113925   8.734   0.069   8.869
 4561WAT     H213926   8.853  -0.043   8.873
 4562WAT      O13927   4.566   9.705   5.000
 4562WAT     H113928   4.554   9.687   4.903
 4562WAT     H213929   4.639   9.646   5.036
 4563WAT      O13930   8.065   0.639   2.593
 4563WAT     H113931   8.067   0.545   2.558
 4563WAT     H213932   8.128   0.647   2.670
 4564WAT      O13933   8.273   6.402   0.515
 4564WAT     H113934   8.369   6.413   0.490
 4564WAT     H213935   8.224   6.488   0.499
 4565WAT      O13936   2.855   8.846   6.999
 4565WAT     H113937   2.886   8.877   6.908
 4565WAT     H213938   2.835   8.748   6.996
 4566WAT      O13939   4.681   4.283   5.741
 4566WAT     H113940   4.714   4.214   5.806
 4566WAT     H213941   4.621   4.239   5.675
 4567WAT      O13942   2.734   1.565   1.324
 4567WAT     H113943   2.809   1.586   1.262
 4567WAT     H213944   2.766   1.503   1.396
 4568WAT      O13945   9.035   1.140   2.861
 4568WAT     H113946   9.084   1.193   2.930
 4568WAT     H213947   9.094   1.067   2.826
 4569WAT      O13948   3.186   5.621   9.574
 4569WAT     H113949   3.227   5.650   9.660
 4569WAT     H213950   3.254   5.569   9.521
 4570WAT      O13951   0.943   6.342   1.069
 4570WAT     H113952   0.943   6.301   0.978
 4570WAT     H213953   0.876   6.296   1.127
 4571WAT      O13954   7.049   8.415   5.662
 4571WAT     H113955   6.954   8.395   5.685
 4571WAT     H213956   7.098   8.329   5.647
 4572WAT      O13957   1.669   0.800   4.308
 4572WAT     H113958   1.670   0.895   4.278
 4572WAT     H213959   1.584   0.781   4.357
 4573WAT      O13960   5.134   5.741   3.645
 4573WAT     H113961   5.121   5.791   3.560
 4573WAT     H213962   5.169   5.804   3.715
 4574WAT      O13963   6.845   2.111   3.746
 4574WAT     H113964   6.784   2.150   3.677
 4574WAT     H213965   6.928   2.076   3.701
 4575WAT      O13966   9.694   3.719   6.448
 4575WAT     H113967   9.674   3.816   6.462
 4575WAT     H213968   9.631   3.681   6.381
 4576WAT      O13969   3.222   0.554   1.743
 4576WAT     H113970   3.142   0.605   1.775
 4576WAT     H213971   3.203   0.516   1.653
 4577WAT      O13972   3.845   7.873   9.356
 4577WAT     H113973   3.818   7.963   9.320
 4577WAT     H213974   3.763   7.820   9.378
 4578WAT      O13975   5.156   4.291   6.291
 4578WAT     H113976   5.086   4.285   6.362
 4578WAT     H213977   5.226   4.357   6.318
 4579WAT      O13978   0.956   1.459   9.149
 4579WAT     H113979   0.941   1.556   9.132
 4579WAT     H213980   0.873   1.407   9.129
 4580WAT      O13981   2.295   6.497   6.967
 4580WAT     H113982   2.317   6.512   7.063
 4580WAT     H213983   2.308   6.401   6.943
 4581WAT      O13984   0.114   6.789   4.113
 4581WAT     H113985   0.202   6.769   4.157
 4581WAT     H213986   0.112   6.885   4.085
 4582WAT      O13987   6.727   8.683   6.217
 4582WAT     H113988   6.778   8.598   6.202
 4582WAT     H213989   6.760   8.728   6.300
 4583WAT      O13990   3.492   7.816   3.670
 4583WAT     H113991   3.435   7.737   3.690
 4583WAT     H213992   3.587   7.796   3.695
 4584WAT      O13993   7.360   4.809   0.832
 4584WAT     H113994   7.414   4.893   0.824
 4584WAT     H213995   7.308   4.810   0.917
 4585WAT      O13996   6.282   1.294   2.145
 4585WAT     H113997   6.298   1.237   2.065
 4585WAT     H213998   6.369   1.319   2.186
 4586WAT      O13999   6.062   2.041   2.246
 4586WAT     H114000   5.965   2.043   2.273
 4586WAT     H214001   6.071   2.078   2.153
 4587WAT      O14002   2.061   9.152   6.829
 4587WAT     H114003   2.021   9.062   6.848
 4587WAT     H214004   2.004   9.223   6.870
 4588WAT      O14005   7.281   4.286   7.791
 4588WAT     H114006   7.206   4.241   7.839
 4588WAT     H214007   7.244   4.357   7.730
 4589WAT      O14008   3.171   1.882   3.461
 4589WAT     H114009   3.201   1.960   3.515
 4589WAT     H214010   3.150   1.912   3.368
 4590WAT      O14011   3.214   2.665   4.192
 4590WAT     H114012   3.115   2.667   4.201
 4590WAT     H214013   3.240   2.707   4.105
 4591WAT      O14014   8.428   1.689   6.067
 4591WAT     H114015   8.439   1.786   6.044
 4591WAT     H214016   8.513   1.655   6.108
 4592WAT      O14017   9.453   2.812   5.758
 4592WAT     H114018   9.503   2.852   5.835
 4592WAT     H214019   9.388   2.745   5.793
 4593WAT      O14020   4.208   2.306   8.069
 4593WAT     H114021   4.220   2.280   7.973
 4593WAT     H214022   4.296   2.336   8.106
 4594WAT      O14023   8.056   4.360   4.073
 4594WAT     H114024   8.011   4.346   4.161
 4594WAT     H214025   7.996   4.329   3.999
 4595WAT      O14026   2.407   4.339   2.674
 4595WAT     H114027   2.343   4.264   2.691
 4595WAT     H214028   2.376   4.392   2.595
 4596WAT      O14029   4.360   3.559   0.081
 4596WAT     H114030   4.365   3.462   0.105
 4596WAT     H214031   4.293   3.605   0.139
 4597WAT      O14032   3.635   7.797   3.177
 4597WAT     H114033   3.575   7.875   3.187
 4597WAT     H214034   3.679   7.800   3.087
 4598WAT      O14035   5.032   0.521   9.324
 4598WAT     H114036   4.959   0.529   9.392
 4598WAT     H214037   4.991   0.509   9.233
 4599WAT      O14038   7.037   5.060   7.096
 4599WAT     H114039   7.121   5.050   7.150
 4599WAT     H214040   7.048   5.014   7.008
 4600WAT      O14041   5.783   3.850   5.164
 4600WAT     H114042   5.865   3.827   5.111
 4600WAT     H214043   5.704   3.807   5.121
 4601WAT      O14044   7.280   1.125   4.219
 4601WAT     H114045   7.328   1.186   4.156
 4601WAT     H214046   7.184   1.154   4.226
 4602WAT      O14047   9.744   2.641   9.467
 4602WAT     H114048   9.837   2.675   9.452
 4602WAT     H214049   9.747   2.561   9.527
 4603WAT      O14050   2.985   1.260   6.518
 4603WAT     H114051   2.935   1.243   6.433
 4603WAT     H214052   3.082   1.272   6.497
 4604WAT      O14053   0.862   7.646   9.741
 4604WAT     H114054   0.914   7.602   9.814
 4604WAT     H214055   0.764   7.640   9.762
 4605WAT      O14056   6.061   8.358   4.849
 4605WAT     H114057   6.125   8.408   4.907
 4605WAT     H214058   6.032   8.275   4.896
 4606WAT      O14059   0.148   6.927   5.401
 4606WAT     H114060   0.244   6.919   5.371
 4606WAT     H214061   0.126   7.023   5.418
 4607WAT      O14062   2.786   2.716   3.397
 4607WAT     H114063   2.748   2.748   3.484
 4607WAT     H214064   2.773   2.787   3.328
 4608WAT      O14065   1.929   3.972   1.223
 4608WAT     H114066   1.930   3.872   1.219
 4608WAT     H214067   2.022   4.007   1.218
 4609WAT      O14068   7.862   3.378   9.528
 4609WAT     H114069   7.907   3.465   9.507
 4609WAT     H214070   7.769   3.380   9.492
 4610WAT      O14071   6.876   9.429   6.433
 4610WAT     H114072   6.844   9.351   6.380
 4610WAT     H214073   6.855   9.514   6.383
 4611WAT      O14074   7.890   5.342   5.127
 4611WAT     H114075   7.989   5.329   5.136
 4611WAT     H214076   7.859   5.407   5.197
 4612WAT      O14077   9.619   1.969   4.196
 4612WAT     H114078   9.706   2.020   4.200
 4612WAT     H214079   9.627   1.895   4.129
 4613WAT      O14080   0.139   5.861   1.187
 4613WAT     H114081   0.113   5.780   1.239
 4613WAT     H214082   0.057   5.908   1.155
 4614WAT      O14083   4.710   8.102   2.697
 4614WAT     H114084   4.782   8.144   2.751
 4614WAT     H214085   4.720   8.129   2.601
 4615WAT      O14086   1.079   5.364   1.293
 4615WAT     H114087   1.083   5.461   1.318
 4615WAT     H214088   1.151   5.314   1.340
 4616WAT      O14089   8.023   5.247   2.235
 4616WAT     H114090   8.057   5.340   2.224
 4616WAT     H214091   8.088   5.194   2.289
 4617WAT      O14092   8.764   3.560   3.098
 4617WAT     H114093   8.766   3.630   3.027
 4617WAT     H214094   8.693   3.492   3.076
 4618WAT      O14095   8.730   6.136   0.302
 4618WAT     H114096   8.776   6.217   0.265
 4618WAT     H214097   8.787   6.096   0.374
 4619WAT      O14098   8.344   0.072   2.469
 4619WAT     H114099   8.254   0.031   2.450
 4619WAT     H214100   8.346   0.104   2.563
 4620WAT      O14101   1.483   1.516   6.475
 4620WAT     H114102   1.576   1.544   6.448
 4620WAT     H214103   1.474   1.417   6.464
 4621WAT      O14104   8.353   9.795   8.006
 4621WAT     H114105   8.275   9.818   8.064
 4621WAT     H214106   8.427   9.860   8.024
 4622WAT      O14107   9.331   0.767   2.119
 4622WAT     H114108   9.409   0.713   2.151
 4622WAT     H214109   9.326   0.762   2.019
 4623WAT      O14110   6.235   2.834   4.786
 4623WAT     H114111   6.150   2.885   4.790
 4623WAT     H214112   6.273   2.824   4.878
 4624WAT      O14113   2.914   1.980   8.578
 4624WAT     H114114   2.995   1.935   8.540
 4624WAT     H214115   2.850   1.910   8.610
 4625WAT      O14116   3.487   2.602   5.002
 4625WAT     H114117   3.434   2.679   4.967
 4625WAT     H214118   3.580   2.607   4.967
 4626WAT      O14119   3.002   1.967   2.059
 4626WAT     H114120   3.055   1.984   1.976
 4626WAT     H214121   3.062   1.972   2.139
 4627WAT      O14122   9.107   6.700   7.678
 4627WAT     H114123   9.197   6.659   7.696
 4627WAT     H214124   9.070   6.663   7.593
 4628WAT      O14125   9.451   2.751   9.702
 4628WAT     H114126   9.378   2.759   9.771
 4628WAT     H214127   9.410   2.749   9.611
 4629WAT      O14128   6.735   8.394   7.811
 4629WAT     H114129   6.778   8.376   7.723
 4629WAT     H214130   6.757   8.320   7.875
 4630WAT      O14131   8.762   9.036   7.444
 4630WAT     H114132   8.767   8.936   7.445
 4630WAT     H214133   8.729   9.066   7.354
 4631WAT      O14134   2.320   0.715   9.656
 4631WAT     H114135   2.280   0.774   9.586
 4631WAT     H214136   2.375   0.771   9.719
 4632WAT      O14137   8.858   4.105   6.617
 4632WAT     H114138   8.835   4.123   6.712
 4632WAT     H214139   8.911   4.020   6.610
 4633WAT      O14140   8.410   2.193   7.975
 4633WAT     H114141   8.404   2.250   7.894
 4633WAT     H214142   8.400   2.250   8.057
 4634WAT      O14143   0.943   1.480   0.616
 4634WAT     H114144   0.943   1.556   0.552
 4634WAT     H214145   0.901   1.509   0.702
 4635WAT      O14146   3.695   4.921   2.248
 4635WAT     H114147   3.668   4.893   2.155
 4635WAT     H214148   3.772   4.865   2.278
 4636WAT      O14149   8.239   2.734   0.107
 4636WAT     H114150   8.159   2.775   0.149
 4636WAT     H214151   8.310   2.721   0.176
 4637WAT      O14152   8.407   7.177   1.812
 4637WAT     H114153   8.440   7.185   1.906
 4637WAT     H214154   8.458   7.240   1.754
 4638WAT      O14155   3.967   1.848   2.853
 4638WAT     H114156   3.874   1.857   2.888
 4638WAT     H214157   3.990   1.751   2.843
 4639WAT      O14158   5.583   1.772   8.984
 4639WAT     H114159   5.543   1.862   8.998
 4639WAT     H214160   5.519   1.714   8.934
 4640WAT      O14161   3.494   2.773   0.020
 4640WAT     H114162   3.559   2.709   0.062
 4640WAT     H214163   3.544   2.852  -0.017
 4641WAT      O14164   0.732   4.737   7.239
 4641WAT     H114165   0.717   4.831   7.209
 4641WAT     H214166   0.644   4.691   7.253
 4642WAT      O14167   3.177   0.263   7.011
 4642WAT     H114168   3.249   0.332   7.016
 4642WAT     H214169   3.210   0.183   6.959
 4643WAT      O14170   5.311   8.453   6.491
 4643WAT     H114171   5.261   8.394   6.554
 4643WAT     H214172   5.404   8.466   6.524
 4644WAT      O14173   1.108   1.909   2.109
 4644WAT     H114174   1.014   1.899   2.077
 4644WAT     H214175   1.113   1.886   2.206
 4645WAT      O14176   3.821   7.310   3.174
 4645WAT     H114177   3.898   7.373   3.172
 4645WAT     H214178   3.829   7.244   3.099
 4646WAT      O14179   2.868   2.254   4.757
 4646WAT     H114180   2.872   2.339   4.703
 4646WAT     H214181   2.831   2.181   4.700
 4647WAT      O14182   9.686   8.941   5.292
 4647WAT     H114183   9.623   8.869   5.320
 4647WAT     H214184   9.637   9.027   5.282
 4648WAT      O14185   0.602   3.263   3.681
 4648WAT     H114186   0.627   3.167   3.671
 4648WAT     H214187   0.680   3.314   3.718
 4649WAT      O14188   0.020   6.510   0.750
 4649WAT     H114189   0.048   6.414   0.749
 4649WAT     H214190   0.005   6.541   0.656
 4650WAT      O14191   3.907   2.456   3.174
 4650WAT     H114192   3.927   2.553   3.180
 4650WAT     H214193   3.912   2.415   3.265
 4651WAT      O14194   1.503   7.798   2.431
 4651WAT     H114195   1.513   7.715   2.375
 4651WAT     H214196   1.411   7.836   2.418
 4652WAT      O14197   1.314   3.763   3.944
 4652WAT     H114198   1.306   3.783   4.041
 4652WAT     H214199   1.309   3.848   3.892
 4653WAT      O14200   1.522   2.640   1.101
 4653WAT     H114201   1.606   2.617   1.150
 4653WAT     H214202   1.450   2.661   1.167
 4654WAT      O14203   2.490   5.166   1.911
 4654WAT     H114204   2.556   5.176   1.986
 4654WAT     H214205   2.522   5.095   1.848
 4655WAT      O14206   9.623   9.122   0.907
 4655WAT     H114207   9.714   9.145   0.873
 4655WAT     H214208   9.604   9.025   0.891
 4656WAT      O14209   4.742   1.120   3.477
 4656WAT     H114210   4.706   1.112   3.384
 4656WAT     H214211   4.787   1.209   3.487
 4657WAT      O14212   2.375   7.179   5.382
 4657WAT     H114213   2.404   7.263   5.336
 4657WAT     H214214   2.391   7.100   5.322
 4658WAT      O14215   0.134   7.727   1.988
 4658WAT     H114216   0.213   7.782   1.960
 4658WAT     H214217   0.158   7.675   2.071
 4659WAT      O14218   0.805   9.184   8.175
 4659WAT     H114219   0.865   9.107   8.199
 4659WAT     H214220   0.804   9.196   8.076
 4660WAT      O14221   3.115   5.486   5.366
 4660WAT     H114222   3.208   5.523   5.376
 4660WAT     H214223   3.057   5.523   5.439
 4661WAT      O14224   0.621   5.672   8.797
 4661WAT     H114225   0.621   5.768   8.828
 4661WAT     H214226   0.705   5.654   8.746
 4662WAT      O14227   4.859   9.424   7.561
 4662WAT     H114228   4.910   9.345   7.527
 4662WAT     H214229   4.795   9.455   7.491
 4663WAT      O14230   1.223   8.771   0.159
 4663WAT     H114231   1.296   8.717   0.117
 4663WAT     H214232   1.250   8.798   0.251
 4664WAT      O14233   9.425   6.106   7.489
 4664WAT     H114234   9.338   6.155   7.474
 4664WAT     H214235   9.496   6.172   7.512
 4665WAT      O14236   1.912   0.077   0.636
 4665WAT     H114237   1.992   0.016   0.628
 4665WAT     H214238   1.886   0.085   0.732
 4666WAT      O14239   6.690   5.590   2.382
 4666WAT     H114240   6.766   5.525   2.379
 4666WAT     H214241   6.713   5.671   2.329
 4667WAT      O14242   5.810   9.266   2.675
 4667WAT     H114243   5.884   9.261   2.742
 4667WAT     H214244   5.848   9.284   2.584
 4668WAT      O14245   1.735   7.018   7.424
 4668WAT     H114246   1.800   7.067   7.367
 4668WAT     H214247   1.642   7.037   7.395
 4669WAT      O14248   0.017   2.138   3.424
 4669WAT     H114249  -0.042   2.057   3.432
 4669WAT     H214250   0.102   2.123   3.474
 4670WAT      O14251   6.736   6.020   8.844
 4670WAT     H114252   6.823   6.036   8.891
 4670WAT     H214253   6.731   5.925   8.814
 4671WAT      O14254   6.766   2.745   2.690
 4671WAT     H114255   6.678   2.747   2.642
 4671WAT     H214256   6.788   2.650   2.715
 4672WAT      O14257   1.392   3.258   3.250
 4672WAT     H114258   1.343   3.226   3.169
 4672WAT     H214259   1.416   3.355   3.239
 4673WAT      O14260   2.543   2.093   9.836
 4673WAT     H114261   2.513   1.999   9.817
 4673WAT     H214262   2.642   2.099   9.825
 4674WAT      O14263   2.491   5.038   0.722
 4674WAT     H114264   2.444   5.041   0.810
 4674WAT     H214265   2.435   4.989   0.656
 4675WAT      O14266   3.551   1.511   2.051
 4675WAT     H114267   3.595   1.474   1.969
 4675WAT     H214268   3.618   1.563   2.105
 4676WAT      O14269   8.620   7.636   2.359
 4676WAT     H114270   8.528   7.655   2.325
 4676WAT     H214271   8.638   7.538   2.354
 4677WAT      O14272   5.524   1.977   7.400
 4677WAT     H114273   5.462   1.985   7.477
 4677WAT     H214274   5.590   1.904   7.417
 4678WAT      O14275   3.488   8.680   1.483
 4678WAT     H114276   3.427   8.708   1.409
 4678WAT     H214277   3.568   8.633   1.444
 4679WAT      O14278   3.250   6.956   9.184
 4679WAT     H114279   3.287   6.972   9.275
 4679WAT     H214280   3.319   6.912   9.127
 4680WAT      O14281   0.693   8.762   9.884
 4680WAT     H114282   0.788   8.737   9.898
 4680WAT     H214283   0.634   8.685   9.907
 4681WAT      O14284   3.069   9.310   6.566
 4681WAT     H114285   3.085   9.261   6.653
 4681WAT     H214286   3.062   9.244   6.492
 4682WAT      O14287   6.164   8.349   0.292
 4682WAT     H114288   6.075   8.378   0.258
 4682WAT     H214289   6.219   8.313   0.216
 4683WAT      O14290   5.940   8.314   6.586
 4683WAT     H114291   5.866   8.367   6.546
 4683WAT     H214292   6.025   8.368   6.583
 4684WAT      O14293   3.208   2.815   1.568
 4684WAT     H114294   3.241   2.762   1.490
 4684WAT     H214295   3.207   2.912   1.545
 4685WAT      O14296   4.777   8.445   8.532
 4685WAT     H114297   4.830   8.503   8.470
 4685WAT     H214298   4.804   8.349   8.519
 4686WAT      O14299   9.155   9.152   5.746
 4686WAT     H114300   9.079   9.155   5.810
 4686WAT     H214301   9.167   9.059   5.712
 4687WAT      O14302   4.916   1.699   5.099
 4687WAT     H114303   4.951   1.776   5.045
 4687WAT     H214304   4.830   1.724   5.142
 4688WAT      O14305   1.672   9.766   0.770
 4688WAT     H114306   1.763   9.783   0.809
 4688WAT     H214307   1.603   9.777   0.841
 4689WAT      O14308   8.625   7.369   8.914
 4689WAT     H114309   8.700   7.397   8.974
 4689WAT     H214310   8.539   7.370   8.965
 4690WAT      O14311   6.086   0.359   6.203
 4690WAT     H114312   5.992   0.371   6.171
 4690WAT     H214313   6.111   0.263   6.199
 4691WAT      O14314   5.694   6.535   3.164
 4691WAT     H114315   5.733   6.561   3.076
 4691WAT     H214316   5.741   6.454   3.199
 4692WAT      O14317   6.772   0.431   8.548
 4692WAT     H114318   6.767   0.406   8.644
 4692WAT     H214319   6.682   0.418   8.505
 4693WAT      O14320   5.515   7.783   2.681
 4693WAT     H114321   5.584   7.838   2.634
 4693WAT     H214322   5.549   7.690   2.693
 4694WAT      O14323   3.618   0.755   1.300
 4694WAT     H114324   3.577   0.764   1.391
 4694WAT     H214325   3.717   0.748   1.308
 4695WAT      O14326   6.224   4.422   9.878
 4695WAT     H114327   6.230   4.509   9.829
 4695WAT     H214328   6.293   4.359   9.842
 4696WAT      O14329   6.881   6.245   9.791
 4696WAT     H114330   6.919   6.334   9.811
 4696WAT     H214331   6.825   6.214   9.868
 4697WAT      O14332   9.369   9.690   1.430
 4697WAT     H114333   9.396   9.681   1.526
 4697WAT     H214334   9.289   9.633   1.412
 4698WAT      O14335   2.942   1.523   6.591
 4698WAT     H114336   2.940   1.432   6.631
 4698WAT     H214337   2.973   1.517   6.496
 4699WAT      O14338   9.136   0.351   4.131
 4699WAT     H114339   9.232   0.373   4.151
 4699WAT     H214340   9.129   0.321   4.036
 4700WAT      O14341   8.588   4.184   5.879
 4700WAT     H114342   8.569   4.190   5.977
 4700WAT     H214343   8.514   4.228   5.828
 4701WAT      O14344   2.587   3.395   3.729
 4701WAT     H114345   2.620   3.438   3.645
 4701WAT     H214346   2.488   3.400   3.732
 4702WAT      O14347   7.586   5.613   5.438
 4702WAT     H114348   7.531   5.592   5.519
 4702WAT     H214349   7.529   5.660   5.370
 4703WAT      O14350   4.620   9.187   4.988
 4703WAT     H114351   4.719   9.178   4.995
 4703WAT     H214352   4.576   9.112   5.036
 4704WAT      O14353   6.348   5.478   7.009
 4704WAT     H114354   6.444   5.506   7.001
 4704WAT     H214355   6.331   5.399   6.950
 4705WAT      O14356   0.702   0.410   6.439
 4705WAT     H114357   0.763   0.486   6.464
 4705WAT     H214358   0.610   0.429   6.473
 4706WAT      O14359   7.279   8.178   7.020
 4706WAT     H114360   7.190   8.145   6.989
 4706WAT     H214361   7.330   8.103   7.062
 4707WAT      O14362   2.572   7.921   4.540
 4707WAT     H114363   2.577   8.020   4.549
 4707WAT     H214364   2.480   7.890   4.566
 4708WAT      O14365   8.150   7.472   4.409
 4708WAT     H114366   8.137   7.558   4.457
 4708WAT     H214367   8.083   7.405   4.442
 4709WAT      O14368   0.332   6.687   7.390
 4709WAT     H114369   0.329   6.690   7.490
 4709WAT     H214370   0.316   6.779   7.354
 4710WAT      O14371   7.521   1.578   6.988
 4710WAT     H114372   7.482   1.663   7.024
 4710WAT     H214373   7.621   1.581   6.994
 4711WAT      O14374   4.738   8.935   8.847
 4711WAT     H114375   4.790   8.972   8.924
 4711WAT     H214376   4.795   8.872   8.795
 4712WAT      O14377   2.390   4.311   5.282
 4712WAT     H114378   2.374   4.260   5.197
 4712WAT     H214379   2.358   4.405   5.270
 4713WAT      O14380   4.364   2.547   4.338
 4713WAT     H114381   4.421   2.502   4.269
 4713WAT     H214382   4.267   2.532   4.316
 4714WAT      O14383   7.279   9.837   0.519
 4714WAT     H114384   7.192   9.885   0.530
 4714WAT     H214385   7.301   9.829   0.422
 4715WAT      O14386   7.409   0.627   5.743
 4715WAT     H114387   7.318   0.658   5.715
 4715WAT     H214388   7.408   0.606   5.841
 4716WAT      O14389   5.821   4.173   7.234
 4716WAT     H114390   5.876   4.094   7.208
 4716WAT     H214391   5.827   4.243   7.162
 4717WAT      O14392   2.704   1.599   6.426
 4717WAT     H114393   2.781   1.590   6.489
 4717WAT     H214394   2.621   1.617   6.477
 4718WAT      O14395   5.785   9.044   4.587
 4718WAT     H114396   5.823   8.954   4.568
 4718WAT     H214397   5.688   9.037   4.608
 4719WAT      O14398   0.423   1.683   6.144
 4719WAT     H114399   0.369   1.601   6.126
 4719WAT     H214400   0.498   1.687   6.078
 4720WAT      O14401   9.145   1.566   2.756
 4720WAT     H114402   9.237   1.535   2.778
 4720WAT     H214403   9.144   1.606   2.664
 4721WAT      O14404   1.031   3.336   5.142
 4721WAT     H114405   1.041   3.284   5.227
 4721WAT     H214406   1.089   3.296   5.071
 4722WAT      O14407   2.417   9.815   2.129
 4722WAT     H114408   2.502   9.867   2.118
 4722WAT     H214409   2.343   9.863   2.082
 4723WAT      O14410   6.936   2.235   2.765
 4723WAT     H114411   6.903   2.261   2.856
 4723WAT     H214412   7.028   2.271   2.751
 4724WAT      O14413   1.146   5.519   6.924
 4724WAT     H114414   1.246   5.523   6.922
 4724WAT     H214415   1.113   5.545   7.015
 4725WAT      O14416   4.425   3.529   8.984
 4725WAT     H114417   4.478   3.459   9.032
 4725WAT     H214418   4.445   3.619   9.024
 4726WAT      O14419   7.002   5.988   7.868
 4726WAT     H114420   6.978   6.084   7.880
 4726WAT     H214421   7.095   5.981   7.832
 4727WAT      O14422   8.868   9.426   7.146
 4727WAT     H114423   8.814   9.418   7.229
 4727WAT     H214424   8.965   9.432   7.169
 4728WAT      O14425   4.785   1.414   1.133
 4728WAT     H114426   4.716   1.416   1.206
 4728WAT     H214427   4.740   1.412   1.044
 4729WAT      O14428   6.573   5.639   6.647
 4729WAT     H114429   6.582   5.658   6.549
 4729WAT     H214430   6.511   5.705   6.688
 4730WAT      O14431   6.423   3.175   8.837
 4730WAT     H114432   6.520   3.159   8.853
 4730WAT     H214433   6.370   3.139   8.913
 4731WAT      O14434   9.538   6.554   6.216
 4731WAT     H114435   9.546   6.653   6.210
 4731WAT     H214436   9.442   6.529   6.223
 4732WAT      O14437   4.489   2.157   6.148
 4732WAT     H114438   4.394   2.128   6.156
 4732WAT     H214439   4.527   2.171   6.240
 4733WAT      O14440   2.350   4.636   9.163
 4733WAT     H114441   2.428   4.591   9.120
 4733WAT     H214442   2.378   4.673   9.252
 4734WAT      O14443   9.819   7.181   5.727
 4734WAT     H114444   9.782   7.133   5.807
 4734WAT     H214445   9.822   7.279   5.746
 4735WAT      O14446   4.017   4.861   1.904
 4735WAT     H114447   4.012   4.921   1.824
 4735WAT     H214448   4.078   4.902   1.972
 4736WAT      O14449   6.604   8.171   0.855
 4736WAT     H114450   6.576   8.124   0.938
 4736WAT     H214451   6.526   8.221   0.817
 4737WAT      O14452   6.185   3.102   5.252
 4737WAT     H114453   6.260   3.036   5.251
 4737WAT     H214454   6.222   3.195   5.240
 4738WAT      O14455   2.316   5.054   6.829
 4738WAT     H114456   2.398   5.008   6.865
 4738WAT     H214457   2.337   5.091   6.738
 4739WAT      O14458   1.129   3.929   8.616
 4739WAT     H114459   1.183   3.976   8.546
 4739WAT     H214460   1.164   3.836   8.628
 4740WAT      O14461   4.315   7.317   3.427
 4740WAT     H114462   4.300   7.225   3.463
 4740WAT     H214463   4.248   7.379   3.466
 4741WAT      O14464   1.692   1.568   8.625
 4741WAT     H114465   1.760   1.569   8.698
 4741WAT     H214466   1.685   1.660   8.585
 4742WAT      O14467   9.348   9.271   4.014
 4742WAT     H114468   9.415   9.198   4.022
 4742WAT     H214469   9.272   9.241   3.956
 4743WAT      O14470   0.078   8.074   7.139
 4743WAT     H114471   0.056   7.977   7.147
 4743WAT     H214472   0.173   8.085   7.110
 4744WAT      O14473   9.641   7.559   5.011
 4744WAT     H114474   9.727   7.538   4.964
 4744WAT     H214475   9.567   7.505   4.970
 4745WAT      O14476   1.896   8.104   7.677
 4745WAT     H114477   1.959   8.165   7.628
 4745WAT     H214478   1.873   8.145   7.765
 4746WAT      O14479   1.730   7.538   1.906
 4746WAT     H114480   1.689   7.454   1.871
 4746WAT     H214481   1.827   7.522   1.925
 4747WAT      O14482   8.026   7.265   6.529
 4747WAT     H114483   8.119   7.288   6.500
 4747WAT     H214484   8.021   7.267   6.629
 4748WAT      O14485   1.853   0.559   0.120
 4748WAT     H114486   1.822   0.473   0.079
 4748WAT     H214487   1.923   0.541   0.189
 4749WAT      O14488   0.007   3.443   0.250
 4749WAT     H114489   0.077   3.514   0.259
 4749WAT     H214490  -0.032   3.422   0.339
 4750WAT      O14491   2.224   3.018   1.189
 4750WAT     H114492   2.319   3.045   1.204
 4750WAT     H214493   2.212   2.988   1.094
 4751WAT      O14494   3.623   5.411   9.684
 4751WAT     H114495   3.598   5.462   9.766
 4751WAT     H214496   3.685   5.336   9.708
 4752WAT      O14497   0.820   7.665   9.139
 4752WAT     H114498   0.858   7.593   9.080
 4752WAT     H214499   0.880   7.745   9.136
 4753WAT      O14500   2.363   6.147   9.816
 4753WAT     H114501   2.271   6.188   9.820
 4753WAT     H214502   2.383   6.103   9.903
 4754WAT      O14503   5.340   0.635   5.945
 4754WAT     H114504   5.254   0.686   5.933
 4754WAT     H214505   5.409   0.695   5.986
 4755WAT      O14506   9.030   3.770   7.998
 4755WAT     H114507   9.103   3.783   7.931
 4755WAT     H214508   9.025   3.850   8.058
 4756WAT      O14509   7.966   4.556   7.262
 4756WAT     H114510   7.897   4.493   7.226
 4756WAT     H214511   8.045   4.558   7.202
 4757WAT      O14512   8.866   7.815   7.654
 4757WAT     H114513   8.813   7.742   7.696
 4757WAT     H214514   8.808   7.894   7.638
 4758WAT      O14515   3.128   7.988   0.876
 4758WAT     H114516   3.100   8.065   0.820
 4758WAT     H214517   3.051   7.925   0.889
 4759WAT      O14518   0.507   4.938   6.606
 4759WAT     H114519   0.432   4.878   6.634
 4759WAT     H214520   0.545   4.983   6.686
 4760WAT      O14521   4.427   3.916   6.767
 4760WAT     H114522   4.364   3.993   6.775
 4760WAT     H214523   4.459   3.909   6.672
 4761WAT      O14524   1.599   3.646   2.513
 4761WAT     H114525   1.574   3.736   2.478
 4761WAT     H214526   1.600   3.648   2.613
 4762WAT      O14527   1.167   9.093   7.690
 4762WAT     H114528   1.168   9.167   7.757
 4762WAT     H214529   1.074   9.078   7.657
 4763WAT      O14530   3.939   4.603   3.893
 4763WAT     H114531   3.986   4.618   3.806
 4763WAT     H214532   4.006   4.580   3.963
 4764WAT      O14533   0.355   8.018   1.216
 4764WAT     H114534   0.421   8.006   1.143
 4764WAT     H214535   0.400   8.058   1.296
 4765WAT      O14536   0.959   2.816   2.225
 4765WAT     H114537   0.999   2.834   2.315
 4765WAT     H214538   1.023   2.764   2.170
 4766WAT      O14539   1.549   1.573   4.855
 4766WAT     H114540   1.521   1.623   4.772
 4766WAT     H214541   1.486   1.595   4.929
 4767WAT      O14542   4.070   3.916   6.879
 4767WAT     H114543   4.114   3.848   6.938
 4767WAT     H214544   4.062   3.879   6.787
 4768WAT      O14545   4.807   0.027   3.998
 4768WAT     H114546   4.809  -0.067   3.963
 4768WAT     H214547   4.854   0.088   3.933
 4769WAT      O14548   0.387   2.736   1.457
 4769WAT     H114549   0.441   2.772   1.533
 4769WAT     H214550   0.365   2.811   1.394
 4770WAT      O14551   9.718   7.054   5.066
 4770WAT     H114552   9.768   7.019   4.987
 4770WAT     H214553   9.663   6.980   5.106
 4771WAT      O14554   7.118   7.239   4.744
 4771WAT     H114555   7.108   7.213   4.648
 4771WAT     H214556   7.196   7.192   4.784
 4772WAT      O14557   3.321   7.297   2.771
 4772WAT     H114558   3.336   7.389   2.734
 4772WAT     H214559   3.403   7.267   2.820
 4773WAT      O14560   2.994   1.425   1.211
 4773WAT     H114561   2.981   1.330   1.241
 4773WAT     H214562   2.935   1.443   1.132
 4774WAT      O14563   5.773   4.777   8.453
 4774WAT     H114564   5.725   4.860   8.422
 4774WAT     H214565   5.821   4.736   8.376
 4775WAT      O14566   3.960   7.261   2.221
 4775WAT     H114567   3.922   7.222   2.137
 4775WAT     H214568   3.973   7.189   2.289
 4776WAT      O14569   1.288   1.087   0.381
 4776WAT     H114570   1.370   1.138   0.354
 4776WAT     H214571   1.209   1.148   0.379
 4777WAT      O14572   4.974   8.733   5.473
 4777WAT     H114573   4.955   8.822   5.515
 4777WAT     H214574   4.911   8.718   5.397
 4778WAT      O14575   7.028   9.558   3.598
 4778WAT     H114576   7.030   9.486   3.667
 4778WAT     H214577   7.113   9.557   3.546
 4779WAT      O14578   7.849   1.313   7.515
 4779WAT     H114579   7.779   1.290   7.583
 4779WAT     H214580   7.877   1.408   7.527
 4780WAT      O14581   8.287   4.923   6.215
 4780WAT     H114582   8.356   4.923   6.288
 4780WAT     H214583   8.196   4.921   6.256
 4781WAT      O14584   7.763   9.523   5.270
 4781WAT     H114585   7.750   9.519   5.369
 4781WAT     H214586   7.743   9.433   5.230
 4782WAT      O14587   4.741   8.310   1.268
 4782WAT     H114588   4.697   8.397   1.246
 4782WAT     H214589   4.706   8.239   1.208
 4783WAT      O14590   4.337   9.116   3.337
 4783WAT     H114591   4.424   9.068   3.327
 4783WAT     H214592   4.272   9.082   3.269
 4784WAT      O14593   0.518   9.389   5.114
 4784WAT     H114594   0.525   9.347   5.205
 4784WAT     H214595   0.424   9.383   5.081
 4785WAT      O14596   3.726   4.672   8.848
 4785WAT     H114597   3.742   4.740   8.920
 4785WAT     H214598   3.645   4.618   8.871
 4786WAT      O14599   8.905   4.544   6.320
 4786WAT     H114600   8.946   4.458   6.290
 4786WAT     H214601   8.846   4.580   6.248
 4787WAT      O14602   9.398   0.683   3.813
 4787WAT     H114603   9.417   0.694   3.910
 4787WAT     H214604   9.414   0.770   3.765
 4788WAT      O14605   9.540   4.292   5.979
 4788WAT     H114606   9.575   4.318   5.889
 4788WAT     H214607   9.602   4.323   6.050
 4789WAT      O14608   4.497   7.844   1.108
 4789WAT     H114609   4.488   7.749   1.076
 4789WAT     H214610   4.504   7.905   1.029
 4790WAT      O14611   5.122   9.034   5.126
 4790WAT     H114612   5.103   9.132   5.119
 4790WAT     H214613   5.038   8.983   5.112
 4791WAT      O14614   4.565   1.546   9.025
 4791WAT     H114615   4.645   1.597   9.056
 4791WAT     H214616   4.516   1.510   9.104
 4792WAT      O14617   4.307   8.826   2.911
 4792WAT     H114618   4.406   8.839   2.901
 4792WAT     H214619   4.289   8.732   2.940
 4793WAT      O14620   0.770   0.677   6.207
 4793WAT     H114621   0.671   0.677   6.202
 4793WAT     H214622   0.808   0.639   6.123
 4794WAT      O14623   9.038   5.805   5.981
 4794WAT     H114624   9.080   5.814   6.072
 4794WAT     H214625   9.043   5.893   5.934
 4795WAT      O14626   8.328   6.052   0.230
 4795WAT     H114627   8.309   6.050   0.328
 4795WAT     H214628   8.421   6.022   0.213
 4796WAT      O14629   4.805   0.249   3.341
 4796WAT     H114630   4.805   0.348   3.325
 4796WAT     H214631   4.711   0.217   3.353
 4797WAT      O14632   8.996   1.461   0.542
 4797WAT     H114633   9.005   1.544   0.487
 4797WAT     H214634   9.016   1.381   0.485
 4798WAT      O14635   3.292   6.153   0.773
 4798WAT     H114636   3.334   6.147   0.683
 4798WAT     H214637   3.277   6.061   0.810
 4799WAT      O14638   7.218   2.497   7.605
 4799WAT     H114639   7.200   2.468   7.699
 4799WAT     H214640   7.158   2.574   7.582
 4800WAT      O14641   4.421   1.404   6.032
 4800WAT     H114642   4.455   1.351   6.110
 4800WAT     H214643   4.358   1.475   6.065
 4801WAT      O14644   4.536   0.651   7.800
 4801WAT     H114645   4.561   0.643   7.704
 4801WAT     H214646   4.442   0.617   7.812
 4802WAT      O14647   0.048   4.643   6.345
 4802WAT     H114648   0.092   4.683   6.426
 4802WAT     H214649   0.116   4.626   6.275
 4803WAT      O14650   7.213   8.966   4.163
 4803WAT     H114651   7.209   8.911   4.080
 4803WAT     H214652   7.308   8.994   4.180
 4804WAT      O14653   9.094   9.802   4.767
 4804WAT     H114654   9.169   9.802   4.833
 4804WAT     H214655   9.050   9.891   4.766
 4805WAT      O14656   7.378   5.417   2.672
 4805WAT     H114657   7.357   5.339   2.730
 4805WAT     H214658   7.460   5.398   2.618
 4806WAT      O14659   6.773   4.432   1.591
 4806WAT     H114660   6.739   4.346   1.552
 4806WAT     H214661   6.860   4.415   1.638
 4807WAT      O14662   2.949   9.457   9.862
 4807WAT     H114663   2.982   9.383   9.804
 4807WAT     H214664   2.981   9.443   9.956
 4808WAT      O14665   0.106   4.470   9.264
 4808WAT     H114666   0.048   4.463   9.183
 4808WAT     H214667   0.194   4.512   9.239
 4809WAT      O14668   8.995   4.979   5.229
 4809WAT     H114669   9.048   4.983   5.144
 4809WAT     H214670   8.902   5.012   5.213
 4810WAT      O14671   7.474   7.243   1.829
 4810WAT     H114672   7.450   7.231   1.732
 4810WAT     H214673   7.548   7.310   1.836
 4811WAT      O14674   2.433   5.450   7.114
 4811WAT     H114675   2.377   5.455   7.031
 4811WAT     H214676   2.391   5.506   7.186
 4812WAT      O14677   6.729   8.389   1.009
 4812WAT     H114678   6.715   8.313   0.944
 4812WAT     H214679   6.701   8.475   0.967
 4813WAT      O14680   1.468   6.301   6.489
 4813WAT     H114681   1.381   6.272   6.529
 4813WAT     H214682   1.519   6.357   6.555
 4814WAT      O14683   4.788   4.485   0.801
 4814WAT     H114684   4.785   4.395   0.758
 4814WAT     H214685   4.765   4.476   0.898
 4815WAT      O14686   4.907   1.682   7.752
 4815WAT     H114687   4.813   1.712   7.766
 4815WAT     H214688   4.914   1.627   7.670
 4816WAT      O14689   8.802   0.055   1.669
 4816WAT     H114690   8.715   0.040   1.716
 4816WAT     H214691   8.807  -0.005   1.589
 4817WAT      O14692   8.922   0.345   8.310
 4817WAT     H114693   8.882   0.379   8.225
 4817WAT     H214694   8.849   0.321   8.374
 4818WAT      O14695   8.094   7.931   1.985
 4818WAT     H114696   8.042   7.997   2.039
 4818WAT     H214697   8.184   7.970   1.963
 4819WAT      O14698   4.119   9.530   5.238
 4819WAT     H114699   4.207   9.562   5.273
 4819WAT     H214700   4.065   9.494   5.314
 4820WAT      O14701   6.499   6.981   8.892
 4820WAT     H114702   6.569   6.978   8.964
 4820WAT     H214703   6.414   6.940   8.926
 4821WAT      O14704   7.726   2.026   5.304
 4821WAT     H114705   7.780   1.981   5.375
 4821WAT     H214706   7.778   2.101   5.264
 4822WAT      O14707   8.276   7.720   0.391
 4822WAT     H114708   8.375   7.731   0.385
 4822WAT     H214709   8.241   7.764   0.473
 4823WAT      O14710   0.880   4.995   5.481
 4823WAT     H114711   0.960   5.038   5.524
 4823WAT     H214712   0.864   5.037   5.392
 4824WAT      O14713   1.740   3.957   2.279
 4824WAT     H114714   1.748   3.863   2.245
 4824WAT     H214715   1.690   4.012   2.213
 4825WAT      O14716   2.285   9.417   3.497
 4825WAT     H114717   2.191   9.429   3.466
 4825WAT     H214718   2.347   9.470   3.439
 4826WAT      O14719   1.842   4.074   0.049
 4826WAT     H114720   1.829   4.173   0.044
 4826WAT     H214721   1.915   4.053   0.114
 4827WAT      O14722   3.670   9.296   6.427
 4827WAT     H114723   3.705   9.218   6.480
 4827WAT     H214724   3.747   9.352   6.397
 4828WAT      O14725   1.451   5.902   4.292
 4828WAT     H114726   1.404   5.883   4.378
 4828WAT     H214727   1.541   5.857   4.293
 4829WAT      O14728   3.620   2.715   6.805
 4829WAT     H114729   3.567   2.788   6.847
 4829WAT     H214730   3.689   2.682   6.869
 4830WAT      O14731   3.268   7.173   9.889
 4830WAT     H114732   3.294   7.244   9.954
 4830WAT     H214733   3.168   7.168   9.883
 4831WAT      O14734   6.538   9.599   0.587
 4831WAT     H114735   6.597   9.543   0.646
 4831WAT     H214736   6.547   9.695   0.612
 4832WAT      O14737   7.988   9.443   3.559
 4832WAT     H114738   8.055   9.471   3.491
 4832WAT     H214739   7.946   9.524   3.600
 4833WAT      O14740   4.958   8.690   7.334
 4833WAT     H114741   4.913   8.604   7.357
 4833WAT     H214742   5.048   8.693   7.377
 4834WAT      O14743   8.396   9.125   7.070
 4834WAT     H114744   8.301   9.146   7.046
 4834WAT     H214745   8.426   9.187   7.143
 4835WAT      O14746   7.603   6.895   3.781
 4835WAT     H114747   7.537   6.912   3.707
 4835WAT     H214748   7.558   6.845   3.855
 4836WAT      O14749   9.002   0.590   1.071
 4836WAT     H114750   9.101   0.604   1.077
 4836WAT     H214751   8.955   0.671   1.104
 4837WAT      O14752   4.114   3.800   8.770
 4837WAT     H114753   4.126   3.713   8.720
 4837WAT     H214754   4.166   3.872   8.724
 4838WAT      O14755   5.182   7.919   8.014
 4838WAT     H114756   5.213   7.825   8.028
 4838WAT     H214757   5.088   7.928   8.046
 4839WAT      O14758   2.396   6.246   7.544
 4839WAT     H114759   2.392   6.255   7.643
 4839WAT     H214760   2.486   6.273   7.511
 4840WAT      O14761   0.724   9.401   2.981
 4840WAT     H114762   0.650   9.466   2.995
 4840WAT     H214763   0.781   9.396   3.063
 4841WAT      O14764   7.768   3.867   4.752
 4841WAT     H114765   7.793   3.900   4.661
 4841WAT     H214766   7.851   3.849   4.804
 4842WAT      O14767   0.018   0.020   9.195
 4842WAT     H114768  -0.062   0.068   9.232
 4842WAT     H214769   0.000  -0.079   9.196
 4843WAT      O14770   1.975   6.059   7.349
 4843WAT     H114771   2.039   6.102   7.286
 4843WAT     H214772   2.025   6.003   7.415
 4844WAT      O14773   7.876   1.701   9.161
 4844WAT     H114774   7.828   1.766   9.220
 4844WAT     H214775   7.924   1.751   9.089
 4845WAT      O14776   5.229   1.495   2.437
 4845WAT     H114777   5.133   1.500   2.464
 4845WAT     H214778   5.287   1.507   2.518
 4846WAT      O14779   1.335   0.094   6.001
 4846WAT     H114780   1.277   0.053   5.931
 4846WAT     H214781   1.347   0.030   6.077
 4847WAT      O14782   2.639   1.766   7.209
 4847WAT     H114783   2.541   1.764   7.191
 4847WAT     H214784   2.685   1.816   7.135
 4848WAT      O14785   7.845   5.679   8.376
 4848WAT     H114786   7.835   5.657   8.279
 4848WAT     H214787   7.937   5.713   8.393
 4849WAT      O14788   1.190   2.700   5.343
 4849WAT     H114789   1.204   2.799   5.342
 4849WAT     H214790   1.096   2.680   5.370
 4850WAT      O14791   6.260   8.654   5.369
 4850WAT     H114792   6.269   8.688   5.463
 4850WAT     H214793   6.165   8.660   5.340
 4851WAT      O14794   4.336   3.778   1.619
 4851WAT     H114795   4.293   3.818   1.700
 4851WAT     H214796   4.401   3.843   1.581
 4852WAT      O14797   4.358   1.706   9.222
 4852WAT     H114798   4.411   1.692   9.306
 4852WAT     H214799   4.350   1.803   9.203
 4853WAT      O14800   6.672   7.286   4.250
 4853WAT     H114801   6.667   7.335   4.163
 4853WAT     H214802   6.704   7.348   4.321
 4854WAT      O14803   3.891   0.609   1.991
 4854WAT     H114804   3.986   0.604   1.961
 4854WAT     H214805   3.884   0.672   2.069
 4855WAT      O14806   0.593   4.340   2.504
 4855WAT     H114807   0.664   4.293   2.452
 4855WAT     H214808   0.530   4.386   2.440
 4856WAT      O14809   9.317   8.054   2.464
 4856WAT     H114810   9.266   8.140   2.471
 4856WAT     H214811   9.265   7.989   2.408
 4857WAT      O14812   4.808   4.529   7.635
 4857WAT     H114813   4.809   4.442   7.684
 4857WAT     H214814   4.760   4.598   7.691
 4858WAT      O14815   7.421   5.031   5.921
 4858WAT     H114816   7.491   5.036   5.992
 4858WAT     H214817   7.364   5.113   5.925
 4859WAT      O14818   6.570   6.699   6.099
 4859WAT     H114819   6.630   6.751   6.162
 4859WAT     H214820   6.475   6.710   6.128
 4860WAT      O14821   0.477   6.521   1.412
 4860WAT     H114822   0.387   6.498   1.375
 4860WAT     H214823   0.471   6.527   1.512
 4861WAT      O14824   9.191   7.964   4.746
 4861WAT     H114825   9.151   7.969   4.654
 4861WAT     H214826   9.122   7.989   4.814
 4862WAT      O14827   4.077   8.169   3.275
 4862WAT     H114828   4.054   8.211   3.363
 4862WAT     H214829   4.137   8.230   3.223
 4863WAT      O14830   8.373   3.942   8.005
 4863WAT     H114831   8.287   3.945   8.057
 4863WAT     H214832   8.422   3.859   8.028
 4864WAT      O14833   2.836   5.185   5.487
 4864WAT     H114834   2.813   5.272   5.531
 4864WAT     H214835   2.841   5.113   5.556
 4865WAT      O14836   1.980   7.074   9.425
 4865WAT     H114837   1.963   7.086   9.328
 4865WAT     H214838   1.954   6.981   9.452
 4866WAT      O14839   8.097   6.788   8.287
 4866WAT     H114840   8.196   6.792   8.274
 4866WAT     H214841   8.073   6.827   8.376
 4867WAT      O14842   8.984   9.340   2.002
 4867WAT     H114843   8.956   9.428   2.040
 4867WAT     H214844   8.904   9.293   1.965
 4868WAT      O14845   5.648   7.409   3.700
 4868WAT     H114846   5.747   7.394   3.694
 4868WAT     H214847   5.630   7.500   3.736
 4869WAT      O14848   2.929   4.840   0.914
 4869WAT     H114849   2.959   4.749   0.884
 4869WAT     H214850   2.859   4.830   0.985
 4870WAT      O14851   4.542   3.448   7.820
 4870WAT     H114852   4.504   3.536   7.794
 4870WAT     H214853   4.478   3.375   7.796
 4871WAT      O14854   5.908   7.330   4.448
 4871WAT     H114855   5.927   7.322   4.546
 4871WAT     H214856   5.957   7.258   4.399
 4872WAT      O14857   4.897   3.564   0.675
 4872WAT     H114858   4.824   3.605   0.730
 4872WAT     H214859   4.979   3.552   0.732
 4873WAT      O14860   1.002   3.950   6.390
 4873WAT     H114861   0.957   4.023   6.441
 4873WAT     H214862   1.096   3.940   6.422
 4874WAT      O14863   2.995   8.622   3.779
 4874WAT     H114864   2.957   8.551   3.839
 4874WAT     H214865   2.969   8.712   3.813
 4875WAT      O14866   0.505   2.288   2.004
 4875WAT     H114867   0.430   2.353   1.991
 4875WAT     H214868   0.518   2.270   2.101
 4876WAT      O14869   6.352   0.269   5.770
 4876WAT     H114870   6.303   0.184   5.786
 4876WAT     H214871   6.433   0.250   5.714
 4877WAT      O14872   6.424   5.983   8.536
 4877WAT     H114873   6.410   6.050   8.609
 4877WAT     H214874   6.364   6.004   8.460
 4878WAT      O14875   1.473   2.953   8.684
 4878WAT     H114876   1.526   2.873   8.657
 4878WAT     H214877   1.475   3.021   8.611
 4879WAT      O14878   0.027   6.791   9.469
 4879WAT     H114879   0.024   6.885   9.436
 4879WAT     H214880  -0.059   6.771   9.517
 4880WAT      O14881   1.950   7.826   9.160
 4880WAT     H114882   1.896   7.906   9.133
 4880WAT     H214883   2.034   7.822   9.106
 4881WAT      O14884   1.173   4.639   7.376
 4881WAT     H114885   1.153   4.640   7.474
 4881WAT     H214886   1.092   4.610   7.325
 4882WAT      O14887   4.490   1.728   4.935
 4882WAT     H114888   4.506   1.786   4.855
 4882WAT     H214889   4.399   1.686   4.928
 4883WAT      O14890   9.115   0.054   7.701
 4883WAT     H114891   9.081  -0.027   7.748
 4883WAT     H214892   9.106   0.041   7.602
 4884WAT      O14893   9.198   6.457   1.557
 4884WAT     H114894   9.108   6.467   1.516
 4884WAT     H214895   9.268   6.489   1.492
 4885WAT      O14896   0.251   3.459   6.646
 4885WAT     H114897   0.337   3.473   6.694
 4885WAT     H214898   0.191   3.537   6.662
 4886WAT      O14899   5.906   9.198   7.773
 4886WAT     H114900   5.863   9.238   7.854
 4886WAT     H214901   5.870   9.243   7.691
 4887WAT      O14902   9.411   7.699   8.352
 4887WAT     H114903   9.438   7.696   8.256
 4887WAT     H214904   9.369   7.788   8.372
 4888WAT      O14905   8.463   4.736   1.079
 4888WAT     H114906   8.474   4.650   1.130
 4888WAT     H214907   8.517   4.808   1.122
 4889WAT      O14908   3.971   7.388   5.292
 4889WAT     H114909   3.964   7.467   5.353
 4889WAT     H214910   4.009   7.417   5.204
 4890WAT      O14911   2.757   8.520   5.248
 4890WAT     H114912   2.759   8.445   5.313
 4890WAT     H214913   2.850   8.552   5.231
 4891WAT      O14914   2.373   2.530   1.922
 4891WAT     H114915   2.322   2.524   1.836
 4891WAT     H214916   2.331   2.468   1.990
 4892WAT      O14917   1.541   9.425   3.455
 4892WAT     H114918   1.575   9.490   3.522
 4892WAT     H214919   1.596   9.341   3.458
 4893WAT      O14920   3.276   2.064   2.481
 4893WAT     H114921   3.240   1.989   2.426
 4893WAT     H214922   3.222   2.147   2.465
 4894WAT      O14923   5.695   3.023   8.835
 4894WAT     H114924   5.693   3.115   8.797
 4894WAT     H214925   5.733   3.026   8.927
 4895WAT      O14926   2.180   1.734   5.123
 4895WAT     H114927   2.193   1.743   5.222
 4895WAT     H214928   2.132   1.649   5.103
 4896WAT      O14929   4.478   4.243   0.158
 4896WAT     H114930   4.526   4.177   0.101
 4896WAT     H214931   4.521   4.246   0.249
 4897WAT      O14932   3.923   9.747   2.975
 4897WAT     H114933   3.930   9.682   2.899
 4897WAT     H214934   3.945   9.839   2.943
 4898WAT      O14935   9.568   8.136   7.781
 4898WAT     H114936   9.493   8.173   7.726
 4898WAT     H214937   9.631   8.087   7.721
 4899WAT      O14938   0.571   9.161   6.141
 4899WAT     H114939   0.489   9.186   6.193
 4899WAT     H214940   0.639   9.122   6.202
 4900WAT      O14941   6.986   3.295   4.376
 4900WAT     H114942   6.934   3.380   4.375
 4900WAT     H214943   6.938   3.225   4.322
 4901WAT      O14944   6.846   5.923   2.038
 4901WAT     H114945   6.926   5.864   2.027
 4901WAT     H214946   6.806   5.942   1.948
 4902WAT      O14947   5.166   4.749   4.029
 4902WAT     H114948   5.266   4.741   4.031
 4902WAT     H214949   5.140   4.844   4.015
 4903WAT      O14950   3.990   3.951   8.448
 4903WAT     H114951   4.017   4.038   8.407
 4903WAT     H214952   4.047   3.877   8.412
 4904WAT      O14953   0.979   2.727   3.769
 4904WAT     H114954   0.886   2.762   3.759
 4904WAT     H214955   1.033   2.752   3.688
 4905WAT      O14956   8.317   4.793   3.896
 4905WAT     H114957   8.284   4.853   3.824
 4905WAT     H214958   8.257   4.713   3.903
 4906WAT      O14959   1.784   2.835   3.078
 4906WAT     H114960   1.733   2.803   2.999
 4906WAT     H214961   1.783   2.935   3.080
 4907WAT      O14962   5.096   3.041   1.845
 4907WAT     H114963   5.078   3.139   1.838
 4907WAT     H214964   5.194   3.024   1.844
 4908WAT      O14965   8.132   7.672   7.294
 4908WAT     H114966   8.042   7.681   7.252
 4908WAT     H214967   8.162   7.762   7.326
 4909WAT      O14968   1.918   2.757   5.643
 4909WAT     H114969   1.877   2.709   5.721
 4909WAT     H214970   1.867   2.734   5.560
 4910WAT      O14971   7.994   2.289   9.345
 4910WAT     H114972   7.917   2.322   9.398
 4910WAT     H214973   8.080   2.315   9.390
 4911WAT      O14974   6.680   5.799   2.236
 4911WAT     H114975   6.583   5.822   2.246
 4911WAT     H214976   6.719   5.848   2.158
 4912WAT      O14977   3.328   3.911   7.245
 4912WAT     H114978   3.337   3.835   7.181
 4912WAT     H214979   3.284   3.988   7.200
 4913WAT      O14980   4.275   6.226   6.137
 4913WAT     H114981   4.220   6.143   6.148
 4913WAT     H214982   4.262   6.262   6.044
 4914WAT      O14983   5.660   0.610   4.429
 4914WAT     H114984   5.592   0.575   4.364
 4914WAT     H214985   5.751   0.604   4.387
 4915WAT      O14986   2.508   8.231   2.916
 4915WAT     H114987   2.543   8.324   2.906
 4915WAT     H214988   2.412   8.228   2.887
 4916WAT      O14989   6.814   2.365   9.144
 4916WAT     H114990   6.885   2.296   9.158
 4916WAT     H214991   6.776   2.355   9.052
 4917WAT      O14992   0.532   3.360   6.328
 4917WAT     H114993   0.434   3.377   6.326
 4917WAT     H214994   0.551   3.268   6.294
 4918WAT      O14995   0.538   6.224   3.735
 4918WAT     H114996   0.620   6.178   3.700
 4918WAT     H214997   0.535   6.317   3.700
 4919WAT      O14998   2.173   2.851   1.384
 4919WAT     H114999   2.078   2.878   1.399
 4919WAT     H215000   2.212   2.906   1.309
 4920WAT      O15001   9.364   2.525   3.805
 4920WAT     H115002   9.375   2.512   3.904
 4920WAT     H215003   9.393   2.617   3.779
 4921WAT      O15004   5.685   1.227   2.498
 4921WAT     H115005   5.710   1.300   2.562
 4921WAT     H215006   5.598   1.186   2.527
 4922WAT      O15007   1.612   0.770   6.546
 4922WAT     H115008   1.661   0.857   6.534
 4922WAT     H215009   1.679   0.697   6.562
 4923WAT      O15010   2.653   6.122   7.779
 4923WAT     H115011   2.703   6.129   7.866
 4923WAT     H215012   2.712   6.150   7.704
 4924WAT      O15013   0.874   9.314   0.529
 4924WAT     H115014   0.865   9.221   0.493
 4924WAT     H215015   0.784   9.348   0.555
 4925WAT      O15016   2.533   2.894   5.672
 4925WAT     H115017   2.477   2.812   5.688
 4925WAT     H215018   2.551   2.940   5.759
 4926WAT      O15019   5.871   4.055   8.179
 4926WAT     H115020   5.916   3.977   8.136
 4926WAT     H215021   5.793   4.023   8.233
 4927WAT      O15022   4.735   5.502   1.769
 4927WAT     H115023   4.709   5.429   1.706
 4927WAT     H215024   4.799   5.466   1.838
 4928WAT      O15025   2.297   3.414   3.636
 4928WAT     H115026   2.252   3.494   3.598
 4928WAT     H215027   2.230   3.358   3.685
 4929WAT      O15028   6.631   3.682   8.138
 4929WAT     H115029   6.557   3.702   8.073
 4929WAT     H215030   6.592   3.673   8.230
 4930WAT      O15031   0.875   9.044   2.974
 4930WAT     H115032   0.788   9.068   2.931
 4930WAT     H215033   0.933   9.126   2.978
 4931WAT      O15034   2.338   8.268   0.807
 4931WAT     H115035   2.288   8.326   0.743
 4931WAT     H215036   2.273   8.217   0.864
 4932WAT      O15037   9.129   8.457   3.466
 4932WAT     H115038   9.128   8.358   3.454
 4932WAT     H215039   9.190   8.498   3.397
 4933WAT      O15040   7.179   4.780   7.231
 4933WAT     H115041   7.202   4.876   7.248
 4933WAT     H215042   7.093   4.758   7.278
 4934WAT      O15043   7.202   8.670   3.546
 4934WAT     H115044   7.265   8.667   3.468
 4934WAT     H215045   7.178   8.765   3.566
 4935WAT      O15046   5.474   5.597   0.083
 4935WAT     H115047   5.480   5.687   0.041
 4935WAT     H215048   5.393   5.549   0.048
 4936WAT      O15049   5.275   8.974   1.405
 4936WAT     H115050   5.183   9.010   1.412
 4936WAT     H215051   5.285   8.896   1.467
 4937WAT      O15052   1.345   7.906   3.233
 4937WAT     H115053   1.254   7.890   3.196
 4937WAT     H215054   1.369   8.003   3.223
 4938WAT      O15055   0.920   8.178   5.867
 4938WAT     H115056   0.887   8.243   5.800
 4938WAT     H215057   0.864   8.184   5.950
 4939WAT      O15058   6.950   1.386   6.887
 4939WAT     H115059   6.875   1.450   6.903
 4939WAT     H215060   6.913   1.295   6.869
 4940WAT      O15061   6.017   0.527   3.207
 4940WAT     H115062   5.953   0.582   3.154
 4940WAT     H215063   6.099   0.511   3.152
 4941WAT      O15064   9.217   8.855   9.343
 4941WAT     H115065   9.126   8.862   9.382
 4941WAT     H215066   9.260   8.945   9.341
 4942WAT      O15067   0.179   4.575   1.692
 4942WAT     H115068   0.191   4.480   1.718
 4942WAT     H215069   0.261   4.627   1.719
 4943WAT      O15070   9.679   0.730   7.085
 4943WAT     H115071   9.739   0.653   7.066
 4943WAT     H215072   9.734   0.810   7.111
 4944WAT      O15073   9.363   0.124   9.380
 4944WAT     H115074   9.333   0.068   9.302
 4944WAT     H215075   9.364   0.220   9.354
 4945WAT      O15076   1.213   0.635   2.569
 4945WAT     H115077   1.268   0.714   2.598
 4945WAT     H215078   1.134   0.667   2.517
 4946WAT      O15079   5.948   5.187   7.456
 4946WAT     H115080   5.986   5.104   7.416
 4946WAT     H215081   6.019   5.235   7.507
 4947WAT      O15082   6.698   9.284   5.565
 4947WAT     H115083   6.773   9.286   5.499
 4947WAT     H215084   6.657   9.193   5.565
 4948WAT      O15085   4.526   0.054   6.999
 4948WAT     H115086   4.507   0.118   7.074
 4948WAT     H215087   4.553   0.106   6.918
 4949WAT      O15088   5.129   7.037   8.012
 4949WAT     H115089   5.194   6.962   8.003
 4949WAT     H215090   5.089   7.036   8.103
 4950WAT      O15091   6.049   2.812   2.501
 4950WAT     H115092   5.968   2.825   2.443
 4950WAT     H215093   6.054   2.886   2.568
 4951WAT      O15094   4.507   0.718   5.349
 4951WAT     H115095   4.417   0.680   5.368
 4951WAT     H215096   4.508   0.815   5.373
 4952WAT      O15097   3.758   8.700   4.351
 4952WAT     H115098   3.732   8.660   4.439
 4952WAT     H215099   3.847   8.745   4.361
 4953WAT      O15100   5.188   7.323   4.898
 4953WAT     H115101   5.193   7.227   4.924
 4953WAT     H215102   5.268   7.347   4.843
 4954WAT      O15103   0.402   1.485   1.615
 4954WAT     H115104   0.466   1.465   1.540
 4954WAT     H215105   0.438   1.448   1.700
 4955WAT      O15106   7.221   7.805   2.802
 4955WAT     H115107   7.207   7.732   2.869
 4955WAT     H215108   7.222   7.767   2.710
 4956WAT      O15109   6.849   5.002   5.373
 4956WAT     H115110   6.764   4.957   5.400
 4956WAT     H215111   6.857   5.090   5.419
 4957WAT      O15112   4.752   7.438   1.131
 4957WAT     H115113   4.750   7.491   1.215
 4957WAT     H215114   4.665   7.392   1.118
 4958WAT      O15115   4.552   7.841   0.648
 4958WAT     H115116   4.452   7.844   0.643
 4958WAT     H215117   4.590   7.866   0.558
 4959WAT      O15118   9.594   4.475   6.884
 4959WAT     H115119   9.630   4.493   6.793
 4959WAT     H215120   9.516   4.535   6.901
 4960WAT      O15121   7.998   0.396   2.507
 4960WAT     H115122   7.940   0.354   2.577
 4960WAT     H215123   8.094   0.373   2.525
 4961WAT      O15124   4.134   8.581   7.644
 4961WAT     H115125   4.100   8.524   7.569
 4961WAT     H215126   4.059   8.605   7.705
 4962WAT      O15127   5.674   0.967   8.748
 4962WAT     H115128   5.715   1.002   8.832
 4962WAT     H215129   5.581   0.936   8.767
 4963WAT      O15130   4.965   0.742   6.721
 4963WAT     H115131   4.879   0.750   6.770
 4963WAT     H215132   4.948   0.707   6.629
 4964WAT      O15133   2.789   0.107   4.846
 4964WAT     H115134   2.734   0.119   4.929
 4964WAT     H215135   2.886   0.102   4.870
 4965WAT      O15136   7.141   5.167   3.821
 4965WAT     H115137   7.196   5.222   3.757
 4965WAT     H215138   7.138   5.072   3.789
 4966WAT      O15139   2.837   2.087   4.171
 4966WAT     H115140   2.936   2.098   4.177
 4966WAT     H215141   2.815   1.989   4.164
 4967WAT      O15142   5.161   4.369   9.811
 4967WAT     H115143   5.165   4.450   9.754
 4967WAT     H215144   5.191   4.289   9.758
 4968WAT      O15145   3.990   9.593   8.387
 4968WAT     H115146   3.912   9.539   8.420
 4968WAT     H215147   3.974   9.620   8.292
 4969WAT      O15148   8.835   4.470   9.482
 4969WAT     H115149   8.909   4.420   9.437
 4969WAT     H215150   8.763   4.406   9.508
 4970WAT      O15151   7.670   5.534   7.201
 4970WAT     H115152   7.683   5.557   7.297
 4970WAT     H215153   7.704   5.442   7.184
 4971WAT      O15154   0.355   5.969   0.353
 4971WAT     H115155   0.357   6.027   0.434
 4971WAT     H215156   0.393   5.879   0.375
 4972WAT      O15157   0.107   1.592   1.170
 4972WAT     H115158   0.139   1.547   1.253
 4972WAT     H215159   0.086   1.524   1.100
 4973WAT      O15160   0.400   3.310   0.485
 4973WAT     H115161   0.305   3.340   0.495
 4973WAT     H215162   0.461   3.387   0.502
 4974WAT      O15163   7.092   4.314   2.124
 4974WAT     H115164   7.060   4.401   2.088
 4974WAT     H215165   7.178   4.288   2.078
 4975WAT      O15166   2.887   2.231   1.458
 4975WAT     H115167   2.951   2.309   1.450
 4975WAT     H215168   2.880   2.204   1.553
 4976WAT      O15169   3.978   5.453   5.655
 4976WAT     H115170   4.020   5.441   5.744
 4976WAT     H215171   3.879   5.438   5.662
 4977WAT      O15172   6.801   4.615   4.990
 4977WAT     H115173   6.776   4.653   4.900
 4977WAT     H215174   6.784   4.684   5.060
 4978WAT      O15175   4.327   1.548   7.236
 4978WAT     H115176   4.380   1.604   7.301
 4978WAT     H215177   4.327   1.453   7.267
 4979WAT      O15178   6.273   2.286   5.705
 4979WAT     H115179   6.190   2.333   5.674
 4979WAT     H215180   6.287   2.203   5.650
 4980WAT      O15181   3.612   8.324   8.559
 4980WAT     H115182   3.591   8.376   8.477
 4980WAT     H215183   3.553   8.355   8.634
 4981WAT      O15184   5.902   7.194   7.449
 4981WAT     H115185   5.894   7.274   7.509
 4981WAT     H215186   5.862   7.115   7.493
 4982WAT      O15187   9.503   2.807   8.360
 4982WAT     H115188   9.414   2.771   8.390
 4982WAT     H215189   9.525   2.889   8.413
 4983WAT      O15190   7.709   4.209   2.963
 4983WAT     H115191   7.781   4.259   2.914
 4983WAT     H215192   7.634   4.189   2.900
 4984WAT      O15193   6.287   1.560   5.182
 4984WAT     H115194   6.189   1.569   5.168
 4984WAT     H215195   6.307   1.549   5.279
 4985WAT      O15196   8.854   8.159   5.124
 4985WAT     H115197   8.831   8.232   5.060
 4985WAT     H215198   8.804   8.173   5.210
 4986WAT      O15199   7.307   2.598   4.466
 4986WAT     H115200   7.383   2.582   4.530
 4986WAT     H215201   7.342   2.645   4.385
 4987WAT      O15202   6.439   5.763   4.177
 4987WAT     H115203   6.403   5.833   4.239
 4987WAT     H215204   6.366   5.734   4.115
 4988WAT      O15205   6.312   1.914   0.836
 4988WAT     H115206   6.272   1.955   0.755
 4988WAT     H215207   6.239   1.878   0.895
 4989WAT      O15208   5.247   0.338   4.126
 4989WAT     H115209   5.271   0.360   4.032
 4989WAT     H215210   5.298   0.397   4.188
 4990WAT      O15211   4.125   9.209   6.697
 4990WAT     H115212   4.060   9.280   6.723
 4990WAT     H215213   4.187   9.191   6.773
 4991WAT      O15214   6.642   0.850   6.073
 4991WAT     H115215   6.706   0.888   6.006
 4991WAT     H215216   6.624   0.754   6.052
 4992WAT      O15217   1.270   0.256   2.958
 4992WAT     H115218   1.349   0.248   3.019
 4992WAT     H215219   1.302   0.278   2.866
 4993WAT      O15220   6.227   2.690   6.543
 4993WAT     H115221   6.205   2.770   6.487
 4993WAT     H215222   6.325   2.689   6.562
 4994WAT      O15223   0.648   8.176   4.130
 4994WAT     H115224   0.612   8.252   4.184
 4994WAT     H215225   0.748   8.174   4.138
 4995WAT      O15226   0.884   1.300   7.557
 4995WAT     H115227   0.962   1.322   7.498
 4995WAT     H215228   0.829   1.382   7.572
 4996WAT      O15229   0.552   9.398   8.187
 4996WAT     H115230   0.502   9.417   8.103
 4996WAT     H215231   0.601   9.312   8.178
 4997WAT      O15232   7.349   0.582   7.083
 4997WAT     H115233   7.420   0.526   7.040
 4997WAT     H215234   7.368   0.679   7.066
 4998WAT      O15235   0.594   0.654   2.609
 4998WAT     H115236   0.674   0.660   2.669
 4998WAT     H215237   0.611   0.586   2.538
 4999WAT      O15238   0.405   1.920   7.666
 4999WAT     H115239   0.384   1.866   7.747
 4999WAT     H215240   0.378   2.015   7.681
 5000WAT      O15241   1.747   4.763   3.063
 5000WAT     H115242   1.696   4.848   3.047
 5000WAT     H215243   1.713   4.692   3.002
 5001WAT      O15244   5.823   2.884   5.000
 5001WAT     H115245   5.885   2.899   5.077
 5001WAT     H215246   5.748   2.951   5.003
 5002WAT      O15247   6.143   6.142   1.753
 5002WAT     H115248   6.080   6.157   1.829
 5002WAT     H215249   6.186   6.052   1.764
 5003WAT      O15250   3.611   1.951   1.235
 5003WAT     H115251   3.626   2.003   1.151
 5003WAT     H215252   3.561   1.867   1.214
 5004WAT      O15253   0.785   2.529   6.405
 5004WAT     H115254   0.693   2.538   6.443
 5004WAT     H215255   0.852   2.550   6.476
 5005WAT      O15256   6.718   3.020   9.783
 5005WAT     H115257   6.740   2.964   9.862
 5005WAT     H215258   6.731   3.117   9.806
 5006WAT      O15259   2.071   1.609   0.792
 5006WAT     H115260   2.147   1.663   0.755
 5006WAT     H215261   1.989   1.666   0.795
 5007WAT      O15262   3.885   1.075   8.101
 5007WAT     H115263   3.830   1.105   8.179
 5007WAT     H215264   3.920   1.156   8.053
 5008WAT      O15265   7.790   6.760   5.673
 5008WAT     H115266   7.847   6.800   5.602
 5008WAT     H215267   7.695   6.789   5.660
 5009WAT      O15268   1.915   9.349   3.107
 5009WAT     H115269   2.013   9.334   3.091
 5009WAT     H215270   1.894   9.329   3.202
 5010WAT      O15271   2.799   1.107   4.588
 5010WAT     H115272   2.764   1.046   4.517
 5010WAT     H215273   2.899   1.106   4.587
 5011WAT      O15274   9.625   1.565   1.822
 5011WAT     H115275   9.630   1.613   1.735
 5011WAT     H215276   9.545   1.506   1.822
 5012WAT      O15277   7.016   2.858   6.069
 5012WAT     H115278   6.922   2.834   6.090
 5012WAT     H215279   7.027   2.867   5.970
 5013WAT      O15280   0.724   2.945   2.337
 5013WAT     H115281   0.705   2.866   2.395
 5013WAT     H215282   0.794   2.921   2.270
 5014WAT      O15283   9.874   7.704   2.877
 5014WAT     H115284   9.836   7.667   2.961
 5014WAT     H215285   9.820   7.782   2.847
 5015WAT      O15286   1.127   6.525   1.099
 5015WAT     H115287   1.059   6.453   1.085
 5015WAT     H215288   1.217   6.483   1.109
 5016WAT      O15289   8.436   4.417   4.256
 5016WAT     H115290   8.447   4.331   4.307
 5016WAT     H215291   8.526   4.460   4.244
 5017WAT      O15292   9.630   2.804   0.686
 5017WAT     H115293   9.575   2.846   0.758
 5017WAT     H215294   9.579   2.728   0.645
 5018WAT      O15295   9.325   9.111   1.716
 5018WAT     H115296   9.231   9.103   1.749
 5018WAT     H215297   9.338   9.200   1.674
 5019WAT      O15298   7.115   0.850   9.259
 5019WAT     H115299   7.088   0.793   9.336
 5019WAT     H215300   7.110   0.797   9.175
 5020WAT      O15301   3.890   5.717   4.576
 5020WAT     H115302   3.888   5.624   4.540
 5020WAT     H215303   3.954   5.772   4.523
 5021WAT      O15304   1.851   7.782   5.560
 5021WAT     H115305   1.913   7.738   5.495
 5021WAT     H215306   1.880   7.761   5.653
 5022WAT      O15307   2.865   7.927   9.202
 5022WAT     H115308   2.833   7.861   9.135
 5022WAT     H215309   2.794   7.997   9.216
 5023WAT      O15310   4.272   4.563   3.931
 5023WAT     H115311   4.289   4.503   3.853
 5023WAT     H215312   4.311   4.523   4.014
 5024WAT      O15313   8.728   8.677   7.495
 5024WAT     H115314   8.642   8.627   7.502
 5024WAT     H215315   8.754   8.684   7.398
 5025WAT      O15316   2.681   5.566   4.864
 5025WAT     H115317   2.737   5.499   4.914
 5025WAT     H215318   2.600   5.588   4.918
 5026WAT      O15319   1.512   2.267   8.955
 5026WAT     H115320   1.468   2.301   8.873
 5026WAT     H215321   1.583   2.332   8.985
 5027WAT      O15322   2.660   7.089   7.055
 5027WAT     H115323   2.683   6.995   7.032
 5027WAT     H215324   2.735   7.129   7.108
 5028WAT      O15325   7.373   5.544   3.178
 5028WAT     H115326   7.355   5.494   3.263
 5028WAT     H215327   7.330   5.496   3.101
 5029WAT      O15328   7.380   8.683   7.703
 5029WAT     H115329   7.423   8.644   7.621
 5029WAT     H215330   7.282   8.693   7.688
 5030WAT      O15331   0.359   8.145   4.340
 5030WAT     H115332   0.338   8.062   4.287
 5030WAT     H215333   0.300   8.220   4.309
 5031WAT      O15334   5.329   3.218   9.855
 5031WAT     H115335   5.324   3.119   9.838
 5031WAT     H215336   5.349   3.265   9.770
 5032WAT      O15337   0.031   3.907   3.804
 5032WAT     H115338  -0.007   3.826   3.849
 5032WAT     H215339  -0.001   3.990   3.851
 5033WAT      O15340   6.500   0.656   4.263
 5033WAT     H115341   6.428   0.592   4.235
 5033WAT     H215342   6.578   0.604   4.297
 5034WAT      O15343   1.094   7.067   2.618
 5034WAT     H115344   1.030   7.061   2.541
 5034WAT     H215345   1.187   7.072   2.583
 5035WAT      O15346   9.258   3.637   0.731
 5035WAT     H115347   9.228   3.576   0.658
 5035WAT     H215348   9.324   3.590   0.790
 5036WAT      O15349   2.857   9.174   9.056
 5036WAT     H115350   2.790   9.213   9.119
 5036WAT     H215351   2.911   9.248   9.015
 5037WAT      O15352   8.270   8.348   3.086
 5037WAT     H115353   8.236   8.254   3.077
 5037WAT     H215354   8.193   8.409   3.107
 5038WAT      O15355   7.207   0.673   7.505
 5038WAT     H115356   7.274   0.740   7.537
 5038WAT     H215357   7.120   0.720   7.487
 5039WAT      O15358   5.035   1.850   5.822
 5039WAT     H115359   4.965   1.918   5.848
 5039WAT     H215360   4.996   1.759   5.826
 5040WAT      O15361   7.416   6.048   1.361
 5040WAT     H115362   7.354   6.013   1.431
 5040WAT     H215363   7.482   5.978   1.336
 5041WAT      O15364   8.681   5.411   3.216
 5041WAT     H115365   8.637   5.491   3.257
 5041WAT     H215366   8.680   5.335   3.281
 5042WAT      O15367   8.044   0.549   3.068
 5042WAT     H115368   8.015   0.484   2.998
 5042WAT     H215369   7.977   0.552   3.142
 5043WAT      O15370   2.620   0.147   9.768
 5043WAT     H115371   2.711   0.106   9.774
 5043WAT     H215372   2.621   0.223   9.703
 5044WAT      O15373   5.485   8.410   0.368
 5044WAT     H115374   5.391   8.430   0.395
 5044WAT     H215375   5.522   8.339   0.427
 5045WAT      O15376   0.268   7.374   1.912
 5045WAT     H115377   0.172   7.349   1.909
 5045WAT     H215378   0.287   7.441   1.840
 5046WAT      O15379   3.213   8.349   5.591
 5046WAT     H115380   3.212   8.422   5.659
 5046WAT     H215381   3.276   8.373   5.517
 5047WAT      O15382   1.462   6.482   7.091
 5047WAT     H115383   1.544   6.538   7.106
 5047WAT     H215384   1.390   6.539   7.051
 5048WAT      O15385   2.255   8.375   1.405
 5048WAT     H115386   2.221   8.465   1.433
 5048WAT     H215387   2.177   8.313   1.393
 5049WAT      O15388   3.836   3.152   6.800
 5049WAT     H115389   3.806   3.083   6.866
 5049WAT     H215390   3.917   3.120   6.752
 5050WAT      O15391   8.077   1.670   1.593
 5050WAT     H115392   8.126   1.680   1.506
 5050WAT     H215393   7.980   1.689   1.580
 5051WAT      O15394   2.559   4.200   3.654
 5051WAT     H115395   2.608   4.120   3.620
 5051WAT     H215396   2.466   4.175   3.680
 5052WAT      O15397   2.516   1.208   2.205
 5052WAT     H115398   2.469   1.297   2.197
 5052WAT     H215399   2.543   1.176   2.115
 5053WAT      O15400   3.122   5.677   3.763
 5053WAT     H115401   3.195   5.745   3.763
 5053WAT     H215402   3.156   5.591   3.803
 5054WAT      O15403   0.172   7.747   0.609
 5054WAT     H115404   0.075   7.734   0.630
 5054WAT     H215405   0.227   7.688   0.667
 5055WAT      O15406   2.287   6.739   1.623
 5055WAT     H115407   2.242   6.726   1.535
 5055WAT     H215408   2.293   6.837   1.644
 5056WAT      O15409   3.629   5.486   0.059
 5056WAT     H115410   3.695   5.440   0.118
 5056WAT     H215411   3.569   5.544   0.114
 5057WAT      O15412   5.269   2.328   9.182
 5057WAT     H115413   5.219   2.411   9.158
 5057WAT     H215414   5.248   2.257   9.114
 5058WAT      O15415   0.969   8.658   7.147
 5058WAT     H115416   1.013   8.569   7.135
 5058WAT     H215417   0.914   8.679   7.066
 5059WAT      O15418   7.472   0.494   3.726
 5059WAT     H115419   7.456   0.583   3.684
 5059WAT     H215420   7.395   0.433   3.705
 5060WAT      O15421   1.957   9.143   2.260
 5060WAT     H115422   1.947   9.204   2.339
 5060WAT     H215423   1.885   9.074   2.262
 5061WAT      O15424   2.089   9.658   7.560
 5061WAT     H115425   2.184   9.656   7.592
 5061WAT     H215426   2.046   9.569   7.577
 5062WAT      O15427   7.585   1.591   1.076
 5062WAT     H115428   7.493   1.625   1.094
 5062WAT     H215429   7.652   1.663   1.098
 5063WAT      O15430   3.268   8.941   8.037
 5063WAT     H115431   3.287   8.978   7.946
 5063WAT     H215432   3.308   8.850   8.046
 5064WAT      O15433   2.645   2.361   8.784
 5064WAT     H115434   2.675   2.434   8.847
 5064WAT     H215435   2.690   2.374   8.696
 5065WAT      O15436   7.090   7.464   7.277
 5065WAT     H115437   7.061   7.369   7.289
 5065WAT     H215438   7.089   7.487   7.179
 5066WAT      O15439   2.509   7.679   3.380
 5066WAT     H115440   2.506   7.762   3.436
 5066WAT     H215441   2.595   7.676   3.329
 5067WAT      O15442   3.081   4.938   3.936
 5067WAT     H115443   3.176   4.919   3.910
 5067WAT     H215444   3.021   4.909   3.861
 5068WAT      O15445   4.979   2.690   0.359
 5068WAT     H115446   4.931   2.708   0.444
 5068WAT     H215447   5.063   2.639   0.378
 5069WAT      O15448   6.022   8.273   3.369
 5069WAT     H115449   6.115   8.296   3.340
 5069WAT     H215450   5.956   8.315   3.308
 5070WAT      O15451   6.114   3.249   7.811
 5070WAT     H115452   6.025   3.210   7.786
 5070WAT     H215453   6.114   3.270   7.909
 5071WAT      O15454   5.509   3.056   4.115
 5071WAT     H115455   5.412   3.034   4.128
 5071WAT     H215456   5.543   3.104   4.195
 5072WAT      O15457   8.180   9.825   2.926
 5072WAT     H115458   8.249   9.757   2.901
 5072WAT     H215459   8.212   9.916   2.902
 5073WAT      O15460   7.309   1.081   5.182
 5073WAT     H115461   7.339   1.094   5.087
 5073WAT     H215462   7.251   1.000   5.188
 5074WAT      O15463   1.172   6.990   4.874
 5074WAT     H115464   1.085   7.024   4.912
 5074WAT     H215465   1.234   7.067   4.859
 5075WAT      O15466   5.853   7.405   6.098
 5075WAT     H115467   5.854   7.453   6.010
 5075WAT     H215468   5.759   7.385   6.124
 5076WAT      O15469   2.759   4.784   4.031
 5076WAT     H115470   2.797   4.703   4.076
 5076WAT     H215471   2.679   4.757   3.978
 5077WAT      O15472   8.804   7.452   3.822
 5077WAT     H115473   8.839   7.366   3.785
 5077WAT     H215474   8.846   7.529   3.773
 5078WAT      O15475   2.684   4.151   6.816
 5078WAT     H115476   2.699   4.098   6.733
 5078WAT     H215477   2.605   4.211   6.803
 5079WAT      O15478   8.543   4.361   3.112
 5079WAT     H115479   8.476   4.435   3.120
 5079WAT     H215480   8.496   4.273   3.118
 5080WAT      O15481   5.536   3.899   9.515
 5080WAT     H115482   5.559   3.963   9.588
 5080WAT     H215483   5.446   3.921   9.477
 5081WAT      O15484   7.615   6.917   2.031
 5081WAT     H115485   7.563   6.874   1.957
 5081WAT     H215486   7.706   6.941   1.998
 5082WAT      O15487   8.305   2.802   3.977
 5082WAT     H115488   8.256   2.748   3.908
 5082WAT     H215489   8.248   2.879   4.006
 5083WAT      O15490   3.684   8.273   0.403
 5083WAT     H115491   3.593   8.232   0.417
 5083WAT     H215492   3.676   8.372   0.402
 5084WAT      O15493   7.358   0.281   7.272
 5084WAT     H115494   7.309   0.364   7.298
 5084WAT     H215495   7.306   0.233   7.201
 5085WAT      O15496   1.424   9.487   7.984
 5085WAT     H115497   1.506   9.535   7.952
 5085WAT     H215498   1.451   9.400   8.025
 5086WAT      O15499   0.336   6.064   3.799
 5086WAT     H115500   0.405   6.130   3.770
 5086WAT     H215501   0.339   6.054   3.898
 5087WAT      O15502   3.250   6.722   0.579
 5087WAT     H115503   3.213   6.743   0.489
 5087WAT     H215504   3.271   6.625   0.584
 5088WAT      O15505   5.295   7.722   3.718
 5088WAT     H115506   5.233   7.653   3.683
 5088WAT     H215507   5.309   7.707   3.816
 5089WAT      O15508   5.378   0.947   4.178
 5089WAT     H115509   5.432   0.886   4.120
 5089WAT     H215510   5.353   0.900   4.262
 5090WAT      O15511   2.284   0.587   6.595
 5090WAT     H115512   2.371   0.600   6.643
 5090WAT     H215513   2.223   0.663   6.618
 5091WAT      O15514   2.491   4.395   4.086
 5091WAT     H115515   2.452   4.404   3.994
 5091WAT     H215516   2.590   4.407   4.082
 5092WAT      O15517   3.820   1.452   0.569
 5092WAT     H115518   3.897   1.515   0.576
 5092WAT     H215519   3.828   1.380   0.638
 5093WAT      O15520   8.282   6.932   0.510
 5093WAT     H115521   8.224   7.010   0.533
 5093WAT     H215522   8.301   6.879   0.592
 5094WAT      O15523   0.906   2.062   1.406
 5094WAT     H115524   0.926   2.033   1.313
 5094WAT     H215525   0.837   2.002   1.446
 5095WAT      O15526   1.418   9.577   7.448
 5095WAT     H115527   1.431   9.478   7.445
 5095WAT     H215528   1.355   9.605   7.375
 5096WAT      O15529   1.748   7.194   2.487
 5096WAT     H115530   1.689   7.189   2.407
 5096WAT     H215531   1.692   7.210   2.569
 5097WAT      O15532   9.758   8.350   1.672
 5097WAT     H115533   9.798   8.299   1.748
 5097WAT     H215534   9.664   8.321   1.658
 5098WAT      O15535   0.444   0.094   5.676
 5098WAT     H115536   0.465   0.015   5.619
 5098WAT     H215537   0.505   0.097   5.755
 5099WAT      O15538   8.489   2.765   2.336
 5099WAT     H115539   8.412   2.741   2.277
 5099WAT     H215540   8.565   2.799   2.280
 5100WAT      O15541   0.785   6.475   3.394
 5100WAT     H115542   0.783   6.572   3.371
 5100WAT     H215543   0.783   6.464   3.494
 5101WAT      O15544   0.084   6.442   2.697
 5101WAT     H115545   0.107   6.375   2.768
 5101WAT     H215546   0.003   6.410   2.647
 5102WAT      O15547   8.123   1.498   7.336
 5102WAT     H115548   8.155   1.578   7.284
 5102WAT     H215549   8.088   1.527   7.424
 5103WAT      O15550   9.282   5.368   6.680
 5103WAT     H115551   9.336   5.452   6.678
 5103WAT     H215552   9.342   5.289   6.689
 5104WAT      O15553   4.113   7.101   3.135
 5104WAT     H115554   4.208   7.073   3.143
 5104WAT     H215555   4.090   7.114   3.038
 5105WAT      O15556   9.394   6.550   1.399
 5105WAT     H115557   9.370   6.585   1.308
 5105WAT     H215558   9.445   6.464   1.389
 5106WAT      O15559   2.734   0.392   7.683
 5106WAT     H115560   2.728   0.413   7.781
 5106WAT     H215561   2.764   0.298   7.671
 5107WAT      O15562   2.053   8.759   0.640
 5107WAT     H115563   2.133   8.811   0.610
 5107WAT     H215564   1.975   8.821   0.653
 5108WAT      O15565   0.020   2.009   2.207
 5108WAT     H115566   0.002   1.911   2.198
 5108WAT     H215567  -0.061   2.061   2.180
 5109WAT      O15568   8.001   2.936   5.171
 5109WAT     H115569   8.063   2.866   5.134
 5109WAT     H215570   8.024   2.952   5.268
 5110WAT      O15571   5.869   9.406   7.194
 5110WAT     H115572   5.892   9.336   7.262
 5110WAT     H215573   5.846   9.362   7.107
 5111WAT      O15574   3.981   1.228   9.485
 5111WAT     H115575   4.025   1.260   9.401
 5111WAT     H215576   4.050   1.192   9.548
 5112WAT      O15577   2.778   5.859   7.487
 5112WAT     H115578   2.856   5.826   7.433
 5112WAT     H215579   2.767   5.958   7.472
 5113WAT      O15580   6.483   8.795   9.395
 5113WAT     H115581   6.535   8.879   9.412
 5113WAT     H215582   6.462   8.788   9.297
 5114WAT      O15583   1.573   4.343   8.082
 5114WAT     H115584   1.503   4.273   8.068
 5114WAT     H215585   1.577   4.402   8.001
 5115WAT      O15586   6.534   3.909   2.672
 5115WAT     H115587   6.632   3.889   2.669
 5115WAT     H215588   6.521   4.006   2.692
 5116WAT      O15589   5.806   5.409   7.086
 5116WAT     H115590   5.889   5.384   7.135
 5116WAT     H215591   5.780   5.502   7.111
 5117WAT      O15592   7.094   0.789   4.100
 5117WAT     H115593   7.180   0.819   4.058
 5117WAT     H215594   7.111   0.707   4.155
 5118WAT      O15595   5.841   0.150   0.579
 5118WAT     H115596   5.837   0.168   0.678
 5118WAT     H215597   5.808   0.058   0.560
 5119WAT      O15598   1.480   7.587   7.339
 5119WAT     H115599   1.567   7.594   7.387
 5119WAT     H215600   1.430   7.508   7.372
 5120WAT      O15601   1.666   0.966   8.793
 5120WAT     H115602   1.643   0.898   8.723
 5120WAT     H215603   1.766   0.972   8.801
 5121WAT      O15604   5.459   5.057   7.976
 5121WAT     H115605   5.370   5.048   7.932
 5121WAT     H215606   5.505   5.140   7.943
 5122WAT      O15607   0.448   7.864   7.090
 5122WAT     H115608   0.484   7.799   7.024
 5122WAT     H215609   0.398   7.816   7.162
 5123WAT      O15610   7.537   1.009   2.859
 5123WAT     H115611   7.491   0.921   2.852
 5123WAT     H215612   7.534   1.056   2.770
 5124WAT      O15613   2.191   3.612   3.223
 5124WAT     H115614   2.174   3.551   3.300
 5124WAT     H215615   2.239   3.694   3.255
 5125WAT      O15616   3.265   2.597   6.032
 5125WAT     H115617   3.287   2.579   5.937
 5125WAT     H215618   3.349   2.608   6.085
 5126WAT      O15619   9.304   6.496   2.261
 5126WAT     H115620   9.390   6.483   2.212
 5126WAT     H215621   9.312   6.575   2.322
 5127WAT      O15622   6.101   3.472   4.848
 5127WAT     H115623   6.019   3.529   4.855
 5127WAT     H215624   6.097   3.401   4.919
 5128WAT      O15625   6.327   9.046   5.981
 5128WAT     H115626   6.289   8.961   5.945
 5128WAT     H215627   6.279   9.070   6.065
 5129WAT      O15628   4.995   7.991   0.808
 5129WAT     H115629   5.013   8.011   0.904
 5129WAT     H215630   4.967   7.895   0.799
 5130WAT      O15631   0.767   5.136   8.881
 5130WAT     H115632   0.696   5.159   8.948
 5130WAT     H215633   0.733   5.062   8.822
 5131WAT      O15634   9.240   5.700   8.607
 5131WAT     H115635   9.272   5.615   8.565
 5131WAT     H215636   9.150   5.685   8.649
 5132WAT      O15637   3.393   0.849   7.307
 5132WAT     H115638   3.437   0.865   7.396
 5132WAT     H215639   3.333   0.769   7.314
 5133WAT      O15640   4.618   9.385   5.364
 5133WAT     H115641   4.659   9.301   5.329
 5133WAT     H215642   4.690   9.448   5.392
 5134WAT      O15643   9.312   7.722   4.818
 5134WAT     H115644   9.383   7.750   4.882
 5134WAT     H215645   9.267   7.803   4.780
 5135WAT      O15646   0.322   9.607   3.543
 5135WAT     H115647   0.247   9.572   3.599
 5135WAT     H215648   0.334   9.705   3.560
 5136WAT      O15649   7.285   9.358   3.105
 5136WAT     H115650   7.367   9.328   3.153
 5136WAT     H215651   7.278   9.458   3.111
 5137WAT      O15652   6.853   4.162   5.544
 5137WAT     H115653   6.938   4.215   5.550
 5137WAT     H215654   6.834   4.141   5.448
 5138WAT      O15655   6.681   0.927   1.313
 5138WAT     H115656   6.714   0.854   1.253
 5138WAT     H215657   6.623   0.887   1.384
 5139WAT      O15658   7.830   1.293   4.238
 5139WAT     H115659   7.848   1.283   4.336
 5139WAT     H215660   7.744   1.248   4.215
 5140WAT      O15661   2.830   2.234   2.582
 5140WAT     H115662   2.814   2.137   2.564
 5140WAT     H215663   2.864   2.279   2.500
 5141WAT      O15664   0.204   1.971   8.977
 5141WAT     H115665   0.224   2.027   8.896
 5141WAT     H215666   0.107   1.944   8.975
 5142WAT      O15667   4.207   1.991   0.167
 5142WAT     H115668   4.155   2.003   0.083
 5142WAT     H215669   4.256   2.076   0.188
 5143WAT      O15670   7.324   7.781   4.566
 5143WAT     H115671   7.319   7.793   4.467
 5143WAT     H215672   7.255   7.715   4.596
 5144WAT      O15673   6.072   1.487   8.057
 5144WAT     H115674   6.146   1.474   7.991
 5144WAT     H215675   5.986   1.456   8.017
 5145WAT      O15676   6.988   3.018   0.791
 5145WAT     H115677   7.018   3.035   0.697
 5145WAT     H215678   6.988   3.103   0.843
 5146WAT      O15679   1.982   4.375   3.105
 5146WAT     H115680   1.883   4.380   3.091
 5146WAT     H215681   2.014   4.284   3.080
 5147WAT      O15682   4.886   7.950   4.175
 5147WAT     H115683   4.833   7.892   4.236
 5147WAT     H215684   4.901   7.904   4.088
 5148WAT      O15685   5.916   8.631   9.127
 5148WAT     H115686   5.904   8.621   9.029
 5148WAT     H215687   5.997   8.579   9.156
 5149WAT      O15688   7.649   6.216   6.482
 5149WAT     H115689   7.621   6.227   6.387
 5149WAT     H215690   7.739   6.172   6.486
 5150WAT      O15691   2.179   2.252   7.946
 5150WAT     H115692   2.162   2.182   7.876
 5150WAT     H215693   2.233   2.213   8.020
 5151WAT      O15694   0.321   9.026   5.435
 5151WAT     H115695   0.325   8.936   5.477
 5151WAT     H215696   0.228   9.044   5.402
 5152WAT      O15697   9.687   0.730   4.076
 5152WAT     H115698   9.740   0.741   3.992
 5152WAT     H215699   9.742   0.758   4.154
 5153WAT      O15700   4.157   0.676   6.879
 5153WAT     H115701   4.235   0.709   6.826
 5153WAT     H215702   4.189   0.632   6.962
 5154WAT      O15703   2.377   8.820   7.378
 5154WAT     H115704   2.462   8.771   7.394
 5154WAT     H215705   2.317   8.812   7.458
 5155WAT      O15706   3.517   4.876   1.719
 5155WAT     H115707   3.433   4.900   1.670
 5155WAT     H215708   3.595   4.924   1.679
 5156WAT      O15709   3.495   7.148   9.091
 5156WAT     H115710   3.516   7.243   9.070
 5156WAT     H215711   3.431   7.143   9.167
 5157WAT      O15712   6.897   7.484   8.127
 5157WAT     H115713   6.963   7.559   8.139
 5157WAT     H215714   6.942   7.398   8.147
 5158WAT      O15715   7.880   7.738   9.148
 5158WAT     H115716   7.918   7.816   9.100
 5158WAT     H215717   7.936   7.716   9.227
 5159WAT      O15718   4.859   4.735   0.670
 5159WAT     H115719   4.862   4.816   0.729
 5159WAT     H215720   4.819   4.658   0.720
 5160WAT      O15721   7.056   0.058   5.162
 5160WAT     H115722   7.092   0.097   5.077
 5160WAT     H215723   6.976   0.110   5.191
 5161WAT      O15724   9.569   6.167   3.172
 5161WAT     H115725   9.470   6.160   3.189
 5161WAT     H215726   9.584   6.197   3.078
 5162WAT      O15727   5.307   9.268   1.825
 5162WAT     H115728   5.283   9.333   1.752
 5162WAT     H215729   5.225   9.245   1.877
 5163WAT      O15730   4.761   3.288   7.877
 5163WAT     H115731   4.681   3.348   7.875
 5163WAT     H215732   4.732   3.196   7.903
 5164WAT      O15733   6.604   6.512   4.218
 5164WAT     H115734   6.512   6.543   4.195
 5164WAT     H215735   6.598   6.428   4.272
 5165WAT      O15736   1.077   9.051   5.439
 5165WAT     H115737   1.115   8.968   5.398
 5165WAT     H215738   1.001   9.084   5.384
 5166WAT      O15739   6.454   1.046   1.032
 5166WAT     H115740   6.465   1.103   1.114
 5166WAT     H215741   6.358   1.049   1.003
 5167WAT      O15742   2.978   2.596   6.065
 5167WAT     H115743   2.945   2.505   6.038
 5167WAT     H215744   3.075   2.604   6.041
 5168WAT      O15745   0.878   5.144   3.130
 5168WAT     H115746   0.879   5.111   3.036
 5168WAT     H215747   0.851   5.070   3.191
 5169WAT      O15748   9.811   8.792   0.040
 5169WAT     H115749   9.806   8.839   0.128
 5169WAT     H215750   9.905   8.793   0.007
 5170WAT      O15751   4.496   3.111   6.425
 5170WAT     H115752   4.490   3.020   6.466
 5170WAT     H215753   4.423   3.121   6.357
 5171WAT      O15754   4.942   0.917   0.084
 5171WAT     H115755   5.032   0.923   0.128
 5171WAT     H215756   4.952   0.938  -0.014
 5172WAT      O15757   2.170   2.563   1.402
 5172WAT     H115758   2.201   2.658   1.394
 5172WAT     H215759   2.249   2.502   1.407
 5173WAT      O15760   6.942   4.521   5.870
 5173WAT     H115761   7.003   4.589   5.911
 5173WAT     H215762   6.931   4.539   5.772
 5174WAT      O15763   7.060   2.576   5.573
 5174WAT     H115764   7.113   2.660   5.579
 5174WAT     H215765   6.975   2.594   5.524
 5175WAT      O15766   1.824   8.130   5.225
 5175WAT     H115767   1.801   8.050   5.280
 5175WAT     H215768   1.754   8.201   5.239
 5176WAT      O15769   4.249   7.772   8.490
 5176WAT     H115770   4.287   7.851   8.444
 5176WAT     H215771   4.290   7.763   8.581
 5177WAT      O15772   9.126   8.501   0.514
 5177WAT     H115773   9.059   8.502   0.440
 5177WAT     H215774   9.078   8.502   0.602
 5178WAT      O15775   9.817   7.088   0.601
 5178WAT     H115776   9.841   7.020   0.670
 5178WAT     H215777   9.798   7.176   0.645
 5179WAT      O15778   0.593   0.308   0.409
 5179WAT     H115779   0.562   0.399   0.381
 5179WAT     H215780   0.519   0.242   0.394
 5180WAT      O15781   4.107   8.090   8.629
 5180WAT     H115782   4.163   8.091   8.711
 5180WAT     H215783   4.159   8.128   8.552
 5181WAT      O15784   9.756   2.922   9.053
 5181WAT     H115785   9.803   2.938   8.966
 5181WAT     H215786   9.782   2.992   9.119
 5182WAT      O15787   6.318   4.189   8.369
 5182WAT     H115788   6.293   4.162   8.462
 5182WAT     H215789   6.353   4.110   8.320
 5183WAT      O15790   0.690   4.600   2.473
 5183WAT     H115791   0.679   4.506   2.506
 5183WAT     H215792   0.767   4.603   2.408
 5184WAT      O15793   0.433   7.797   0.485
 5184WAT     H115794   0.505   7.791   0.554
 5184WAT     H215795   0.349   7.830   0.527
 5185WAT      O15796   9.818   6.955   0.846
 5185WAT     H115797   9.742   6.981   0.905
 5185WAT     H215798   9.852   6.865   0.873
 5186WAT      O15799   6.345   4.909   7.789
 5186WAT     H115800   6.350   4.941   7.884
 5186WAT     H215801   6.332   4.987   7.728
 5187WAT      O15802   3.859   8.611   5.403
 5187WAT     H115803   3.814   8.698   5.420
 5187WAT     H215804   3.847   8.585   5.308
 5188WAT      O15805   7.293   5.047   4.685
 5188WAT     H115806   7.242   5.106   4.623
 5188WAT     H215807   7.272   4.951   4.664
 5189WAT      O15808   3.240   3.948   4.786
 5189WAT     H115809   3.292   3.969   4.703
 5189WAT     H215810   3.273   4.005   4.861
 5190WAT      O15811   7.561   8.956   8.715
 5190WAT     H115812   7.633   8.896   8.749
 5190WAT     H215813   7.514   8.912   8.638
 5191WAT      O15814   9.709   1.215   2.769
 5191WAT     H115815   9.630   1.265   2.805
 5191WAT     H215816   9.685   1.119   2.756
 5192WAT      O15817   5.091   8.144   2.938
 5192WAT     H115818   5.178   8.191   2.923
 5192WAT     H215819   5.099   8.049   2.909
 5193WAT      O15820   2.497   0.765   0.454
 5193WAT     H115821   2.494   0.688   0.391
 5193WAT     H215822   2.460   0.846   0.410
 5194WAT      O15823   5.827   8.350   6.835
 5194WAT     H115824   5.893   8.378   6.905
 5194WAT     H215825   5.875   8.310   6.757
 5195WAT      O15826   1.634   0.100   7.724
 5195WAT     H115827   1.625   0.052   7.636
 5195WAT     H215828   1.582   0.185   7.721
 5196WAT      O15829   7.608   4.712   6.323
 5196WAT     H115830   7.526   4.757   6.287
 5196WAT     H215831   7.689   4.758   6.287
 5197WAT      O15832   4.973   3.292   9.212
 5197WAT     H115833   5.039   3.365   9.229
 5197WAT     H215834   4.885   3.332   9.186
 5198WAT      O15835   2.332   9.380   1.460
 5198WAT     H115836   2.352   9.287   1.428
 5198WAT     H215837   2.398   9.407   1.529
 5199WAT      O15838   7.505   6.721   4.258
 5199WAT     H115839   7.456   6.654   4.313
 5199WAT     H215840   7.593   6.682   4.229
 5200WAT      O15841   4.888   9.415   4.106
 5200WAT     H115842   4.935   9.500   4.082
 5200WAT     H215843   4.869   9.363   4.024
 5201WAT      O15844   5.289   8.167   8.472
 5201WAT     H115845   5.247   8.124   8.392
 5201WAT     H215846   5.345   8.101   8.520
 5202WAT      O15847   4.767   2.876   2.399
 5202WAT     H115848   4.724   2.787   2.381
 5202WAT     H215849   4.793   2.919   2.312
 5203WAT      O15850   7.270   3.542   3.867
 5203WAT     H115851   7.225   3.622   3.827
 5203WAT     H215852   7.357   3.527   3.820
 5204WAT      O15853   4.408   9.667   1.316
 5204WAT     H115854   4.308   9.666   1.321
 5204WAT     H215855   4.437   9.735   1.249
 5205WAT      O15856   6.273   3.840   3.634
 5205WAT     H115857   6.265   3.934   3.601
 5205WAT     H215858   6.260   3.777   3.558
 5206WAT      O15859   0.704   8.150   6.069
 5206WAT     H115860   0.728   8.078   6.134
 5206WAT     H215861   0.619   8.125   6.022
 5207WAT      O15862   2.976   0.415   3.473
 5207WAT     H115863   2.994   0.402   3.571
 5207WAT     H215864   2.945   0.329   3.433
 5208WAT      O15865   2.464   9.520   0.582
 5208WAT     H115866   2.507   9.474   0.504
 5208WAT     H215867   2.482   9.618   0.577
 5209WAT      O15868   6.906   1.549   2.451
 5209WAT     H115869   6.907   1.634   2.504
 5209WAT     H215870   6.890   1.570   2.355
 5210WAT      O15871   1.760   1.714   1.451
 5210WAT     H115872   1.708   1.630   1.469
 5210WAT     H215873   1.703   1.777   1.398
 5211WAT      O15874   6.822   4.155   8.644
 5211WAT     H115875   6.726   4.150   8.617
 5211WAT     H215876   6.829   4.172   8.742
 5212WAT      O15877   1.371   0.548   2.999
 5212WAT     H115878   1.423   0.473   3.038
 5212WAT     H215879   1.359   0.620   3.068
 5213WAT      O15880   0.627   2.244   5.209
 5213WAT     H115881   0.681   2.328   5.216
 5213WAT     H215882   0.665   2.175   5.271
 5214WAT      O15883   2.443   3.024   2.816
 5214WAT     H115884   2.436   2.926   2.798
 5214WAT     H215885   2.427   3.075   2.732
 5215WAT      O15886   1.016   3.054   6.469
 5215WAT     H115887   1.079   3.063   6.392
 5215WAT     H215888   1.066   3.065   6.555
 5216WAT      O15889   2.538   6.167   8.846
 5216WAT     H115890   2.446   6.173   8.882
 5216WAT     H215891   2.568   6.258   8.815
 5217WAT      O15892   5.888   2.673   3.567
 5217WAT     H115893   5.936   2.671   3.479
 5217WAT     H215894   5.875   2.768   3.596
 5218WAT      O15895   7.608   3.274   2.678
 5218WAT     H115896   7.555   3.254   2.760
 5218WAT     H215897   7.604   3.196   2.616
 5219WAT      O15898   9.457   1.023   9.451
 5219WAT     H115899   9.532   0.960   9.430
 5219WAT     H215900   9.492   1.098   9.508
 5220WAT      O15901   6.193   4.432   9.185
 5220WAT     H115902   6.168   4.360   9.250
 5220WAT     H215903   6.283   4.411   9.145
 5221WAT      O15904   2.544   4.622   0.251
 5221WAT     H115905   2.592   4.699   0.293
 5221WAT     H215906   2.454   4.652   0.220
 5222WAT      O15907   2.793   7.331   3.783
 5222WAT     H115908   2.884   7.312   3.820
 5222WAT     H215909   2.759   7.417   3.821
 5223WAT      O15910   5.986   2.725   0.970
 5223WAT     H115911   5.963   2.822   0.980
 5223WAT     H215912   6.086   2.714   0.971
 5224WAT      O15913   7.743   2.722   5.876
 5224WAT     H115914   7.680   2.700   5.802
 5224WAT     H215915   7.780   2.814   5.861
 5225WAT      O15916   5.987   8.190   8.125
 5225WAT     H115917   6.002   8.237   8.038
 5225WAT     H215918   6.024   8.244   8.200
 5226WAT      O15919   5.175   9.712   1.055
 5226WAT     H115920   5.172   9.626   1.004
 5226WAT     H215921   5.270   9.738   1.071
 5227WAT      O15922   0.227   2.723   2.435
 5227WAT     H115923   0.196   2.630   2.456
 5227WAT     H215924   0.275   2.723   2.348
 5228WAT      O15925   7.042   4.114   4.371
 5228WAT     H115926   6.976   4.043   4.397
 5228WAT     H215927   7.134   4.087   4.401
 5229WAT      O15928   6.085   3.000   8.599
 5229WAT     H115929   6.182   2.974   8.597
 5229WAT     H215930   6.072   3.083   8.546
 5230WAT      O15931   7.662   5.252   1.182
 5230WAT     H115932   7.602   5.251   1.101
 5230WAT     H215933   7.675   5.346   1.212
 5231WAT      O15934   6.441   4.139   3.426
 5231WAT     H115935   6.344   4.163   3.433
 5231WAT     H215936   6.493   4.218   3.393
 5232WAT      O15937   2.167   6.723   1.307
 5232WAT     H115938   2.160   6.735   1.208
 5232WAT     H215939   2.215   6.637   1.327
 5233WAT      O15940   8.566   7.486   3.557
 5233WAT     H115941   8.470   7.513   3.554
 5233WAT     H215942   8.586   7.442   3.645
 5234WAT      O15943   6.267   6.576   8.770
 5234WAT     H115944   6.260   6.572   8.869
 5234WAT     H215945   6.197   6.636   8.733
 5235WAT      O15946   7.719   6.595   4.123
 5235WAT     H115947   7.695   6.577   4.027
 5235WAT     H215948   7.818   6.597   4.133
 5236WAT      O15949   8.715   5.244   9.703
 5236WAT     H115950   8.626   5.204   9.682
 5236WAT     H215951   8.770   5.250   9.620
 5237WAT      O15952   2.789   5.698   2.259
 5237WAT     H115953   2.809   5.704   2.161
 5237WAT     H215954   2.718   5.764   2.283
 5238WAT      O15955   3.401   2.148   1.768
 5238WAT     H115956   3.462   2.225   1.746
 5238WAT     H215957   3.450   2.083   1.827
 5239WAT      O15958   0.836   3.143   0.610
 5239WAT     H115959   0.797   3.124   0.700
 5239WAT     H215960   0.897   3.068   0.584
 5240WAT      O15961   2.000   4.024   7.310
 5240WAT     H115962   1.923   4.084   7.287
 5240WAT     H215963   2.081   4.052   7.259
 5241WAT      O15964   9.803   8.936   5.020
 5241WAT     H115965   9.753   8.963   5.102
 5241WAT     H215966   9.884   8.884   5.046
 5242WAT      O15967   2.496   3.739   2.950
 5242WAT     H115968   2.441   3.691   3.019
 5242WAT     H215969   2.559   3.802   2.995
 5243WAT      O15970   7.190   6.530   1.364
 5243WAT     H115971   7.102   6.484   1.378
 5243WAT     H215972   7.242   6.483   1.293
 5244WAT      O15973   3.741   1.611   6.616
 5244WAT     H115974   3.830   1.649   6.592
 5244WAT     H215975   3.750   1.551   6.696
 5245WAT      O15976   1.465   1.790   3.778
 5245WAT     H115977   1.529   1.736   3.725
 5245WAT     H215978   1.429   1.865   3.722
 5246WAT      O15979   0.760   6.314   8.460
 5246WAT     H115980   0.714   6.402   8.455
 5246WAT     H215981   0.739   6.260   8.378
 5247WAT      O15982   4.523   1.712   6.358
 5247WAT     H115983   4.559   1.626   6.320
 5247WAT     H215984   4.481   1.765   6.285
 5248WAT      O15985   2.647   6.388   7.500
 5248WAT     H115986   2.624   6.379   7.402
 5248WAT     H215987   2.719   6.322   7.523
 5249WAT      O15988   9.054   5.481   6.481
 5249WAT     H115989   9.132   5.441   6.529
 5249WAT     H215990   9.078   5.573   6.450
 5250WAT      O15991   3.589   4.125   8.296
 5250WAT     H115992   3.636   4.201   8.343
 5250WAT     H215993   3.490   4.140   8.301
 5251WAT      O15994   8.626   4.187   2.841
 5251WAT     H115995   8.583   4.183   2.931
 5251WAT     H215996   8.725   4.195   2.851
 5252WAT      O15997   7.764   7.200   7.981
 5252WAT     H115998   7.681   7.253   7.998
 5252WAT     H215999   7.779   7.194   7.882
 5253WAT      O16000   5.974   8.895   1.393
 5253WAT     H116001   5.927   8.807   1.407
 5253WAT     H216002   6.068   8.887   1.425
 5254WAT      O16003   4.643   3.750   5.881
 5254WAT     H116004   4.577   3.736   5.807
 5254WAT     H216005   4.652   3.666   5.933
 5255WAT      O16006   3.154   6.170   9.802
 5255WAT     H116007   3.168   6.107   9.879
 5255WAT     H216008   3.228   6.237   9.800
 5256WAT      O16009   3.215   2.114   3.605
 5256WAT     H116010   3.219   2.112   3.705
 5256WAT     H216011   3.146   2.181   3.576
 5257WAT      O16012   9.246   3.814   9.071
 5257WAT     H116013   9.222   3.866   9.153
 5257WAT     H216014   9.224   3.869   8.990
 5258WAT      O16015   9.088   6.861   2.991
 5258WAT     H116016   9.180   6.852   3.031
 5258WAT     H216017   9.021   6.822   3.054
 5259WAT      O16018   3.545   4.289   8.740
 5259WAT     H116019   3.451   4.276   8.771
 5259WAT     H216020   3.561   4.385   8.718
 5260WAT      O16021   4.367   6.624   3.557
 5260WAT     H116022   4.287   6.567   3.576
 5260WAT     H216023   4.451   6.572   3.575
 5261WAT      O16024   5.029   8.853   2.666
 5261WAT     H116025   5.063   8.802   2.746
 5261WAT     H216026   5.058   8.807   2.582
 5262WAT      O16027   2.109   7.858   3.359
 5262WAT     H116028   2.090   7.949   3.397
 5262WAT     H216029   2.138   7.867   3.264
 5263WAT      O16030   1.909   1.246   9.427
 5263WAT     H116031   1.930   1.201   9.514
 5263WAT     H216032   1.994   1.259   9.376
 5264WAT      O16033   4.670   8.106   1.099
 5264WAT     H116034   4.605   8.065   1.034
 5264WAT     H216035   4.722   8.034   1.145
 5265WAT      O16036   7.793   4.840   2.356
 5265WAT     H116037   7.697   4.826   2.381
 5265WAT     H216038   7.831   4.755   2.320
 5266WAT      O16039   3.984   7.081   2.495
 5266WAT     H116040   4.081   7.060   2.495
 5266WAT     H216041   3.963   7.140   2.573
 5267WAT      O16042   2.475   1.107   6.154
 5267WAT     H116043   2.496   1.020   6.198
 5267WAT     H216044   2.558   1.145   6.113
 5268WAT      O16045   7.862   3.913   6.637
 5268WAT     H116046   7.926   3.850   6.680
 5268WAT     H216047   7.897   3.940   6.548
 5269WAT      O16048   2.617   2.710   8.690
 5269WAT     H116049   2.629   2.636   8.756
 5269WAT     H216050   2.525   2.704   8.651
 5270WAT      O16051   9.272   4.684   1.942
 5270WAT     H116052   9.359   4.635   1.953
 5270WAT     H216053   9.197   4.627   1.975
 5271WAT      O16054   0.086   2.966   0.235
 5271WAT     H116055   0.053   2.881   0.194
 5271WAT     H216056   0.085   2.957   0.335
 5272WAT      O16057   2.311   4.429   3.192
 5272WAT     H116058   2.329   4.348   3.248
 5272WAT     H216059   2.281   4.401   3.101
 5273WAT      O16060   7.533   2.527   6.290
 5273WAT     H116061   7.536   2.616   6.335
 5273WAT     H216062   7.511   2.540   6.193
 5274WAT      O16063   3.789   2.208   3.982
 5274WAT     H116064   3.829   2.295   3.955
 5274WAT     H216065   3.849   2.133   3.953
 5275WAT      O16066   6.253   0.607   2.807
 5275WAT     H116067   6.230   0.702   2.786
 5275WAT     H216068   6.208   0.546   2.743
 5276WAT      O16069   9.345   0.867   5.965
 5276WAT     H116070   9.384   0.776   5.982
 5276WAT     H216071   9.319   0.909   6.051
 5277WAT      O16072   6.255   0.129   4.327
 5277WAT     H116073   6.353   0.140   4.309
 5277WAT     H216074   6.205   0.133   4.241
 5278WAT      O16075   0.310   2.902   2.620
 5278WAT     H116076   0.300   2.819   2.565
 5278WAT     H216077   0.316   2.981   2.559
 5279WAT      O16078   3.361   9.092   1.458
 5279WAT     H116079   3.447   9.130   1.424
 5279WAT     H216080   3.380   9.029   1.534
 5280WAT      O16081   4.939   0.536   5.243
 5280WAT     H116082   4.884   0.610   5.204
 5280WAT     H216083   4.984   0.568   5.326
 5281WAT      O16084   6.287   3.211   4.255
 5281WAT     H116085   6.250   3.119   4.244
 5281WAT     H216086   6.305   3.229   4.351
 5282WAT      O16087   0.564   4.946   2.882
 5282WAT     H116088   0.637   4.926   2.817
 5282WAT     H216089   0.476   4.944   2.834
 5283WAT      O16090   7.648   0.557   8.134
 5283WAT     H116091   7.696   0.480   8.175
 5283WAT     H216092   7.574   0.523   8.076
 5284WAT      O16093   0.663   1.285   1.985
 5284WAT     H116094   0.762   1.294   1.984
 5284WAT     H216095   0.626   1.320   2.071
 5285WAT      O16096   4.624   9.223   1.363
 5285WAT     H116097   4.657   9.262   1.449
 5285WAT     H216098   4.597   9.298   1.301
 5286WAT      O16099   4.885   8.533   1.876
 5286WAT     H116100   4.952   8.534   1.950
 5286WAT     H216101   4.873   8.626   1.841
 5287WAT      O16102   9.313   5.459   7.411
 5287WAT     H116103   9.373   5.531   7.445
 5287WAT     H216104   9.329   5.445   7.313
 5288WAT      O16105   2.936   8.249   8.114
 5288WAT     H116106   3.023   8.268   8.160
 5288WAT     H216107   2.873   8.208   8.179
 5289WAT      O16108   8.567   8.331   3.053
 5289WAT     H116109   8.476   8.324   3.013
 5289WAT     H216110   8.569   8.281   3.140
 5290WAT      O16111   6.007   1.845   6.463
 5290WAT     H116112   6.055   1.763   6.494
 5290WAT     H216113   6.004   1.847   6.363
 5291WAT      O16114   2.931   5.324   0.880
 5291WAT     H116115   3.007   5.387   0.867
 5291WAT     H216116   2.846   5.368   0.849
 5292WAT      O16117   8.985   6.326   7.093
 5292WAT     H116118   8.949   6.290   7.006
 5292WAT     H216119   8.909   6.358   7.149
 5293WAT      O16120   0.680   6.499   3.017
 5293WAT     H116121   0.688   6.450   3.105
 5293WAT     H216122   0.745   6.461   2.952
 5294WAT      O16123   4.609   7.466   7.324
 5294WAT     H116124   4.649   7.374   7.332
 5294WAT     H216125   4.632   7.504   7.235
 5295WAT      O16126   8.895   4.706   0.269
 5295WAT     H116127   8.814   4.648   0.266
 5295WAT     H216128   8.970   4.661   0.220
 5296WAT      O16129   2.114   3.169   6.240
 5296WAT     H116130   2.192   3.215   6.284
 5296WAT     H216131   2.029   3.214   6.269
 5297WAT      O16132   6.583   4.270   8.805
 5297WAT     H116133   6.552   4.342   8.742
 5297WAT     H216134   6.556   4.181   8.768
 5298WAT      O16135   1.124   5.877   2.725
 5298WAT     H116136   1.045   5.846   2.779
 5298WAT     H216137   1.203   5.820   2.745
 5299WAT      O16138   9.380   9.334   5.390
 5299WAT     H116139   9.302   9.334   5.454
 5299WAT     H216140   9.414   9.240   5.380
 5300WAT      O16141   1.479   7.124   8.818
 5300WAT     H116142   1.432   7.205   8.782
 5300WAT     H216143   1.416   7.069   8.871
 5301WAT      O16144   9.311   9.541   3.284
 5301WAT     H116145   9.327   9.598   3.364
 5301WAT     H216146   9.310   9.445   3.311
 5302WAT      O16147   4.199   9.306   4.249
 5302WAT     H116148   4.204   9.336   4.154
 5302WAT     H216149   4.133   9.362   4.299
 5303WAT      O16150   3.214   6.080   3.567
 5303WAT     H116151   3.306   6.065   3.602
 5303WAT     H216152   3.183   5.999   3.517
 5304WAT      O16153   7.784   6.013   2.347
 5304WAT     H116154   7.817   5.963   2.266
 5304WAT     H216155   7.747   5.948   2.413
 5305WAT      O16156   4.766   5.253   8.915
 5305WAT     H116157   4.769   5.255   9.014
 5305WAT     H216158   4.746   5.159   8.884
 5306WAT      O16159   4.193   7.399   5.701
 5306WAT     H116160   4.126   7.325   5.701
 5306WAT     H216161   4.269   7.375   5.762
 5307WAT      O16162   7.070   0.411   1.391
 5307WAT     H116163   7.134   0.398   1.467
 5307WAT     H216164   7.117   0.396   1.304
 5308WAT      O16165   3.502   6.585   3.070
 5308WAT     H116166   3.532   6.680   3.061
 5308WAT     H216167   3.578   6.529   3.101
 5309WAT      O16168   8.821   5.054   9.146
 5309WAT     H116169   8.833   5.090   9.053
 5309WAT     H216170   8.746   4.988   9.147
 5310WAT      O16171   3.872   9.614   9.799
 5310WAT     H116172   3.879   9.542   9.730
 5310WAT     H216173   3.791   9.670   9.781
 5311WAT      O16174   0.408   0.267   5.996
 5311WAT     H116175   0.446   0.255   6.088
 5311WAT     H216176   0.326   0.324   6.001
 5312WAT      O16177   5.030   1.399   8.663
 5312WAT     H116178   4.990   1.470   8.720
 5312WAT     H216179   5.074   1.331   8.722
 5313WAT      O16180   1.217   2.020   0.136
 5313WAT     H116181   1.156   2.075   0.080
 5313WAT     H216182   1.185   2.019   0.231
 5314WAT      O16183   0.998   0.775   9.844
 5314WAT     H116184   0.914   0.823   9.818
 5314WAT     H216185   1.004   0.768   9.943
 5315WAT      O16186   9.186   6.265   7.431
 5315WAT     H116187   9.087   6.260   7.443
 5315WAT     H216188   9.211   6.355   7.396
 5316WAT      O16189   4.748   7.116   6.738
 5316WAT     H116190   4.696   7.201   6.745
 5316WAT     H216191   4.816   7.124   6.666
 5317WAT      O16192   2.919   2.395   2.352
 5317WAT     H116193   2.846   2.458   2.381
 5317WAT     H216194   2.896   2.355   2.264
 5318WAT      O16195   7.595   8.900   0.078
 5318WAT     H116196   7.530   8.975   0.060
 5318WAT     H216197   7.587   8.873   0.175
 5319WAT      O16198   5.395   8.647   6.196
 5319WAT     H116199   5.354   8.704   6.267
 5319WAT     H216200   5.364   8.552   6.207
 5320WAT      O16201   6.107   3.905   7.528
 5320WAT     H116202   6.015   3.866   7.524
 5320WAT     H216203   6.142   3.917   7.435
 5321WAT      O16204   7.536   2.029   1.569
 5321WAT     H116205   7.621   2.081   1.568
 5321WAT     H216206   7.545   1.951   1.631
 5322WAT      O16207   5.452   5.948   0.385
 5322WAT     H116208   5.550   5.967   0.388
 5322WAT     H216209   5.422   5.941   0.290
 5323WAT      O16210   3.678   7.582   1.435
 5323WAT     H116211   3.603   7.569   1.371
 5323WAT     H216212   3.765   7.583   1.384
 5324WAT      O16213   8.802   1.944   7.431
 5324WAT     H116214   8.854   1.869   7.472
 5324WAT     H216215   8.854   2.029   7.440
 5325WAT      O16216   4.496   8.013   0.886
 5325WAT     H116217   4.444   8.091   0.850
 5325WAT     H216218   4.528   7.956   0.810
 5326WAT      O16219   9.687   8.137   6.802
 5326WAT     H116220   9.596   8.096   6.804
 5326WAT     H216221   9.682   8.227   6.758
 5327WAT      O16222   4.777   6.785   8.510
 5327WAT     H116223   4.846   6.851   8.481
 5327WAT     H216224   4.821   6.704   8.549
 5328WAT      O16225   7.013   7.116   5.746
 5328WAT     H116226   7.041   7.114   5.650
 5328WAT     H216227   6.914   7.101   5.752
 5329WAT      O16228   5.184   8.276   6.637
 5329WAT     H116229   5.104   8.276   6.698
 5329WAT     H216230   5.216   8.182   6.625
 5330WAT      O16231   1.468   1.889   0.024
 5330WAT     H116232   1.459   1.831  -0.058
 5330WAT     H216233   1.378   1.926   0.048
 5331WAT      O16234   0.080   0.066   0.987
 5331WAT     H116235   0.122   0.032   0.903
 5331WAT     H216236   0.147   0.062   1.061
 5332WAT      O16237   1.146   9.498   6.384
 5332WAT     H116238   1.146   9.569   6.456
 5332WAT     H216239   1.069   9.513   6.322
 5333WAT      O16240   7.155   5.301   4.060
 5333WAT     H116241   7.110   5.389   4.044
 5333WAT     H216242   7.148   5.245   3.977
 5334WAT      O16243   7.691   5.859   6.818
 5334WAT     H116244   7.680   5.955   6.846
 5334WAT     H216245   7.773   5.850   6.762
 5335WAT      O16246   5.534   5.164   6.230
 5335WAT     H116247   5.458   5.210   6.275
 5335WAT     H216248   5.501   5.117   6.147
 5336WAT      O16249   9.062   2.089   7.409
 5336WAT     H116250   9.096   2.164   7.466
 5336WAT     H216251   9.136   2.024   7.392
 5337WAT      O16252   0.881   8.213   0.760
 5337WAT     H116253   0.950   8.170   0.701
 5337WAT     H216254   0.830   8.281   0.707
 5338WAT      O16255   3.584   7.740   9.344
 5338WAT     H116256   3.590   7.641   9.337
 5338WAT     H216257   3.524   7.776   9.272
 5339WAT      O16258   7.768   5.262   7.149
 5339WAT     H116259   7.838   5.203   7.187
 5339WAT     H216260   7.768   5.255   7.050
 5340WAT      O16261   3.120   0.176   3.091
 5340WAT     H116262   3.151   0.096   3.142
 5340WAT     H216263   3.150   0.259   3.139
 5341WAT      O16264   5.140   6.592   5.353
 5341WAT     H116265   5.163   6.687   5.375
 5341WAT     H216266   5.050   6.571   5.389
 5342WAT      O16267   4.354   5.633   9.275
 5342WAT     H116268   4.449   5.619   9.246
 5342WAT     H216269   4.349   5.713   9.335
 5343WAT      O16270   5.938   7.738   1.213
 5343WAT     H116271   5.937   7.665   1.281
 5343WAT     H216272   6.033   7.765   1.195
 5344WAT      O16273   0.486   5.206   9.646
 5344WAT     H116274   0.408   5.144   9.657
 5344WAT     H216275   0.550   5.192   9.721
 5345WAT      O16276   3.810   3.983   4.873
 5345WAT     H116277   3.901   3.961   4.908
 5345WAT     H216278   3.787   4.077   4.897
 5346WAT      O16279   3.211   4.331   1.611
 5346WAT     H116280   3.245   4.263   1.546
 5346WAT     H216281   3.279   4.345   1.683
 5347WAT      O16282   4.698   9.640   3.885
 5347WAT     H116283   4.610   9.618   3.929
 5347WAT     H216284   4.748   9.555   3.867
 5348WAT      O16285   5.123   2.612   5.745
 5348WAT     H116286   5.129   2.515   5.723
 5348WAT     H216287   5.203   2.660   5.709
 5349WAT      O16288   9.115   3.375   1.578
 5349WAT     H116289   9.041   3.397   1.514
 5349WAT     H216290   9.079   3.321   1.654
 5350WAT      O16291   7.101   5.319   3.248
 5350WAT     H116292   7.081   5.370   3.331
 5350WAT     H216293   7.105   5.221   3.269
 5351WAT      O16294   8.174   5.546   8.285
 5351WAT     H116295   8.095   5.494   8.319
 5351WAT     H216296   8.223   5.585   8.363
 5352WAT      O16297   8.981   1.344   4.835
 5352WAT     H116298   9.031   1.331   4.921
 5352WAT     H216299   8.908   1.412   4.849
 5353WAT      O16300   2.184   7.733   1.437
 5353WAT     H116301   2.149   7.702   1.348
 5353WAT     H216302   2.108   7.766   1.493
 5354WAT      O16303   2.946   8.343   6.794
 5354WAT     H116304   2.949   8.436   6.756
 5354WAT     H216305   2.981   8.278   6.727
 5355WAT      O16306   1.856   1.969   3.197
 5355WAT     H116307   1.841   1.876   3.165
 5355WAT     H216308   1.773   2.005   3.239
 5356WAT      O16309   7.544   5.545   4.975
 5356WAT     H116310   7.453   5.543   4.934
 5356WAT     H216311   7.542   5.499   5.063
 5357WAT      O16312   7.065   7.707   3.594
 5357WAT     H116313   7.115   7.791   3.616
 5357WAT     H216314   6.967   7.722   3.609
 5358WAT      O16315   9.011   3.754   0.497
 5358WAT     H116316   9.063   3.834   0.528
 5358WAT     H216317   8.914   3.777   0.494
 5359WAT      O16318   3.658   5.497   7.566
 5359WAT     H116319   3.735   5.559   7.552
 5359WAT     H216320   3.573   5.549   7.570
 5360WAT      O16321   8.739   1.491   4.976
 5360WAT     H116322   8.742   1.410   5.035
 5360WAT     H216323   8.742   1.573   5.033
 5361WAT      O16324   7.326   6.393   8.762
 5361WAT     H116325   7.339   6.481   8.807
 5361WAT     H216326   7.347   6.401   8.664
 5362WAT      O16327   1.086   7.005   5.262
 5362WAT     H116328   1.072   6.949   5.344
 5362WAT     H216329   1.170   6.976   5.217
 5363WAT      O16330   8.824   0.127   0.645
 5363WAT     H116331   8.772   0.055   0.599
 5363WAT     H216332   8.769   0.210   0.651
 5364WAT      O16333   0.769   8.374   7.097
 5364WAT     H116334   0.723   8.286   7.107
 5364WAT     H216335   0.702   8.448   7.107
 5365WAT      O16336   0.815   7.910   5.447
 5365WAT     H116337   0.735   7.854   5.423
 5365WAT     H216338   0.890   7.850   5.476
 5366WAT      O16339   7.779   2.911   8.811
 5366WAT     H116340   7.792   2.957   8.723
 5366WAT     H216341   7.751   2.816   8.795
 5367WAT      O16342   3.411   5.264   5.175
 5367WAT     H116343   3.356   5.225   5.249
 5367WAT     H216344   3.461   5.343   5.208
 5368WAT      O16345   7.122   3.139   7.019
 5368WAT     H116346   7.024   3.156   7.019
 5368WAT     H216347   7.160   3.162   7.109
 5369WAT      O16348   5.889   1.997   9.751
 5369WAT     H116349   5.979   2.039   9.766
 5369WAT     H216350   5.887   1.906   9.792
 5370WAT      O16351   0.722   8.698   2.882
 5370WAT     H116352   0.631   8.722   2.917
 5370WAT     H216353   0.747   8.762   2.809
 5371WAT      O16354   0.721   5.648   4.966
 5371WAT     H116355   0.759   5.599   5.045
 5371WAT     H216356   0.747   5.601   4.882
 5372WAT      O16357   4.761   4.269   6.690
 5372WAT     H116358   4.837   4.218   6.729
 5372WAT     H216359   4.793   4.324   6.613
 5373WAT      O16360   2.228   7.748   5.689
 5373WAT     H116361   2.203   7.842   5.669
 5373WAT     H216362   2.263   7.741   5.782
 5374WAT      O16363   2.642   5.877   3.291
 5374WAT     H116364   2.609   5.959   3.337
 5374WAT     H216365   2.687   5.817   3.357
 5375WAT      O16366   9.474   6.761   4.946
 5375WAT     H116367   9.487   6.664   4.928
 5375WAT     H216368   9.441   6.807   4.863
 5376WAT      O16369   0.506   5.209   8.249
 5376WAT     H116370   0.441   5.257   8.190
 5376WAT     H216371   0.586   5.267   8.263
 5377WAT      O16372   7.566   3.775   4.325
 5377WAT     H116373   7.556   3.714   4.404
 5377WAT     H216374   7.475   3.799   4.290
 5378WAT      O16375   9.857   1.049   1.620
 5378WAT     H116376   9.908   0.964   1.631
 5378WAT     H216377   9.820   1.078   1.708
 5379WAT      O16378   4.823   3.971   6.527
 5379WAT     H116379   4.850   4.003   6.437
 5379WAT     H216380   4.724   3.953   6.528
 5380WAT      O16381   4.801   2.017   8.286
 5380WAT     H116382   4.833   2.096   8.339
 5380WAT     H216383   4.734   2.047   8.218
 5381WAT      O16384   5.524   8.971   3.097
 5381WAT     H116385   5.457   9.013   3.036
 5381WAT     H216386   5.544   9.033   3.173
 5382WAT      O16387   2.592   0.998   3.378
 5382WAT     H116388   2.533   0.942   3.437
 5382WAT     H216389   2.567   0.983   3.283
 5383WAT      O16390   3.328   7.346   0.197
 5383WAT     H116391   3.295   7.440   0.185
 5383WAT     H216392   3.428   7.346   0.200
 5384WAT      O16393   5.714   5.706   8.822
 5384WAT     H116394   5.620   5.724   8.794
 5384WAT     H216395   5.716   5.637   8.894
 5385WAT      O16396   5.250   6.800   6.646
 5385WAT     H116397   5.309   6.816   6.566
 5385WAT     H216398   5.154   6.811   6.619
 5386WAT      O16399   0.525   6.749   2.776
 5386WAT     H116400   0.508   6.657   2.742
 5386WAT     H216401   0.618   6.777   2.751
 5387WAT      O16402   3.493   8.490   3.398
 5387WAT     H116403   3.461   8.566   3.342
 5387WAT     H216404   3.510   8.411   3.340
 5388WAT      O16405   1.157   2.270   6.502
 5388WAT     H116406   1.147   2.347   6.565
 5388WAT     H216407   1.106   2.191   6.538
 5389WAT      O16408   0.946   6.274   4.265
 5389WAT     H116409   0.884   6.342   4.225
 5389WAT     H216410   0.894   6.192   4.288
 5390WAT      O16411   1.272   5.435   9.111
 5390WAT     H116412   1.352   5.403   9.058
 5390WAT     H216413   1.278   5.534   9.123
 5391WAT      O16414   7.315   6.378   3.457
 5391WAT     H116415   7.406   6.418   3.444
 5391WAT     H216416   7.263   6.386   3.372
 5392WAT      O16417   8.400   4.004   0.072
 5392WAT     H116418   8.300   4.005   0.074
 5392WAT     H216419   8.436   4.074   0.134
 5393WAT      O16420   1.793   4.771   0.843
 5393WAT     H116421   1.871   4.713   0.819
 5393WAT     H216422   1.818   4.835   0.915
 5394WAT      O16423   8.318   5.749   9.551
 5394WAT     H116424   8.330   5.804   9.634
 5394WAT     H216425   8.255   5.796   9.489
 5395WAT      O16426   1.194   1.515   9.730
 5395WAT     H116427   1.279   1.474   9.698
 5395WAT     H216428   1.183   1.495   9.828
 5396WAT      O16429   9.548   7.488   7.091
 5396WAT     H116430   9.605   7.432   7.031
 5396WAT     H216431   9.545   7.447   7.182
 5397WAT      O16432   1.659   8.158   6.091
 5397WAT     H116433   1.666   8.059   6.086
 5397WAT     H216434   1.623   8.193   6.004
 5398WAT      O16435   9.185   5.809   4.165
 5398WAT     H116436   9.214   5.811   4.070
 5398WAT     H216437   9.266   5.815   4.224
 5399WAT      O16438   4.921   6.366   3.497
 5399WAT     H116439   4.854   6.306   3.541
 5399WAT     H216440   4.923   6.348   3.399
 5400WAT      O16441   2.551   2.596   7.402
 5400WAT     H116442   2.456   2.606   7.430
 5400WAT     H216443   2.561   2.615   7.305
 5401WAT      O16444   5.540   0.054   4.088
 5401WAT     H116445   5.490   0.019   4.167
 5401WAT     H216446   5.560  -0.020   4.025
 5402WAT      O16447   0.509   1.853   9.730
 5402WAT     H116448   0.440   1.834   9.660
 5402WAT     H216449   0.589   1.795   9.714
 5403WAT      O16450   3.490   3.053   9.233
 5403WAT     H116451   3.464   3.102   9.149
 5403WAT     H216452   3.409   3.039   9.289
 5404WAT      O16453   5.961   0.401   1.779
 5404WAT     H116454   6.019   0.441   1.709
 5404WAT     H216455   5.955   0.463   1.857
 5405WAT      O16456   5.581   6.581   0.744
 5405WAT     H116457   5.595   6.657   0.681
 5405WAT     H216458   5.611   6.608   0.836
 5406WAT      O16459   8.738   5.648   7.036
 5406WAT     H116460   8.706   5.575   6.976
 5406WAT     H216461   8.680   5.652   7.118
 5407WAT      O16462   9.207   5.647   1.259
 5407WAT     H116463   9.198   5.655   1.359
 5407WAT     H216464   9.116   5.640   1.218
 5408WAT      O16465   2.868   6.929   7.315
 5408WAT     H116466   2.958   6.909   7.278
 5408WAT     H216467   2.876   7.002   7.384
 5409WAT      O16468   6.357   0.921   0.094
 5409WAT     H116469   6.322   0.838   0.050
 5409WAT     H216470   6.380   0.988   0.025
 5410WAT      O16471   6.544   7.709   2.777
 5410WAT     H116472   6.519   7.620   2.739
 5410WAT     H216473   6.555   7.775   2.702
 5411WAT      O16474   1.212   9.059   3.195
 5411WAT     H116475   1.209   9.037   3.097
 5411WAT     H216476   1.119   9.071   3.230
 5412WAT      O16477   0.842   3.747   5.780
 5412WAT     H116478   0.871   3.820   5.718
 5412WAT     H216479   0.769   3.694   5.738
 5413WAT      O16480   6.970   1.261   2.835
 5413WAT     H116481   6.913   1.330   2.879
 5413WAT     H216482   6.975   1.280   2.737
 5414WAT      O16483   5.390   0.806   2.531
 5414WAT     H116484   5.316   0.744   2.556
 5414WAT     H216485   5.462   0.755   2.486
 5415WAT      O16486   5.610   9.294   0.546
 5415WAT     H116487   5.603   9.364   0.616
 5415WAT     H216488   5.613   9.204   0.589
 5416WAT      O16489   9.674   5.204   3.826
 5416WAT     H116490   9.754   5.196   3.886
 5416WAT     H216491   9.611   5.129   3.845
 5417WAT      O16492   2.602   7.446   1.930
 5417WAT     H116493   2.537   7.447   1.854
 5417WAT     H216494   2.678   7.384   1.909
 5418WAT      O16495   0.915   8.710   3.741
 5418WAT     H116496   0.868   8.624   3.762
 5418WAT     H216497   0.937   8.714   3.644
 5419WAT      O16498   3.954   2.827   1.341
 5419WAT     H116499   3.955   2.837   1.440
 5419WAT     H216500   4.040   2.863   1.303
 5420WAT      O16501   5.230   9.732   4.861
 5420WAT     H116502   5.295   9.800   4.896
 5420WAT     H216503   5.206   9.668   4.934
 5421WAT      O16504   4.370   0.736   6.142
 5421WAT     H116505   4.283   0.705   6.178
 5421WAT     H216506   4.369   0.835   6.133
 5422WAT      O16507   7.181   4.911   8.411
 5422WAT     H116508   7.146   4.945   8.324
 5422WAT     H216509   7.167   4.980   8.482
 5423WAT      O16510   7.745   0.139   0.174
 5423WAT     H116511   7.768   0.200   0.098
 5423WAT     H216512   7.649   0.153   0.199
 5424WAT      O16513   2.771   0.101   1.853
 5424WAT     H116514   2.825   0.063   1.929
 5424WAT     H216515   2.673   0.087   1.872
 5425WAT      O16516   5.479   3.884   2.370
 5425WAT     H116517   5.568   3.849   2.397
 5425WAT     H216518   5.422   3.808   2.337
 5426WAT      O16519   7.166   6.424   7.230
 5426WAT     H116520   7.227   6.392   7.302
 5426WAT     H216521   7.089   6.473   7.270
 5427WAT      O16522   4.671   5.243   9.554
 5427WAT     H116523   4.684   5.225   9.457
 5427WAT     H216524   4.655   5.341   9.568
 5428WAT      O16525   8.472   7.811   1.113
 5428WAT     H116526   8.399   7.743   1.111
 5428WAT     H216527   8.468   7.862   1.199
 5429WAT      O16528   7.545   7.416   8.257
 5429WAT     H116529   7.611   7.414   8.333
 5429WAT     H216530   7.462   7.368   8.284
 5430WAT      O16531   0.252   3.383   6.381
 5430WAT     H116532   0.164   3.407   6.339
 5430WAT     H216533   0.253   3.414   6.476
 5431WAT      O16534   5.907   4.391   4.881
 5431WAT     H116535   5.939   4.481   4.851
 5431WAT     H216536   5.813   4.377   4.848
 5432WAT      O16537   3.324   2.005   7.123
 5432WAT     H116538   3.377   1.955   7.192
 5432WAT     H216539   3.230   1.971   7.122
 5433WAT      O16540   6.879   2.991   9.559
 5433WAT     H116541   6.939   3.069   9.579
 5433WAT     H216542   6.811   2.982   9.632
 5434WAT      O16543   5.642   8.447   1.330
 5434WAT     H116544   5.660   8.390   1.410
 5434WAT     H216545   5.715   8.515   1.321
 5435WAT      O16546   4.144   2.299   1.283
 5435WAT     H116547   4.231   2.250   1.272
 5435WAT     H216548   4.079   2.241   1.332
 5436WAT      O16549   0.186   8.480   0.375
 5436WAT     H116550   0.163   8.577   0.379
 5436WAT     H216551   0.239   8.455   0.457
 5437WAT      O16552   2.568   3.148   1.902
 5437WAT     H116553   2.630   3.196   1.964
 5437WAT     H216554   2.507   3.089   1.955
 5438WAT      O16555   0.498   5.871   3.675
 5438WAT     H116556   0.442   5.911   3.746
 5438WAT     H216557   0.479   5.916   3.588
 5439WAT      O16558   8.317   1.409   4.620
 5439WAT     H116559   8.382   1.400   4.696
 5439WAT     H216560   8.356   1.469   4.550
 5440WAT      O16561   7.124   2.693   8.464
 5440WAT     H116562   7.119   2.771   8.402
 5440WAT     H216563   7.190   2.711   8.536
 5441WAT      O16564   7.360   0.221   1.988
 5441WAT     H116565   7.426   0.215   2.063
 5441WAT     H216566   7.270   0.193   2.021
 5442WAT      O16567   6.615   5.073   9.473
 5442WAT     H116568   6.692   5.024   9.513
 5442WAT     H216569   6.559   5.009   9.419
 5443WAT      O16570   7.247   6.561   7.832
 5443WAT     H116571   7.175   6.620   7.868
 5443WAT     H216572   7.267   6.589   7.737
 5444WAT      O16573   0.558   8.849   2.363
 5444WAT     H116574   0.478   8.849   2.423
 5444WAT     H216575   0.552   8.926   2.300
 5445WAT      O16576   9.742   2.474   5.339
 5445WAT     H116577   9.702   2.544   5.279
 5445WAT     H216578   9.798   2.411   5.285
 5446WAT      O16579   4.889   7.066   1.560
 5446WAT     H116580   4.979   7.026   1.545
 5446WAT     H216581   4.896   7.144   1.622
 5447WAT      O16582   4.938   0.536   9.075
 5447WAT     H116583   4.848   0.578   9.080
 5447WAT     H216584   4.933   0.454   9.017
 5448WAT      O16585   4.837   7.909   1.236
 5448WAT     H116586   4.856   7.830   1.294
 5448WAT     H216587   4.919   7.934   1.186
 5449WAT      O16588   1.598   6.060   3.241
 5449WAT     H116589   1.596   6.019   3.150
 5449WAT     H216590   1.654   6.003   3.301
 5450WAT      O16591   3.535   6.164   2.017
 5450WAT     H116592   3.469   6.106   2.063
 5450WAT     H216593   3.587   6.110   1.951
 5451WAT      O16594   2.966   2.158   4.968
 5451WAT     H116595   3.047   2.119   4.925
 5451WAT     H216596   2.911   2.206   4.900
 5452WAT      O16597   0.059   0.007   4.637
 5452WAT     H116598   0.016  -0.029   4.720
 5452WAT     H216599  -0.005   0.001   4.560
 5453WAT      O16600   6.518   8.570   7.798
 5453WAT     H116601   6.438   8.526   7.840
 5453WAT     H216602   6.593   8.504   7.793
 5454WAT      O16603   8.739   8.395   8.160
 5454WAT     H116604   8.806   8.465   8.185
 5454WAT     H216605   8.677   8.432   8.091
 5455WAT      O16606   6.364   3.446   5.449
 5455WAT     H116607   6.272   3.444   5.412
 5455WAT     H216608   6.387   3.538   5.479
 5456WAT      O16609   2.814   9.380   5.844
 5456WAT     H116610   2.725   9.384   5.888
 5456WAT     H216611   2.802   9.389   5.745
 5457WAT      O16612   6.852   8.103   3.190
 5457WAT     H116613   6.780   8.159   3.232
 5457WAT     H216614   6.858   8.125   3.093
 5458WAT      O16615   7.421   8.082   7.882
 5458WAT     H116616   7.498   8.032   7.921
 5458WAT     H216617   7.423   8.072   7.782
 5459WAT      O16618   0.049   6.077   4.749
 5459WAT     H116619  -0.042   6.083   4.709
 5459WAT     H216620   0.042   6.044   4.843
 5460WAT      O16621   8.706   2.716   4.129
 5460WAT     H116622   8.730   2.633   4.180
 5460WAT     H216623   8.628   2.760   4.173
 5461WAT      O16624   2.638   7.585   7.769
 5461WAT     H116625   2.730   7.591   7.731
 5461WAT     H216626   2.572   7.578   7.694
 5462WAT      O16627   8.910   0.831   1.144
 5462WAT     H116628   8.881   0.845   1.239
 5462WAT     H216629   8.859   0.894   1.085
 5463WAT      O16630   4.685   3.328   9.768
 5463WAT     H116631   4.703   3.284   9.856
 5463WAT     H216632   4.673   3.426   9.782
 5464WAT      O16633   5.809   7.116   3.883
 5464WAT     H116634   5.803   7.077   3.791
 5464WAT     H216635   5.884   7.182   3.887
 5465WAT      O16636   8.651   5.944   8.654
 5465WAT     H116637   8.664   6.043   8.658
 5465WAT     H216638   8.554   5.923   8.654
 5466WAT      O16639   2.284   4.136   6.564
 5466WAT     H116640   2.187   4.155   6.555
 5466WAT     H216641   2.322   4.108   6.476
 5467WAT      O16642   0.098   4.526   5.378
 5467WAT     H116643   0.133   4.619   5.391
 5467WAT     H216644   0.109   4.499   5.283
 5468WAT      O16645   6.581   4.828   7.356
 5468WAT     H116646   6.552   4.732   7.353
 5468WAT     H216647   6.550   4.875   7.274
 5469WAT      O16648   9.402   5.116   3.632
 5469WAT     H116649   9.366   5.206   3.654
 5469WAT     H216650   9.369   5.088   3.542
 5470WAT      O16651   3.452   0.066   3.506
 5470WAT     H116652   3.365   0.111   3.526
 5470WAT     H216653   3.463   0.058   3.407
 5471WAT      O16654   4.014   5.797   3.538
 5471WAT     H116655   4.052   5.867   3.478
 5471WAT     H216656   4.080   5.721   3.546
 5472WAT      O16657  -0.002   6.162   1.291
 5472WAT     H116658   0.075   6.115   1.335
 5472WAT     H216659   0.029   6.200   1.203
 5473WAT      O16660   6.195   3.037   0.798
 5473WAT     H116661   6.220   3.040   0.894
 5473WAT     H216662   6.199   3.129   0.759
 5474WAT      O16663   8.656   0.550   0.312
 5474WAT     H116664   8.641   0.564   0.214
 5474WAT     H216665   8.616   0.463   0.339
 5475WAT      O16666   9.488   2.437   7.534
 5475WAT     H116667   9.566   2.450   7.594
 5475WAT     H216668   9.487   2.509   7.464
 5476WAT      O16669   7.666   5.508   1.264
 5476WAT     H116670   7.682   5.553   1.177
 5476WAT     H216671   7.748   5.513   1.320
 5477WAT      O16672   2.154   7.774   8.212
 5477WAT     H116673   2.135   7.773   8.114
 5477WAT     H216674   2.070   7.795   8.262
 5478WAT      O16675   9.237   9.104   5.144
 5478WAT     H116676   9.159   9.053   5.109
 5478WAT     H216677   9.205   9.177   5.205
 5479WAT      O16678   9.601   4.065   0.242
 5479WAT     H116679   9.688   4.095   0.281
 5479WAT     H216680   9.615   3.979   0.193
 5480WAT      O16681   8.573   9.380   3.556
 5480WAT     H116682   8.609   9.296   3.596
 5480WAT     H216683   8.509   9.423   3.620
 5481WAT      O16684   6.641   6.089   1.272
 5481WAT     H116685   6.565   6.129   1.324
 5481WAT     H216686   6.717   6.070   1.334
 5482WAT      O16687   7.939   8.089   3.489
 5482WAT     H116688   7.866   8.094   3.557
 5482WAT     H216689   8.027   8.100   3.534
 5483WAT      O16690   4.923   1.221   9.548
 5483WAT     H116691   4.980   1.245   9.470
 5483WAT     H216692   4.869   1.301   9.576
 5484WAT      O16693   9.019   8.809   0.225
 5484WAT     H116694   8.952   8.762   0.283
 5484WAT     H216695   9.022   8.906   0.248
 5485WAT      O16696   2.836   6.346   2.844
 5485WAT     H116697   2.841   6.439   2.808
 5485WAT     H216698   2.876   6.344   2.936
 5486WAT      O16699   9.141   8.259   5.574
 5486WAT     H116700   9.124   8.165   5.546
 5486WAT     H216701   9.126   8.320   5.496
 5487WAT      O16702   0.014   9.139   1.257
 5487WAT     H116703  -0.080   9.151   1.228
 5487WAT     H216704   0.017   9.084   1.341
 5488WAT      O16705   2.094   3.860   1.481
 5488WAT     H116706   2.005   3.815   1.475
 5488WAT     H216707   2.131   3.872   1.389
 5489WAT      O16708   9.758   7.459   4.559
 5489WAT     H116709   9.794   7.523   4.492
 5489WAT     H216710   9.658   7.469   4.565
 5490WAT      O16711   2.961   6.268   2.291
 5490WAT     H116712   2.986   6.261   2.388
 5490WAT     H216713   2.983   6.360   2.258
 5491WAT      O16714   2.308   0.364   3.062
 5491WAT     H116715   2.378   0.398   3.000
 5491WAT     H216716   2.322   0.402   3.153
 5492WAT      O16717   4.652   1.634   6.003
 5492WAT     H116718   4.631   1.575   5.925
 5492WAT     H216719   4.582   1.705   6.012
 5493WAT      O16720   1.871   3.559   7.112
 5493WAT     H116721   1.846   3.654   7.130
 5493WAT     H216722   1.796   3.499   7.141
 5494WAT      O16723   4.088   2.743   4.066
 5494WAT     H116724   3.998   2.749   4.023
 5494WAT     H216725   4.077   2.722   4.163
 5495WAT      O16726   5.163   3.613   6.850
 5495WAT     H116727   5.203   3.666   6.925
 5495WAT     H216728   5.064   3.626   6.851
 5496WAT      O16729   5.236   8.373   1.073
 5496WAT     H116730   5.295   8.376   1.154
 5496WAT     H216731   5.143   8.348   1.100
 5497WAT      O16732   1.684   6.493   4.668
 5497WAT     H116733   1.614   6.436   4.710
 5497WAT     H216734   1.713   6.563   4.732
 5498WAT      O16735   4.079   7.991   9.495
 5498WAT     H116736   4.124   7.903   9.505
 5498WAT     H216737   3.984   7.977   9.468
 5499WAT      O16738   1.732   1.056   9.069
 5499WAT     H116739   1.803   1.117   9.034
 5499WAT     H216740   1.704   1.086   9.160
 5500WAT      O16741   5.682   9.286   6.280
 5500WAT     H116742   5.707   9.278   6.376
 5500WAT     H216743   5.683   9.195   6.238
 5501WAT      O16744   7.265   7.738   2.166
 5501WAT     H116745   7.232   7.744   2.261
 5501WAT     H216746   7.365   7.742   2.166
 5502WAT      O16747   5.638   9.255   5.784
 5502WAT     H116748   5.716   9.204   5.748
 5502WAT     H216749   5.666   9.349   5.801
 5503WAT      O16750   0.835   9.389   1.175
 5503WAT     H116751   0.915   9.352   1.222
 5503WAT     H216752   0.843   9.371   1.077
 5504WAT      O16753   0.311   9.488   0.890
 5504WAT     H116754   0.380   9.537   0.944
 5504WAT     H216755   0.266   9.420   0.948
 5505WAT      O16756   7.183   4.720   4.145
 5505WAT     H116757   7.104   4.711   4.084
 5505WAT     H216758   7.248   4.647   4.126
 5506WAT      O16759   8.840   8.219   4.063
 5506WAT     H116760   8.765   8.281   4.086
 5506WAT     H216761   8.906   8.217   4.139
 5507WAT      O16762   0.163   1.785   2.646
 5507WAT     H116763   0.220   1.705   2.628
 5507WAT     H216764   0.090   1.790   2.578
 5508WAT      O16765   1.127   5.536   7.643
 5508WAT     H116766   1.101   5.630   7.664
 5508WAT     H216767   1.055   5.474   7.673
 5509WAT      O16768   4.822   5.772   9.892
 5509WAT     H116769   4.733   5.816   9.878
 5509WAT     H216770   4.894   5.835   9.866
 5510WAT      O16771   5.245   0.625   9.702
 5510WAT     H116772   5.262   0.618   9.604
 5510WAT     H216773   5.152   0.595   9.722
 5511WAT      O16774   4.721   4.296   2.274
 5511WAT     H116775   4.644   4.313   2.212
 5511WAT     H216776   4.692   4.233   2.347
 5512WAT      O16777   6.589   7.730   8.848
 5512WAT     H116778   6.616   7.811   8.899
 5512WAT     H216779   6.491   7.730   8.832
 5513WAT      O16780   4.392   4.826   6.521
 5513WAT     H116781   4.437   4.742   6.552
 5513WAT     H216782   4.452   4.904   6.539
 5514WAT      O16783   8.593   0.166   4.892
 5514WAT     H116784   8.657   0.224   4.942
 5514WAT     H216785   8.557   0.216   4.813
 5515WAT      O16786   4.200   9.111   1.181
 5515WAT     H116787   4.298   9.093   1.172
 5515WAT     H216788   4.181   9.205   1.151
 5516WAT      O16789   2.404   9.575   9.074
 5516WAT     H116790   2.333   9.561   9.006
 5516WAT     H216791   2.363   9.583   9.165
 5517WAT      O16792   2.204   0.382   4.640
 5517WAT     H116793   2.240   0.472   4.614
 5517WAT     H216794   2.106   0.379   4.620
 5518WAT      O16795   5.606   8.209   7.408
 5518WAT     H116796   5.527   8.175   7.358
 5518WAT     H216797   5.579   8.287   7.465
 5519WAT      O16798   5.030   2.291   7.511
 5519WAT     H116799   5.124   2.307   7.540
 5519WAT     H216800   5.016   2.331   7.420
 5520WAT      O16801   3.046   9.203   6.836
 5520WAT     H116802   2.946   9.202   6.841
 5520WAT     H216803   3.082   9.260   6.910
 5521WAT      O16804   1.350   6.982   5.679
 5521WAT     H116805   1.271   7.040   5.660
 5521WAT     H216806   1.397   6.962   5.593
 5522WAT      O16807   1.568   1.204   6.843
 5522WAT     H116808   1.514   1.287   6.828
 5522WAT     H216809   1.603   1.172   6.755
 5523WAT      O16810   6.786   7.290   5.290
 5523WAT     H116811   6.716   7.315   5.223
 5523WAT     H216812   6.745   7.290   5.382
 5524WAT      O16813   3.889   5.880   1.351
 5524WAT     H116814   3.933   5.932   1.277
 5524WAT     H216815   3.940   5.894   1.436
 5525WAT      O16816   8.571   5.562   4.441
 5525WAT     H116817   8.601   5.547   4.347
 5525WAT     H216818   8.542   5.475   4.481
 5526WAT      O16819   8.594   7.314   6.289
 5526WAT     H116820   8.565   7.331   6.384
 5526WAT     H216821   8.688   7.346   6.278
 5527WAT      O16822   3.704   9.069   6.596
 5527WAT     H116823   3.763   9.043   6.672
 5527WAT     H216824   3.706   8.998   6.526
 5528WAT      O16825   9.644   7.085   5.462
 5528WAT     H116826   9.548   7.088   5.436
 5528WAT     H216827   9.651   7.080   5.562
 5529WAT      O16828   6.037   8.696   5.570
 5529WAT     H116829   6.005   8.615   5.521
 5529WAT     H216830   6.126   8.677   5.611
 5530WAT      O16831   0.628   4.110   6.121
 5530WAT     H116832   0.673   4.196   6.144
 5530WAT     H216833   0.637   4.045   6.197
 5531WAT      O16834   8.071   0.269   2.140
 5531WAT     H116835   8.005   0.258   2.215
 5531WAT     H216836   8.088   0.366   2.124
 5532WAT      O16837   9.557   7.444   3.619
 5532WAT     H116838   9.495   7.407   3.688
 5532WAT     H216839   9.576   7.375   3.550
 5533WAT      O16840   2.821   0.077   6.161
 5533WAT     H116841   2.735   0.045   6.200
 5533WAT     H216842   2.822   0.177   6.160
 5534WAT      O16843   1.159   0.455   7.780
 5534WAT     H116844   1.110   0.369   7.771
 5534WAT     H216845   1.157   0.504   7.693
 5535WAT      O16846   9.297   1.394   5.646
 5535WAT     H116847   9.246   1.441   5.718
 5535WAT     H216848   9.390   1.375   5.678
 5536WAT      O16849   0.282   5.057   4.743
 5536WAT     H116850   0.268   5.131   4.677
 5536WAT     H216851   0.362   5.078   4.800
 5537WAT      O16852   8.358   7.603   8.635
 5537WAT     H116853   8.456   7.592   8.619
 5537WAT     H216854   8.326   7.688   8.593
 5538WAT      O16855   1.388   5.126   3.127
 5538WAT     H116856   1.476   5.101   3.087
 5538WAT     H216857   1.385   5.225   3.141
 5539WAT      O16858   2.094   7.782   3.662
 5539WAT     H116859   2.102   7.776   3.761
 5539WAT     H216860   2.053   7.698   3.626
 5540WAT      O16861   7.082   5.693   7.993
 5540WAT     H116862   7.114   5.656   8.080
 5540WAT     H216863   6.997   5.744   8.008
 5541WAT      O16864   0.788   3.397   3.780
 5541WAT     H116865   0.796   3.497   3.782
 5541WAT     H216866   0.840   3.358   3.857
 5542WAT      O16867   7.314   4.372   3.489
 5542WAT     H116868   7.258   4.451   3.463
 5542WAT     H216869   7.254   4.295   3.511
 5543WAT      O16870   8.362   4.124   3.111
 5543WAT     H116871   8.432   4.057   3.087
 5543WAT     H216872   8.318   4.097   3.196
 5544WAT      O16873   8.843   3.110   2.276
 5544WAT     H116874   8.896   3.194   2.285
 5544WAT     H216875   8.762   3.127   2.219
 5545WAT      O16876   7.942   2.441   2.861
 5545WAT     H116877   7.873   2.510   2.839
 5545WAT     H216878   8.029   2.467   2.819
 5546WAT      O16879   9.029   7.582   7.323
 5546WAT     H116880   8.965   7.514   7.357
 5546WAT     H216881   9.005   7.672   7.360
 5547WAT      O16882   8.163   4.107   3.757
 5547WAT     H116883   8.133   4.128   3.664
 5547WAT     H216884   8.095   4.141   3.823
 5548WAT      O16885   6.125   1.046   1.907
 5548WAT     H116886   6.064   1.031   1.985
 5548WAT     H216887   6.087   1.116   1.847
 5549WAT      O16888   4.510   0.075   3.102
 5549WAT     H116889   4.602   0.089   3.065
 5549WAT     H216890   4.479  -0.017   3.078
 5550WAT      O16891   6.751   6.769   5.478
 5550WAT     H116892   6.677   6.808   5.423
 5550WAT     H216893   6.800   6.700   5.424
 5551WAT      O16894   9.576   5.458   4.964
 5551WAT     H116895   9.561   5.544   4.915
 5551WAT     H216896   9.611   5.389   4.900
 5552WAT      O16897   0.503   0.956   3.873
 5552WAT     H116898   0.526   0.951   3.775
 5552WAT     H216899   0.468   1.047   3.895
 5553WAT      O16900   7.089   1.416   3.571
 5553WAT     H116901   7.163   1.353   3.594
 5553WAT     H216902   7.001   1.372   3.587
 5554WAT      O16903   8.538   0.318   6.126
 5554WAT     H116904   8.519   0.298   6.222
 5554WAT     H216905   8.630   0.355   6.117
 5555WAT      O16906   2.890   2.333   0.469
 5555WAT     H116907   2.975   2.301   0.510
 5555WAT     H216908   2.851   2.405   0.527
 5556WAT      O16909   6.943   6.287   3.627
 5556WAT     H116910   6.843   6.284   3.616
 5556WAT     H216911   6.966   6.276   3.724
 5557WAT      O16912   1.675   0.228   2.107
 5557WAT     H116913   1.770   0.257   2.105
 5557WAT     H216914   1.668   0.138   2.150
 5558WAT      O16915   5.855   0.013   2.773
 5558WAT     H116916   5.889   0.050   2.859
 5558WAT     H216917   5.928   0.015   2.704
 5559WAT      O16918   5.989   2.408   1.756
 5559WAT     H116919   5.913   2.457   1.714
 5559WAT     H216920   6.075   2.454   1.732
 5560WAT      O16921   6.472   6.580   7.785
 5560WAT     H116922   6.467   6.667   7.833
 5560WAT     H216923   6.492   6.506   7.849
 5561WAT      O16924   3.418   1.949   8.943
 5561WAT     H116925   3.458   1.997   8.865
 5561WAT     H216926   3.347   1.887   8.912
 5562WAT      O16927   1.889   1.256   9.030
 5562WAT     H116928   1.950   1.325   9.068
 5562WAT     H216929   1.796   1.294   9.023
 5563WAT      O16930   3.291   4.249   6.483
 5563WAT     H116931   3.334   4.327   6.438
 5563WAT     H216932   3.191   4.257   6.475
 5564WAT      O16933   2.201   9.075   4.214
 5564WAT     H116934   2.161   9.098   4.125
 5564WAT     H216935   2.140   9.108   4.286
 5565WAT      O16936   6.675   7.793   8.304
 5565WAT     H116937   6.595   7.853   8.301
 5565WAT     H216938   6.679   7.739   8.220
 5566WAT      O16939   0.554   7.207   9.163
 5566WAT     H116940   0.638   7.153   9.159
 5566WAT     H216941   0.476   7.151   9.135
 5567WAT      O16942   9.069   8.912   7.086
 5567WAT     H116943   9.127   8.840   7.124
 5567WAT     H216944   9.043   8.976   7.159
 5568WAT      O16945   1.066   9.505   3.590
 5568WAT     H116946   1.157   9.472   3.613
 5568WAT     H216947   0.997   9.443   3.628
 5569WAT      O16948   8.903   8.233   3.169
 5569WAT     H116949   8.835   8.191   3.110
 5569WAT     H216950   8.859   8.296   3.233
 5570WAT      O16951   1.479   2.657   7.677
 5570WAT     H116952   1.543   2.589   7.712
 5570WAT     H216953   1.529   2.740   7.651
 5571WAT      O16954   2.536   3.789   6.076
 5571WAT     H116955   2.561   3.746   6.163
 5571WAT     H216956   2.475   3.729   6.025
 5572WAT      O16957   1.574   7.374   0.525
 5572WAT     H116958   1.504   7.422   0.577
 5572WAT     H216959   1.608   7.433   0.453
 5573WAT      O16960   0.777   9.699   8.948
 5573WAT     H116961   0.781   9.748   9.035
 5573WAT     H216962   0.690   9.652   8.940
 5574WAT      O16963   1.569   9.470   0.336
 5574WAT     H116964   1.486   9.527   0.336
 5574WAT     H216965   1.549   9.383   0.292
 5575WAT      O16966   2.599   9.565   6.103
 5575WAT     H116967   2.699   9.573   6.099
 5575WAT     H216968   2.572   9.543   6.197
 5576WAT      O16969   7.033   3.188   3.877
 5576WAT     H116970   7.065   3.261   3.936
 5576WAT     H216971   7.011   3.225   3.787
 5577WAT      O16972   3.417   6.747   1.642
 5577WAT     H116973   3.463   6.835   1.628
 5577WAT     H216974   3.480   6.683   1.686
 5578WAT      O16975   7.514   7.980   5.033
 5578WAT     H116976   7.440   8.048   5.045
 5578WAT     H216977   7.497   7.928   4.950
 5579WAT      O16978   6.490   2.933   4.305
 5579WAT     H116979   6.438   2.878   4.240
 5579WAT     H216980   6.440   2.939   4.392
 5580WAT      O16981   0.444   7.801   8.312
 5580WAT     H116982   0.388   7.863   8.257
 5580WAT     H216983   0.401   7.787   8.401
 5581WAT      O16984   0.918   4.219   0.624
 5581WAT     H116985   0.859   4.300   0.630
 5581WAT     H216986   1.013   4.249   0.611
 5582WAT      O16987   7.842   1.117   1.206
 5582WAT     H116988   7.863   1.066   1.122
 5582WAT     H216989   7.882   1.208   1.199
 5583WAT      O16990   3.268   1.939   9.646
 5583WAT     H116991   3.195   1.891   9.599
 5583WAT     H216992   3.315   2.000   9.582
 5584WAT      O16993   2.000   5.274   3.813
 5584WAT     H116994   1.917   5.306   3.767
 5584WAT     H216995   2.075   5.338   3.795
 5585WAT      O16996   0.527   4.948   4.066
 5585WAT     H116997   0.498   4.877   4.003
 5585WAT     H216998   0.594   5.007   4.022
 5586WAT      O16999   2.975   1.463   5.069
 5586WAT     H117000   2.895   1.424   5.022
 5586WAT     H217001   3.058   1.419   5.036
 5587WAT      O17002   3.863   5.840   0.184
 5587WAT     H117003   3.944   5.785   0.207
 5587WAT     H217004   3.804   5.788   0.122
 5588WAT      O17005   5.512   1.875   5.599
 5588WAT     H117006   5.502   1.877   5.499
 5588WAT     H217007   5.425   1.853   5.641
 5589WAT      O17008   3.359   1.403   9.761
 5589WAT     H117009   3.310   1.486   9.737
 5589WAT     H217010   3.328   1.371   9.851
 5590WAT      O17011   1.483   9.162   5.348
 5590WAT     H117012   1.575   9.138   5.318
 5590WAT     H217013   1.419   9.153   5.271
 5591WAT      O17014   1.129   4.727   2.960
 5591WAT     H117015   1.109   4.805   3.019
 5591WAT     H217016   1.219   4.689   2.983
 5592WAT      O17017   1.833   3.409   0.916
 5592WAT     H117018   1.777   3.362   0.849
 5592WAT     H217019   1.775   3.463   0.977
 5593WAT      O17020   1.834   1.475   3.408
 5593WAT     H117021   1.915   1.460   3.464
 5593WAT     H217022   1.860   1.475   3.311
 5594WAT      O17023   1.149   8.044   0.916
 5594WAT     H117024   1.114   8.128   0.958
 5594WAT     H217025   1.116   7.965   0.968
 5595WAT      O17026   1.222   1.176   8.479
 5595WAT     H117027   1.310   1.147   8.441
 5595WAT     H217028   1.157   1.193   8.405
 5596WAT      O17029   9.177   6.224   8.843
 5596WAT     H117030   9.214   6.155   8.905
 5596WAT     H217031   9.251   6.259   8.785
 5597WAT      O17032   5.252   8.981   1.961
 5597WAT     H117033   5.183   8.917   1.927
 5597WAT     H217034   5.322   8.995   1.891
 5598WAT      O17035   4.025   1.475   7.072
 5598WAT     H117036   3.961   1.502   7.144
 5598WAT     H217037   4.069   1.556   7.034
 5599WAT      O17038   5.147   1.575   0.922
 5599WAT     H117039   5.103   1.486   0.906
 5599WAT     H217040   5.115   1.612   1.010
 5600WAT      O17041   1.084   1.965   4.604
 5600WAT     H117042   1.015   1.904   4.643
 5600WAT     H217043   1.040   2.034   4.547
 5601WAT      O17044   2.876   2.462   7.608
 5601WAT     H117045   2.787   2.450   7.563
 5601WAT     H217046   2.931   2.528   7.557
 5602WAT      O17047   5.634   0.654   3.136
 5602WAT     H117048   5.549   0.688   3.096
 5602WAT     H217049   5.710   0.675   3.075
 5603WAT      O17050   9.788   2.144   3.026
 5603WAT     H117051   9.689   2.147   3.038
 5603WAT     H217052   9.822   2.236   3.004
 5604WAT      O17053   1.039   9.836   8.364
 5604WAT     H117054   1.058   9.887   8.447
 5604WAT     H217055   0.952   9.866   8.325
 5605WAT      O17056   8.110   7.894   8.763
 5605WAT     H117057   8.157   7.831   8.824
 5605WAT     H217058   8.105   7.855   8.671
 5606WAT      O17059   2.240   8.552   6.177
 5606WAT     H117060   2.204   8.466   6.143
 5606WAT     H217061   2.300   8.593   6.108
 5607WAT      O17062   4.750   1.985   3.662
 5607WAT     H117063   4.724   2.026   3.749
 5607WAT     H217064   4.679   2.002   3.594
 5608WAT      O17065   0.353   7.515   2.179
 5608WAT     H117066   0.442   7.553   2.155
 5608WAT     H217067   0.319   7.458   2.104
 5609WAT      O17068   4.878   9.798   5.655
 5609WAT     H117069   4.822   9.728   5.697
 5609WAT     H217070   4.927   9.760   5.577
 5610WAT      O17071   4.851   7.970   5.698
 5610WAT     H117072   4.944   8.002   5.681
 5610WAT     H217073   4.788   8.048   5.691
 5611WAT      O17074   4.298   9.513   0.704
 5611WAT     H117075   4.317   9.601   0.662
 5611WAT     H217076   4.319   9.517   0.802
 5612WAT      O17077   3.338   8.707   4.473
 5612WAT     H117078   3.287   8.686   4.556
 5612WAT     H217079   3.277   8.747   4.405
 5613WAT      O17080   1.083   1.266   3.507
 5613WAT     H117081   1.123   1.291   3.419
 5613WAT     H217082   1.143   1.295   3.581
 5614WAT      O17083   8.385   5.934   9.730
 5614WAT     H117084   8.434   5.920   9.816
 5614WAT     H217085   8.416   6.019   9.687
 5615WAT      O17086   8.103   8.301   7.053
 5615WAT     H117087   8.131   8.270   6.962
 5615WAT     H217088   8.147   8.387   7.075
 5616WAT      O17089   1.599   6.983   0.387
 5616WAT     H117090   1.517   7.030   0.420
 5616WAT     H217091   1.577   6.887   0.368
 5617WAT      O17092   2.443   8.760   2.529
 5617WAT     H117093   2.419   8.743   2.434
 5617WAT     H217094   2.451   8.859   2.544
 5618WAT      O17095   4.941   8.483   2.149
 5618WAT     H117096   4.904   8.393   2.175
 5618WAT     H217097   4.866   8.543   2.122
 5619WAT      O17098   2.929   5.116   2.960
 5619WAT     H117099   3.022   5.096   2.991
 5619WAT     H217100   2.872   5.035   2.971
 5620WAT      O17101   1.017   8.987   6.948
 5620WAT     H117102   0.961   9.029   7.018
 5620WAT     H217103   1.072   8.914   6.988
 5621WAT      O17104   6.085   6.130   0.268
 5621WAT     H117105   6.120   6.223   0.272
 5621WAT     H217106   6.106   6.083   0.354
 5622WAT      O17107   4.561   5.159   0.281
 5622WAT     H117108   4.535   5.129   0.189
 5622WAT     H217109   4.634   5.100   0.316
 5623WAT      O17110   6.028   2.493   2.217
 5623WAT     H117111   5.997   2.416   2.274
 5623WAT     H217112   6.092   2.459   2.148
 5624WAT      O17113   5.960   4.041   4.187
 5624WAT     H117114   5.902   4.118   4.213
 5624WAT     H217115   5.924   4.000   4.103
 5625WAT      O17116   8.759   0.110   3.720
 5625WAT     H117117   8.823   0.180   3.751
 5625WAT     H217118   8.794   0.020   3.746
 5626WAT      O17119   1.165   1.498   8.971
 5626WAT     H117120   1.201   1.435   8.902
 5626WAT     H217121   1.099   1.450   9.029
 5627WAT      O17122   1.467   5.500   6.698
 5627WAT     H117123   1.565   5.479   6.705
 5627WAT     H217124   1.439   5.553   6.778
 5628WAT      O17125   1.061   8.162   6.751
 5628WAT     H117126   1.080   8.102   6.829
 5628WAT     H217127   1.004   8.238   6.781
 5629WAT      O17128   7.643   5.993   0.393
 5629WAT     H117129   7.634   6.007   0.294
 5629WAT     H217130   7.654   5.895   0.412
 5630WAT      O17131   7.215   6.133   6.183
 5630WAT     H117132   7.285   6.090   6.125
 5630WAT     H217133   7.199   6.226   6.152
 5631WAT      O17134   3.895   0.640   8.630
 5631WAT     H117135   3.876   0.736   8.608
 5631WAT     H217136   3.809   0.594   8.654
 5632WAT      O17137   1.599   2.397   8.357
 5632WAT     H117138   1.580   2.313   8.408
 5632WAT     H217139   1.677   2.444   8.399
 5633WAT      O17140   3.956   0.540   6.764
 5633WAT     H117141   3.893   0.607   6.725
 5633WAT     H217142   4.034   0.588   6.804
 5634WAT      O17143   0.808   5.771   8.394
 5634WAT     H117144   0.833   5.743   8.486
 5634WAT     H217145   0.851   5.709   8.327
 5635WAT      O17146   4.241   9.054   7.262
 5635WAT     H117147   4.274   8.967   7.226
 5635WAT     H217148   4.283   9.129   7.211
 5636WAT      O17149   2.697   0.683   1.377
 5636WAT     H117150   2.728   0.589   1.361
 5636WAT     H217151   2.735   0.743   1.307
 5637WAT      O17152   2.092   5.220   2.920
 5637WAT     H117153   2.004   5.198   2.963
 5637WAT     H217154   2.117   5.314   2.941
 5638WAT      O17155   5.508   4.939   1.064
 5638WAT     H117156   5.422   4.984   1.089
 5638WAT     H217157   5.582   4.971   1.124
 5639WAT      O17158   1.025   5.198   4.212
 5639WAT     H117159   1.062   5.224   4.302
 5639WAT     H217160   0.965   5.119   4.222
 5640WAT      O17161   1.336   5.806   3.183
 5640WAT     H117162   1.244   5.845   3.195
 5640WAT     H217163   1.329   5.718   3.136
 5641WAT      O17164   0.946   9.781   3.699
 5641WAT     H117165   0.885   9.702   3.702
 5641WAT     H217166   0.949   9.818   3.606
 5642WAT      O17167   8.065   6.459   2.398
 5642WAT     H117168   8.043   6.364   2.420
 5642WAT     H217169   8.153   6.483   2.439
 5643WAT      O17170   7.065   7.952   2.362
 5643WAT     H117171   7.059   7.973   2.265
 5643WAT     H217172   7.135   8.009   2.405
 5644WAT      O17173   0.285   9.450   8.983
 5644WAT     H117174   0.295   9.418   9.077
 5644WAT     H217175   0.308   9.376   8.920
 5645WAT      O17176   1.985   4.910   8.127
 5645WAT     H117177   2.081   4.916   8.103
 5645WAT     H217178   1.968   4.960   8.212
 5646WAT      O17179   9.772   0.354   6.281
 5646WAT     H117180   9.831   0.385   6.207
 5646WAT     H217181   9.759   0.428   6.347
 5647WAT      O17182   9.744   5.183   7.941
 5647WAT     H117183   9.824   5.147   7.988
 5647WAT     H217184   9.710   5.115   7.876
 5648WAT      O17185   7.750   9.273   7.615
 5648WAT     H117186   7.763   9.358   7.563
 5648WAT     H217187   7.712   9.203   7.555
 5649WAT      O17188   7.714   8.195   9.409
 5649WAT     H117189   7.639   8.199   9.475
 5649WAT     H217190   7.762   8.282   9.407
 5650WAT      O17191   0.909   9.236   0.927
 5650WAT     H117192   0.888   9.175   0.850
 5650WAT     H217193   0.958   9.316   0.893
 5651WAT      O17194   9.518   9.802   3.199
 5651WAT     H117195   9.479   9.884   3.158
 5651WAT     H217196   9.489   9.721   3.147
 5652WAT      O17197   1.734   2.404   2.047
 5652WAT     H117198   1.668   2.332   2.065
 5652WAT     H217199   1.759   2.404   1.950
 5653WAT      O17200   1.586   1.158   5.092
 5653WAT     H117201   1.616   1.241   5.046
 5653WAT     H217202   1.644   1.140   5.171
 5654WAT      O17203   3.872   0.237   4.057
 5654WAT     H117204   3.927   0.231   4.140
 5654WAT     H217205   3.912   0.179   3.986
 5655WAT      O17206   9.485   7.733   3.362
 5655WAT     H117207   9.444   7.822   3.378
 5655WAT     H217208   9.560   7.742   3.296
 5656WAT      O17209   9.000   6.868   1.517
 5656WAT     H117210   9.018   6.870   1.418
 5656WAT     H217211   8.938   6.942   1.541
 5657WAT      O17212   7.824   7.882   1.725
 5657WAT     H117213   7.776   7.956   1.772
 5657WAT     H217214   7.911   7.864   1.771
 5658WAT      O17215   6.536   8.795   7.360
 5658WAT     H117216   6.630   8.831   7.360
 5658WAT     H217217   6.533   8.711   7.414
 5659WAT      O17218   7.906   9.654   9.309
 5659WAT     H117219   7.887   9.572   9.255
 5659WAT     H217220   7.960   9.718   9.254
 5660WAT      O17221   2.282   0.409   4.096
 5660WAT     H117222   2.238   0.497   4.113
 5660WAT     H217223   2.231   0.337   4.143
 5661WAT      O17224   6.264   4.207   1.586
 5661WAT     H117225   6.261   4.304   1.613
 5661WAT     H217226   6.290   4.201   1.489
 5662WAT      O17227   9.781   4.779   5.566
 5662WAT     H117228   9.770   4.679   5.565
 5662WAT     H217229   9.792   4.810   5.660
 5663WAT      O17230   5.751   4.115   3.053
 5663WAT     H117231   5.720   4.062   3.131
 5663WAT     H217232   5.791   4.053   2.985
 5664WAT      O17233   3.930   4.744   7.124
 5664WAT     H117234   4.027   4.770   7.127
 5664WAT     H217235   3.916   4.663   7.182
 5665WAT      O17236   4.833   8.027   8.840
 5665WAT     H117237   4.839   7.998   8.745
 5665WAT     H217238   4.835   8.127   8.845
 5666WAT      O17239   4.209   2.994   0.174
 5666WAT     H117240   4.217   2.998   0.273
 5666WAT     H217241   4.129   3.046   0.144
 5667WAT      O17242   0.315   2.144   0.665
 5667WAT     H117243   0.346   2.164   0.572
 5667WAT     H217244   0.328   2.224   0.723
 5668WAT      O17245   2.859   9.398   2.180
 5668WAT     H117246   2.786   9.459   2.211
 5668WAT     H217247   2.948   9.444   2.190
 5669WAT      O17248   2.033   1.512   5.104
 5669WAT     H117249   2.029   1.453   5.023
 5669WAT     H217250   1.940   1.526   5.140
 5670WAT      O17251   1.028   1.654   8.377
 5670WAT     H117252   1.049   1.570   8.328
 5670WAT     H217253   1.093   1.667   8.452
 5671WAT      O17254   0.394   9.453   6.436
 5671WAT     H117255   0.481   9.478   6.392
 5671WAT     H217256   0.318   9.477   6.376
 5672WAT      O17257   5.969   3.108   6.046
 5672WAT     H117258   6.033   3.034   6.027
 5672WAT     H217259   5.972   3.175   5.973
 5673WAT      O17260   2.236   4.185   7.662
 5673WAT     H117261   2.208   4.274   7.625
 5673WAT     H217262   2.174   4.114   7.628
 5674WAT      O17263   3.034   2.649   8.566
 5674WAT     H117264   2.949   2.691   8.533
 5674WAT     H217265   3.077   2.708   8.633
 5675WAT      O17266   4.052   9.442   5.474
 5675WAT     H117267   4.111   9.402   5.544
 5675WAT     H217268   3.982   9.499   5.518
 5676WAT      O17269   2.414   7.365   9.870
 5676WAT     H117270   2.387   7.270   9.887
 5676WAT     H217271   2.511   7.376   9.892
 5677WAT      O17272   6.442   1.101   8.536
 5677WAT     H117273   6.515   1.064   8.479
 5677WAT     H217274   6.385   1.163   8.482
 5678WAT      O17275   8.391   3.628   5.573
 5678WAT     H117276   8.480   3.671   5.587
 5678WAT     H217277   8.403   3.531   5.552
 5679WAT      O17278   4.174   2.390   5.946
 5679WAT     H117279   4.140   2.297   5.962
 5679WAT     H217280   4.160   2.414   5.850
 5680WAT      O17281   3.611   5.781   5.607
 5680WAT     H117282   3.679   5.789   5.535
 5680WAT     H217283   3.657   5.782   5.696
 5681WAT      O17284   2.322   8.725   4.625
 5681WAT     H117285   2.255   8.697   4.694
 5681WAT     H217286   2.276   8.742   4.538
 5682WAT      O17287   1.672   2.762   8.689
 5682WAT     H117288   1.761   2.806   8.700
 5682WAT     H217289   1.650   2.708   8.770
 5683WAT      O17290   7.673   7.436   9.794
 5683WAT     H117291   7.756   7.386   9.819
 5683WAT     H217292   7.678   7.529   9.828
 5684WAT      O17293   3.497   4.152   2.940
 5684WAT     H117294   3.420   4.180   2.997
 5684WAT     H217295   3.528   4.061   2.969
 5685WAT      O17296   4.603   7.751   5.327
 5685WAT     H117297   4.622   7.661   5.288
 5685WAT     H217298   4.688   7.793   5.358
 5686WAT      O17299   4.860   9.057   3.009
 5686WAT     H117300   4.855   9.064   2.909
 5686WAT     H217301   4.786   8.998   3.042
 5687WAT      O17302   1.984   8.614   8.417
 5687WAT     H117303   1.959   8.585   8.509
 5687WAT     H217304   2.038   8.542   8.374
 5688WAT      O17305   6.053   3.482   9.408
 5688WAT     H117306   5.987   3.544   9.368
 5688WAT     H217307   6.013   3.390   9.415
 5689WAT      O17308   1.113   6.610   5.906
 5689WAT     H117309   1.117   6.583   6.002
 5689WAT     H217310   1.019   6.635   5.882
 5690WAT      O17311   7.343   6.507   4.306
 5690WAT     H117312   7.419   6.460   4.262
 5690WAT     H217313   7.286   6.440   4.355
 5691WAT      O17314   0.302   1.314   7.659
 5691WAT     H117315   0.348   1.391   7.704
 5691WAT     H217316   0.206   1.311   7.688
 5692WAT      O17317   7.628   8.780   0.609
 5692WAT     H117318   7.597   8.845   0.679
 5692WAT     H217319   7.728   8.783   0.603
 5693WAT      O17320   9.211   2.446   0.739
 5693WAT     H117321   9.212   2.352   0.773
 5693WAT     H217322   9.119   2.468   0.706
 5694WAT      O17323   0.482   3.737   1.345
 5694WAT     H117324   0.386   3.711   1.352
 5694WAT     H217325   0.537   3.658   1.319
 5695WAT      O17326   1.818   0.803   7.815
 5695WAT     H117327   1.743   0.737   7.818
 5695WAT     H217328   1.831   0.835   7.721
 5696WAT      O17329   6.635   7.208   2.994
 5696WAT     H117330   6.624   7.108   2.991
 5696WAT     H217331   6.624   7.240   3.088
 5697WAT      O17332   8.950   9.502   4.090
 5697WAT     H117333   9.019   9.452   4.142
 5697WAT     H217334   8.932   9.453   4.004
 5698WAT      O17335   5.928   7.815   2.128
 5698WAT     H117336   6.024   7.820   2.158
 5698WAT     H217337   5.907   7.893   2.069
 5699WAT      O17338   1.981   4.554   8.556
 5699WAT     H117339   1.997   4.648   8.526
 5699WAT     H217340   1.891   4.547   8.597
 5700WAT      O17341   7.415   2.152   0.950
 5700WAT     H117342   7.424   2.231   1.011
 5700WAT     H217343   7.475   2.078   0.982
 5701WAT      O17344   2.700   8.088   2.046
 5701WAT     H117345   2.714   7.996   2.082
 5701WAT     H217346   2.648   8.142   2.113
 5702WAT      O17347   2.072   4.346   1.342
 5702WAT     H117348   2.068   4.431   1.290
 5702WAT     H217349   2.100   4.271   1.281
 5703WAT      O17350   7.355   7.051   3.219
 5703WAT     H117351   7.338   7.114   3.144
 5703WAT     H217352   7.269   7.035   3.269
 5704WAT      O17353   7.214   8.431   1.650
 5704WAT     H117354   7.156   8.469   1.722
 5704WAT     H217355   7.156   8.387   1.581
 5705WAT      O17356   8.937   1.428   4.291
 5705WAT     H117357   9.014   1.371   4.318
 5705WAT     H217358   8.947   1.454   4.195
 5706WAT      O17359   4.349   8.231   0.542
 5706WAT     H117360   4.257   8.193   0.556
 5706WAT     H217361   4.379   8.213   0.448
 5707WAT      O17362   4.026   5.805   5.379
 5707WAT     H117363   4.101   5.834   5.318
 5707WAT     H217364   4.060   5.738   5.444
 5708WAT      O17365   4.270   6.512   5.341
 5708WAT     H117366   4.259   6.475   5.433
 5708WAT     H217367   4.367   6.529   5.323
 5709WAT      O17368   5.540   1.379   7.923
 5709WAT     H117369   5.568   1.333   7.839
 5709WAT     H217370   5.521   1.476   7.903
 5710WAT      O17371   2.076   3.807   8.072
 5710WAT     H117372   1.980   3.780   8.084
 5710WAT     H217373   2.114   3.762   7.991
 5711WAT      O17374   6.653   4.875   0.295
 5711WAT     H117375   6.623   4.899   0.202
 5711WAT     H217376   6.580   4.898   0.360
 5712WAT      O17377   1.076   4.067   8.844
 5712WAT     H117378   1.101   4.004   8.918
 5712WAT     H217379   1.083   4.020   8.756
 5713WAT      O17380   9.169   4.777   0.094
 5713WAT     H117381   9.139   4.685   0.066
 5713WAT     H217382   9.089   4.832   0.117
 5714WAT      O17383   6.551   2.662   0.751
 5714WAT     H117384   6.546   2.603   0.831
 5714WAT     H217385   6.497   2.745   0.767
 5715WAT      O17386   9.189   8.184   9.799
 5715WAT     H117387   9.217   8.209   9.892
 5715WAT     H217388   9.254   8.117   9.762
 5716WAT      O17389   2.323   7.126   4.913
 5716WAT     H117390   2.293   7.165   4.826
 5716WAT     H217391   2.312   7.027   4.911
 5717WAT      O17392   7.798   0.798   8.101
 5717WAT     H117393   7.748   0.713   8.112
 5717WAT     H217394   7.854   0.793   8.018
 5718WAT      O17395   8.525   7.579   6.640
 5718WAT     H117396   8.614   7.624   6.641
 5718WAT     H217397   8.476   7.600   6.725
 5719WAT      O17398   3.401   5.656   5.019
 5719WAT     H117399   3.412   5.741   5.071
 5719WAT     H217400   3.456   5.584   5.062
 5720WAT      O17401   7.969   2.823   7.387
 5720WAT     H117402   8.016   2.848   7.303
 5720WAT     H217403   7.878   2.786   7.366
 5721WAT      O17404   5.675   3.955   7.566
 5721WAT     H117405   5.615   4.035   7.573
 5721WAT     H217406   5.666   3.915   7.475
 5722WAT      O17407   5.184   4.418   5.010
 5722WAT     H117408   5.269   4.440   4.963
 5722WAT     H217409   5.176   4.319   5.020
 5723WAT      O17410   9.492   2.002   5.172
 5723WAT     H117411   9.560   1.972   5.105
 5723WAT     H217412   9.446   1.922   5.211
 5724WAT      O17413   2.201   9.771   1.197
 5724WAT     H117414   2.126   9.736   1.141
 5724WAT     H217415   2.174   9.857   1.239
 5725WAT      O17416   3.198   8.786   5.713
 5725WAT     H117417   3.145   8.732   5.779
 5725WAT     H217418   3.171   8.760   5.620
 5726WAT      O17419   7.160   4.165   1.171
 5726WAT     H117420   7.169   4.067   1.192
 5726WAT     H217421   7.190   4.181   1.077
 5727WAT      O17422   9.075   6.742   8.503
 5727WAT     H117423   9.004   6.782   8.561
 5727WAT     H217424   9.057   6.645   8.490
 5728WAT      O17425   1.856   2.801   0.060
 5728WAT     H117426   1.938   2.771   0.011
 5728WAT     H217427   1.852   2.755   0.149
 5729WAT      O17428   9.205   9.436   1.878
 5729WAT     H117429   9.257   9.480   1.951
 5729WAT     H217430   9.122   9.394   1.916
 5730WAT      O17431   6.966   8.686   0.907
 5730WAT     H117432   7.020   8.770   0.895
 5730WAT     H217433   6.950   8.645   0.817
 5731WAT      O17434   7.066   8.041   6.579
 5731WAT     H117435   7.063   7.972   6.507
 5731WAT     H217436   6.994   8.108   6.564
 5732WAT      O17437   0.110   1.173   8.220
 5732WAT     H117438   0.166   1.226   8.156
 5732WAT     H217439   0.015   1.173   8.188
 5733WAT      O17440   9.707   1.541   3.015
 5733WAT     H117441   9.697   1.494   3.103
 5733WAT     H217442   9.801   1.529   2.982
 5734WAT      O17443   5.404   6.843   5.245
 5734WAT     H117444   5.468   6.782   5.292
 5734WAT     H217445   5.316   6.843   5.292
 5735WAT      O17446   1.819   0.862   7.039
 5735WAT     H117447   1.826   0.944   6.982
 5735WAT     H217448   1.881   0.871   7.117
 5736WAT      O17449   1.741   5.209   7.658
 5736WAT     H117450   1.742   5.272   7.736
 5736WAT     H217451   1.785   5.253   7.580
 5737WAT      O17452   0.298   6.447   1.146
 5737WAT     H117453   0.240   6.382   1.096
 5737WAT     H217454   0.374   6.475   1.088
 5738WAT      O17455   0.809   6.881   2.312
 5738WAT     H117456   0.884   6.820   2.340
 5738WAT     H217457   0.789   6.866   2.216
 5739WAT      O17458   2.984   8.188   0.721
 5739WAT     H117459   2.895   8.180   0.677
 5739WAT     H217460   3.037   8.261   0.677
 5740WAT      O17461   9.663   3.695   0.756
 5740WAT     H117462   9.719   3.706   0.838
 5740WAT     H217463   9.590   3.628   0.774
 5741WAT      O17464   0.557   6.287   1.224
 5741WAT     H117465   0.496   6.225   1.274
 5741WAT     H217466   0.595   6.355   1.287
 5742WAT      O17467   2.685   3.853   0.657
 5742WAT     H117468   2.754   3.872   0.727
 5742WAT     H217469   2.619   3.928   0.654
 5743WAT      O17470   6.919   0.926   0.341
 5743WAT     H117471   6.935   1.023   0.325
 5743WAT     H217472   6.867   0.887   0.265
 5744WAT      O17473   5.922   9.501   4.472
 5744WAT     H117474   5.922   9.599   4.454
 5744WAT     H217475   5.990   9.480   4.543
 5745WAT      O17476   2.879   9.421   1.450
 5745WAT     H117477   2.922   9.412   1.540
 5745WAT     H217478   2.809   9.351   1.439
 5746WAT      O17479   7.459   1.903   8.799
 5746WAT     H117480   7.459   1.857   8.887
 5746WAT     H217481   7.408   1.989   8.806
 5747WAT      O17482   4.114   1.609   2.179
 5747WAT     H117483   4.031   1.555   2.196
 5747WAT     H217484   4.138   1.660   2.262
 5748WAT      O17485   9.869   2.890   8.745
 5748WAT     H117486   9.953   2.943   8.757
 5748WAT     H217487   9.831   2.908   8.654
 5749WAT      O17488   3.456   2.417   1.490
 5749WAT     H117489   3.462   2.353   1.414
 5749WAT     H217490   3.523   2.392   1.560
 5750WAT      O17491   0.774   2.024   5.997
 5750WAT     H117492   0.805   1.930   5.985
 5750WAT     H217493   0.803   2.079   5.918
 5751WAT      O17494   8.996   6.060   3.428
 5751WAT     H117495   8.969   5.990   3.362
 5751WAT     H217496   9.054   6.019   3.498
 5752WAT      O17497   9.693   8.652   2.550
 5752WAT     H117498   9.645   8.568   2.574
 5752WAT     H217499   9.791   8.635   2.548
 5753WAT      O17500   4.500   8.719   1.941
 5753WAT     H117501   4.440   8.781   1.992
 5753WAT     H217502   4.455   8.691   1.856
 5754WAT      O17503   3.863   3.130   0.510
 5754WAT     H117504   3.769   3.097   0.504
 5754WAT     H217505   3.867   3.225   0.480
 5755WAT      O17506   1.061   0.919   7.256
 5755WAT     H117507   1.114   0.951   7.335
 5755WAT     H217508   1.124   0.897   7.181
 5756WAT      O17509   2.962   8.730   0.027
 5756WAT     H117510   2.942   8.643  -0.019
 5756WAT     H217511   2.948   8.805  -0.038
 5757WAT      O17512   8.171   1.615   2.419
 5757WAT     H117513   8.137   1.535   2.468
 5757WAT     H217514   8.173   1.596   2.321
 5758WAT      O17515   1.538   1.619   2.027
 5758WAT     H117516   1.442   1.598   2.047
 5758WAT     H217517   1.548   1.717   2.013
 5759WAT      O17518   2.539   3.789   4.208
 5759WAT     H117519   2.485   3.708   4.231
 5759WAT     H217520   2.506   3.828   4.122
 5760WAT      O17521   0.642   7.801   5.789
 5760WAT     H117522   0.735   7.839   5.785
 5760WAT     H217523   0.625   7.749   5.705
 5761WAT      O17524   2.922   5.226   3.415
 5761WAT     H117525   2.985   5.298   3.385
 5761WAT     H217526   2.973   5.156   3.465
 5762WAT      O17527   0.917   8.224   4.086
 5762WAT     H117528   0.927   8.248   3.990
 5762WAT     H217529   0.949   8.130   4.101
 5763WAT      O17530   6.553   5.465   1.376
 5763WAT     H117531   6.643   5.491   1.340
 5763WAT     H217532   6.514   5.543   1.426
 5764WAT      O17533   6.064   7.619   7.224
 5764WAT     H117534   6.132   7.568   7.276
 5764WAT     H217535   6.106   7.700   7.183
 5765WAT      O17536   4.691   6.676   2.302
 5765WAT     H117537   4.637   6.615   2.361
 5765WAT     H217538   4.708   6.630   2.215
 5766WAT      O17539   1.237   5.041   4.903
 5766WAT     H117540   1.203   4.969   4.964
 5766WAT     H217541   1.298   5.101   4.954
 5767WAT      O17542   0.727   0.236   2.544
 5767WAT     H117543   0.657   0.281   2.487
 5767WAT     H217544   0.778   0.306   2.594
 5768WAT      O17545   2.033   1.859   3.563
 5768WAT     H117546   2.063   1.763   3.564
 5768WAT     H217547   2.089   1.911   3.500
 5769WAT      O17548   2.480   1.932   0.564
 5769WAT     H117549   2.520   1.868   0.499
 5769WAT     H217550   2.456   2.017   0.516
 5770WAT      O17551   4.703   2.752   3.108
 5770WAT     H117552   4.644   2.731   3.030
 5770WAT     H217553   4.707   2.852   3.120
 5771WAT      O17554   1.010   7.085   7.744
 5771WAT     H117555   0.911   7.075   7.741
 5771WAT     H217556   1.053   7.004   7.705
 5772WAT      O17557   3.392   6.449   1.913
 5772WAT     H117558   3.415   6.357   1.945
 5772WAT     H217559   3.470   6.488   1.864
 5773WAT      O17560   0.377   4.707   1.847
 5773WAT     H117561   0.327   4.674   1.927
 5773WAT     H217562   0.399   4.804   1.859
 5774WAT      O17563   6.580   7.299   2.478
 5774WAT     H117564   6.551   7.207   2.504
 5774WAT     H217565   6.517   7.337   2.411
 5775WAT      O17566   9.682   3.471   9.795
 5775WAT     H117567   9.777   3.499   9.778
 5775WAT     H217568   9.624   3.552   9.802
 5776WAT      O17569   9.777   3.538   8.251
 5776WAT     H117570   9.758   3.440   8.256
 5776WAT     H217571   9.788   3.575   8.343
 5777WAT      O17572   3.395   4.697   3.912
 5777WAT     H117573   3.391   4.637   3.832
 5777WAT     H217574   3.390   4.792   3.882
 5778WAT      O17575   2.940   6.104   1.879
 5778WAT     H117576   2.959   6.044   1.956
 5778WAT     H217577   2.845   6.134   1.882
 5779WAT      O17578   3.396   8.540   2.751
 5779WAT     H117579   3.377   8.573   2.843
 5779WAT     H217580   3.317   8.491   2.715
 5780WAT      O17581   3.362   1.237   7.691
 5780WAT     H117582   3.399   1.243   7.598
 5780WAT     H217583   3.353   1.330   7.728
 5781WAT      O17584   9.500   2.763   4.699
 5781WAT     H117585   9.487   2.856   4.665
 5781WAT     H217586   9.486   2.698   4.624
 5782WAT      O17587   8.247   0.506   3.727
 5782WAT     H117588   8.198   0.573   3.783
 5782WAT     H217589   8.237   0.530   3.631
 5783WAT      O17590   7.775   1.029   6.605
 5783WAT     H117591   7.785   1.026   6.506
 5783WAT     H217592   7.680   1.052   6.628
 5784WAT      O17593   9.658   0.390   0.331
 5784WAT     H117594   9.757   0.401   0.326
 5784WAT     H217595   9.637   0.303   0.375
 5785WAT      O17596   4.676   7.542   1.374
 5785WAT     H117597   4.642   7.471   1.436
 5785WAT     H217598   4.619   7.623   1.382
 5786WAT      O17599   0.922   2.547   2.421
 5786WAT     H117600   1.017   2.527   2.396
 5786WAT     H217601   0.921   2.615   2.495
 5787WAT      O17602   1.024   4.539   9.480
 5787WAT     H117603   1.079   4.508   9.557
 5787WAT     H217604   0.943   4.481   9.471
 5788WAT      O17605   1.555   7.771   0.600
 5788WAT     H117606   1.459   7.785   0.575
 5788WAT     H217607   1.578   7.828   0.678
 5789WAT      O17608   7.002   3.115   7.547
 5789WAT     H117609   6.928   3.059   7.584
 5789WAT     H217610   6.968   3.170   7.471
 5790WAT      O17611   5.371   4.671   8.550
 5790WAT     H117612   5.409   4.763   8.556
 5790WAT     H217613   5.272   4.676   8.536
 5791WAT      O17614   3.044   2.444   8.008
 5791WAT     H117615   3.050   2.477   8.102
 5791WAT     H217616   2.954   2.403   7.993
 5792WAT      O17617   7.764   4.562   1.804
 5792WAT     H117618   7.830   4.519   1.742
 5792WAT     H217619   7.768   4.662   1.792
 5793WAT      O17620   7.050   5.476   8.529
 5793WAT     H117621   7.040   5.452   8.625
 5793WAT     H217622   7.083   5.570   8.521
 5794WAT      O17623   8.947   8.557   2.652
 5794WAT     H117624   8.948   8.593   2.559
 5794WAT     H217625   9.037   8.522   2.675
 5795WAT      O17626   7.883   2.185   4.321
 5795WAT     H117627   7.944   2.190   4.241
 5795WAT     H217628   7.852   2.276   4.345
 5796WAT      O17629   0.908   5.545   8.270
 5796WAT     H117630   0.894   5.525   8.173
 5796WAT     H217631   1.006   5.543   8.290
 5797WAT      O17632   9.034   0.982   6.261
 5797WAT     H117633   8.988   0.926   6.193
 5797WAT     H217634   8.987   1.071   6.268
 5798WAT      O17635   2.921   3.002   2.645
 5798WAT     H117636   2.872   3.001   2.558
 5798WAT     H217637   2.941   2.908   2.673
 5799WAT      O17638   7.908   7.118   9.601
 5799WAT     H117639   7.872   7.156   9.686
 5799WAT     H217640   7.884   7.021   9.595
 5800WAT      O17641   1.557   3.905   1.618
 5800WAT     H117642   1.520   3.964   1.690
 5800WAT     H217643   1.493   3.831   1.600
 5801WAT      O17644   1.299   6.747   2.211
 5801WAT     H117645   1.207   6.762   2.173
 5801WAT     H217646   1.301   6.658   2.256
 5802WAT      O17647   2.491   1.932   9.390
 5802WAT     H117648   2.404   1.884   9.376
 5802WAT     H217649   2.529   1.957   9.301
 5803WAT      O17650   7.660   1.164   7.311
 5803WAT     H117651   7.674   1.165   7.212
 5803WAT     H217652   7.726   1.101   7.353
 5804WAT      O17653   8.289   0.178   5.241
 5804WAT     H117654   8.228   0.250   5.275
 5804WAT     H217655   8.251   0.088   5.264
 5805WAT      O17656   9.155   5.650   6.887
 5805WAT     H117657   9.088   5.576   6.879
 5805WAT     H217658   9.120   5.720   6.949
 5806WAT      O17659   4.653   6.667   7.391
 5806WAT     H117660   4.590   6.635   7.320
 5806WAT     H217661   4.620   6.636   7.480
 5807WAT      O17662   5.324   7.010   9.600
 5807WAT     H117663   5.270   7.021   9.683
 5807WAT     H217664   5.330   6.914   9.575
 5808WAT      O17665   2.333   6.736   2.870
 5808WAT     H117666   2.368   6.642   2.878
 5808WAT     H217667   2.290   6.763   2.956
 5809WAT      O17668   9.213   2.264   2.686
 5809WAT     H117669   9.312   2.249   2.679
 5809WAT     H217670   9.185   2.332   2.619
 5810WAT      O17671   6.439   8.217   1.625
 5810WAT     H117672   6.426   8.309   1.662
 5810WAT     H217673   6.528   8.181   1.653
 5811WAT      O17674   9.659   6.133   4.906
 5811WAT     H117675   9.725   6.196   4.947
 5811WAT     H217676   9.650   6.153   4.809
 5812WAT      O17677   6.423   1.732   1.641
 5812WAT     H117678   6.393   1.665   1.572
 5812WAT     H217679   6.347   1.792   1.664
 5813WAT      O17680   4.534   0.090   8.059
 5813WAT     H117681   4.585   0.006   8.044
 5813WAT     H217682   4.462   0.074   8.127
 5814WAT      O17683   0.335   1.073   6.718
 5814WAT     H117684   0.408   1.136   6.693
 5814WAT     H217685   0.276   1.116   6.787
 5815WAT      O17686   3.978   0.384   8.606
 5815WAT     H117687   3.991   0.483   8.620
 5815WAT     H217688   3.916   0.348   8.675
 5816WAT      O17689   6.258   0.886   8.621
 5816WAT     H117690   6.332   0.854   8.561
 5816WAT     H217691   6.287   0.969   8.669
 5817WAT      O17692   0.835   7.025   1.359
 5817WAT     H117693   0.853   7.109   1.409
 5817WAT     H217694   0.825   7.045   1.262
 5818WAT      O17695   3.749   2.883   2.577
 5818WAT     H117696   3.660   2.841   2.595
 5818WAT     H217697   3.812   2.815   2.540
 5819WAT      O17698   7.451   7.930   9.668
 5819WAT     H117699   7.363   7.932   9.622
 5819WAT     H217700   7.461   8.011   9.725
 5820WAT      O17701   5.400   8.027   3.376
 5820WAT     H117702   5.391   7.929   3.361
 5820WAT     H217703   5.450   8.044   3.461
 5821WAT      O17704   5.862   6.804   9.233
 5821WAT     H117705   5.802   6.859   9.175
 5821WAT     H217706   5.910   6.863   9.298
 5822WAT      O17707   6.693   5.622   2.651
 5822WAT     H117708   6.696   5.638   2.552
 5822WAT     H217709   6.758   5.550   2.675
 5823WAT      O17710   9.514   9.731   0.525
 5823WAT     H117711   9.575   9.716   0.603
 5823WAT     H217712   9.529   9.659   0.457
 5824WAT      O17713   5.604   5.594   2.255
 5824WAT     H117714   5.589   5.500   2.223
 5824WAT     H217715   5.626   5.653   2.177
 5825WAT      O17716   7.010   2.570   7.130
 5825WAT     H117717   7.095   2.596   7.175
 5825WAT     H217718   6.969   2.492   7.179
 5826WAT      O17719   8.705   4.263   2.024
 5826WAT     H117720   8.771   4.265   2.099
 5826WAT     H217721   8.752   4.279   1.937
 5827WAT      O17722   2.284   4.849   6.228
 5827WAT     H117723   2.315   4.771   6.173
 5827WAT     H217724   2.245   4.918   6.168
 5828WAT      O17725   3.867   0.729   1.371
 5828WAT     H117726   3.891   0.751   1.465
 5828WAT     H217727   3.926   0.782   1.309
 5829WAT      O17728   2.936   0.712   8.386
 5829WAT     H117729   2.962   0.796   8.433
 5829WAT     H217730   2.836   0.709   8.375
 5830WAT      O17731   4.737   0.289   7.395
 5830WAT     H117732   4.814   0.316   7.337
 5830WAT     H217733   4.652   0.320   7.354
 5831WAT      O17734   9.357   6.485   3.106
 5831WAT     H117735   9.400   6.476   3.017
 5831WAT     H217736   9.427   6.498   3.176
 5832WAT      O17737   9.636   1.717   1.585
 5832WAT     H117738   9.568   1.771   1.633
 5832WAT     H217739   9.706   1.777   1.547
 5833WAT      O17740   2.553   4.092   6.515
 5833WAT     H117741   2.472   4.121   6.566
 5833WAT     H217742   2.606   4.172   6.489
 5834WAT      O17743   3.811   9.373   0.192
 5834WAT     H117744   3.768   9.461   0.213
 5834WAT     H217745   3.742   9.301   0.195
 5835WAT      O17746   7.514   0.348   3.274
 5835WAT     H117747   7.450   0.272   3.269
 5835WAT     H217748   7.570   0.350   3.192
 5836WAT      O17749   3.504   7.551   0.463
 5836WAT     H117750   3.504   7.636   0.411
 5836WAT     H217751   3.550   7.480   0.409
 5837WAT      O17752   0.516   6.456   7.397
 5837WAT     H117753   0.455   6.533   7.381
 5837WAT     H217754   0.607   6.477   7.362
 5838WAT      O17755   0.821   5.205   8.215
 5838WAT     H117756   0.901   5.249   8.175
 5838WAT     H217757   0.767   5.273   8.265
 5839WAT      O17758   6.726   9.436   7.579
 5839WAT     H117759   6.708   9.523   7.532
 5839WAT     H217760   6.806   9.446   7.638
 5840WAT      O17761   4.877   2.354   3.386
 5840WAT     H117762   4.969   2.391   3.369
 5840WAT     H217763   4.883   2.274   3.445
 5841WAT      O17764   2.777   0.563   8.701
 5841WAT     H117765   2.682   0.532   8.710
 5841WAT     H217766   2.796   0.633   8.770
 5842WAT      O17767   9.411   2.527   6.319
 5842WAT     H117768   9.331   2.474   6.292
 5842WAT     H217769   9.493   2.487   6.279
 5843WAT      O17770   1.045   7.029   2.888
 5843WAT     H117771   1.084   7.048   2.798
 5843WAT     H217772   1.043   6.931   2.904
 5844WAT      O17773   9.787   5.511   7.309
 5844WAT     H117774   9.763   5.606   7.288
 5844WAT     H217775   9.777   5.495   7.407
 5845WAT      O17776   8.488   1.179   8.160
 5845WAT     H117777   8.501   1.274   8.187
 5845WAT     H217778   8.397   1.168   8.120
 5846WAT      O17779   7.315   7.257   8.245
 5846WAT     H117780   7.222   7.268   8.208
 5846WAT     H217781   7.329   7.163   8.273
 5847WAT      O17782   5.556   2.045   8.628
 5847WAT     H117783   5.554   2.137   8.667
 5847WAT     H217784   5.581   2.050   8.532
 5848WAT      O17785   6.156   6.345   9.592
 5848WAT     H117786   6.254   6.334   9.608
 5848WAT     H217787   6.133   6.310   9.501
 5849WAT      O17788   2.698   5.583   9.421
 5849WAT     H117789   2.758   5.646   9.372
 5849WAT     H217790   2.648   5.527   9.356
 5850WAT      O17791   3.829   1.659   7.503
 5850WAT     H117792   3.797   1.740   7.551
 5850WAT     H217793   3.918   1.631   7.540
 5851WAT      O17794   3.278   7.291   9.305
 5851WAT     H117795   3.239   7.205   9.339
 5851WAT     H217796   3.314   7.344   9.381
 5852WAT      O17797   2.776   1.593   3.932
 5852WAT     H117798   2.869   1.569   3.959
 5852WAT     H217799   2.779   1.668   3.866
 5853WAT      O17800   8.026   4.188   3.535
 5853WAT     H117801   8.065   4.233   3.455
 5853WAT     H217802   7.934   4.155   3.514
 5854WAT      O17803   7.868   0.037   0.514
 5854WAT     H117804   7.848   0.119   0.462
 5854WAT     H217805   7.910  -0.031   0.454
 5855WAT      O17806   4.376   3.788   2.128
 5855WAT     H117807   4.280   3.777   2.100
 5855WAT     H217808   4.432   3.718   2.084
 5856WAT      O17809   3.843   3.089   3.019
 5856WAT     H117810   3.823   3.003   2.972
 5856WAT     H217811   3.940   3.111   3.010
 5857WAT      O17812   0.275   6.207   7.304
 5857WAT     H117813   0.231   6.139   7.363
 5857WAT     H217814   0.287   6.292   7.355
 5858WAT      O17815   3.681   6.587   6.092
 5858WAT     H117816   3.665   6.618   6.186
 5858WAT     H217817   3.593   6.574   6.045
 5859WAT      O17818   5.705   4.884   0.324
 5859WAT     H117819   5.659   4.941   0.256
 5859WAT     H217820   5.648   4.805   0.346
 5860WAT      O17821   6.645   1.913   8.338
 5860WAT     H117822   6.580   1.979   8.299
 5860WAT     H217823   6.602   1.867   8.416
 5861WAT      O17824   1.821   6.288   6.486
 5861WAT     H117825   1.896   6.228   6.512
 5861WAT     H217826   1.807   6.285   6.387
 5862WAT      O17827   7.425   5.271   0.692
 5862WAT     H117828   7.434   5.308   0.599
 5862WAT     H217829   7.483   5.189   0.700
 5863WAT      O17830   6.793   5.638   7.290
 5863WAT     H117831   6.808   5.549   7.334
 5863WAT     H217832   6.855   5.706   7.330
 5864WAT      O17833   6.675   0.260   6.289
 5864WAT     H117834   6.593   0.251   6.345
 5864WAT     H217835   6.741   0.320   6.336
 5865WAT      O17836   3.296   1.200   3.135
 5865WAT     H117837   3.221   1.263   3.119
 5865WAT     H217838   3.370   1.219   3.070
 5866WAT      O17839   4.524   7.024   0.973
 5866WAT     H117840   4.533   7.027   0.873
 5866WAT     H217841   4.433   6.991   0.997
 5867WAT      O17842   3.125   6.341   4.176
 5867WAT     H117843   3.222   6.361   4.190
 5867WAT     H217844   3.070   6.405   4.230
 5868WAT      O17845   6.481   5.799   9.364
 5868WAT     H117846   6.399   5.825   9.415
 5868WAT     H217847   6.469   5.706   9.328
 5869WAT      O17848   3.184   5.567   0.151
 5869WAT     H117849   3.199   5.471   0.130
 5869WAT     H217850   3.098   5.597   0.108
 5870WAT      O17851   7.164   0.473   6.521
 5870WAT     H117852   7.242   0.417   6.546
 5870WAT     H217853   7.080   0.421   6.534
 5871WAT      O17854   0.915   1.530   1.726
 5871WAT     H117855   0.845   1.496   1.663
 5871WAT     H217856   0.927   1.466   1.802
 5872WAT      O17857   6.708   7.350   7.811
 5872WAT     H117858   6.727   7.447   7.797
 5872WAT     H217859   6.611   7.333   7.795
 5873WAT      O17860   4.099   3.175   7.401
 5873WAT     H117861   4.062   3.248   7.344
 5873WAT     H217862   4.172   3.212   7.459
 5874WAT      O17863   8.091   0.211   9.283
 5874WAT     H117864   8.189   0.210   9.306
 5874WAT     H217865   8.063   0.305   9.265
 5875WAT      O17866   5.807   1.709   6.169
 5875WAT     H117867   5.770   1.800   6.187
 5875WAT     H217868   5.906   1.711   6.182
 5876WAT      O17869   4.039   8.390   1.235
 5876WAT     H117870   4.034   8.458   1.162
 5876WAT     H217871   3.960   8.400   1.295
 5877WAT      O17872   5.045   9.691   8.071
 5877WAT     H117873   5.015   9.733   7.986
 5877WAT     H217874   5.143   9.671   8.067
 5878WAT      O17875   4.161   6.312   4.366
 5878WAT     H117876   4.246   6.258   4.366
 5878WAT     H217877   4.133   6.330   4.460
 5879WAT      O17878   6.254   6.466   6.331
 5879WAT     H117879   6.289   6.427   6.245
 5879WAT     H217880   6.168   6.421   6.355
 5880WAT      O17881   6.434   0.727   8.418
 5880WAT     H117882   6.524   0.732   8.375
 5880WAT     H217883   6.365   0.761   8.353
 5881WAT      O17884   0.585   8.692   5.607
 5881WAT     H117885   0.628   8.635   5.536
 5881WAT     H217886   0.656   8.739   5.659
 5882WAT      O17887   3.054   1.151   8.961
 5882WAT     H117888   3.044   1.234   9.015
 5882WAT     H217889   3.001   1.077   9.003
 5883WAT      O17890   3.409   0.830   3.590
 5883WAT     H117891   3.504   0.842   3.559
 5883WAT     H217892   3.346   0.860   3.518
 5884WAT      O17893   2.477   9.749   5.439
 5884WAT     H117894   2.427   9.833   5.457
 5884WAT     H217895   2.558   9.768   5.383
 5885WAT      O17896   1.909   7.802   3.062
 5885WAT     H117897   1.977   7.875   3.066
 5885WAT     H217898   1.881   7.778   3.155
 5886WAT      O17899   3.807   8.029   0.280
 5886WAT     H117900   3.759   7.968   0.343
 5886WAT     H217901   3.774   8.122   0.290
 5887WAT      O17902   0.046   8.199   8.453
 5887WAT     H117903   0.126   8.256   8.469
 5887WAT     H217904   0.074   8.103   8.448
 5888WAT      O17905   7.541   0.811   0.541
 5888WAT     H117906   7.493   0.736   0.586
 5888WAT     H217907   7.487   0.895   0.550
 5889WAT      O17908   9.251   7.646   2.754
 5889WAT     H117909   9.330   7.609   2.705
 5889WAT     H217910   9.240   7.600   2.841
 5890WAT      O17911   7.041   6.550   1.775
 5890WAT     H117912   7.060   6.619   1.845
 5890WAT     H217913   7.004   6.595   1.694
 5891WAT      O17914   6.387   4.720   2.120
 5891WAT     H117915   6.479   4.747   2.090
 5891WAT     H217916   6.319   4.771   2.067
 5892WAT      O17917   9.231   9.451   6.272
 5892WAT     H117918   9.315   9.506   6.278
 5892WAT     H217919   9.160   9.492   6.329
 5893WAT      O17920   9.279   6.196   0.625
 5893WAT     H117921   9.265   6.161   0.532
 5893WAT     H217922   9.278   6.119   0.689
 5894WAT      O17923   3.764   7.795   0.478
 5894WAT     H117924   3.788   7.725   0.411
 5894WAT     H217925   3.808   7.774   0.565
 5895WAT      O17926   3.412   1.800   1.493
 5895WAT     H117927   3.333   1.739   1.492
 5895WAT     H217928   3.430   1.834   1.401
 5896WAT      O17929   2.122   3.846   6.955
 5896WAT     H117930   2.153   3.864   6.861
 5896WAT     H217931   2.036   3.894   6.971
 5897WAT      O17932   4.007   4.816   0.417
 5897WAT     H117933   4.090   4.760   0.411
 5897WAT     H217934   4.013   4.876   0.497
 5898WAT      O17935   2.901   6.090   8.543
 5898WAT     H117936   2.936   6.009   8.495
 5898WAT     H217937   2.912   6.078   8.642
 5899WAT      O17938   7.849   1.660   6.372
 5899WAT     H117939   7.937   1.700   6.399
 5899WAT     H217940   7.866   1.586   6.306
 5900WAT      O17941   3.588   6.947   1.544
 5900WAT     H117942   3.617   6.928   1.450
 5900WAT     H217943   3.665   6.932   1.606
 5901WAT      O17944   3.672   1.106   8.290
 5901WAT     H117945   3.649   1.143   8.380
 5901WAT     H217946   3.667   1.006   8.293
 5902WAT      O17947   8.402   2.518   0.313
 5902WAT     H117948   8.416   2.616   0.326
 5902WAT     H217949   8.327   2.487   0.371
 5903WAT      O17950   2.519   6.608   2.117
 5903WAT     H117951   2.428   6.643   2.094
 5903WAT     H217952   2.559   6.563   2.038
 5904WAT      O17953   9.698   1.319   6.606
 5904WAT     H117954   9.725   1.228   6.576
 5904WAT     H217955   9.728   1.333   6.701
 5905WAT      O17956   8.907   4.516   4.644
 5905WAT     H117957   8.870   4.607   4.664
 5905WAT     H217958   9.007   4.518   4.654
 5906WAT      O17959   3.629   5.209   2.495
 5906WAT     H117960   3.537   5.169   2.502
 5906WAT     H217961   3.632   5.293   2.549
 5907WAT      O17962   1.788   1.140   7.732
 5907WAT     H117963   1.702   1.106   7.770
 5907WAT     H217964   1.801   1.103   7.640
 5908WAT      O17965   7.815   8.717   3.957
 5908WAT     H117966   7.785   8.700   3.863
 5908WAT     H217967   7.739   8.699   4.019
 5909WAT      O17968   9.433   8.155   5.491
 5909WAT     H117969   9.405   8.211   5.570
 5909WAT     H217970   9.360   8.157   5.422
 5910WAT      O17971   5.165   8.295   4.705
 5910WAT     H117972   5.129   8.371   4.651
 5910WAT     H217973   5.163   8.319   4.802
 5911WAT      O17974   6.144   6.091   9.683
 5911WAT     H117975   6.119   6.183   9.654
 5911WAT     H217976   6.220   6.096   9.747
 5912WAT      O17977   9.025   9.740   5.384
 5912WAT     H117978   9.007   9.710   5.291
 5912WAT     H217979   8.942   9.735   5.438
 5913WAT      O17980   9.318   3.648   1.400
 5913WAT     H117981   9.350   3.624   1.492
 5913WAT     H217982   9.290   3.566   1.351
 5914WAT      O17983   2.611   6.118   4.471
 5914WAT     H117984   2.572   6.031   4.500
 5914WAT     H217985   2.690   6.100   4.411
 5915WAT      O17986   1.996   7.708   9.464
 5915WAT     H117987   1.998   7.765   9.381
 5915WAT     H217988   2.079   7.723   9.517
 5916WAT      O17989   6.033   6.047   1.414
 5916WAT     H117990   6.014   6.131   1.465
 5916WAT     H217991   5.956   6.027   1.354
 5917WAT      O17992   2.207   0.847   9.457
 5917WAT     H117993   2.114   0.860   9.491
 5917WAT     H217994   2.220   0.904   9.376
 5918WAT      O17995   9.161   4.937   4.980
 5918WAT     H117996   9.237   4.995   5.006
 5918WAT     H217997   9.192   4.842   4.974
 5919WAT      O17998   7.059   8.304   3.288
 5919WAT     H117999   7.025   8.234   3.225
 5919WAT     H218000   7.039   8.394   3.251
 5920WAT      O18001   2.858   8.527   3.395
 5920WAT     H118002   2.936   8.547   3.455
 5920WAT     H218003   2.839   8.429   3.396
 5921WAT      O18004   6.359   1.987   7.331
 5921WAT     H118005   6.446   2.035   7.341
 5921WAT     H218006   6.352   1.914   7.399
 5922WAT      O18007   4.895   9.102   9.580
 5922WAT     H118008   4.970   9.166   9.600
 5922WAT     H218009   4.927   9.033   9.515
 5923WAT      O18010   1.555   9.225   0.818
 5923WAT     H118011   1.620   9.164   0.863
 5923WAT     H218012   1.602   9.279   0.748
 5924WAT      O18013   3.160   4.149   0.386
 5924WAT     H118014   3.171   4.092   0.468
 5924WAT     H218015   3.063   4.154   0.361
 5925WAT      O18016   1.039   3.194   5.389
 5925WAT     H118017   0.948   3.208   5.428
 5925WAT     H218018   1.106   3.242   5.446
 5926WAT      O18019   5.659   1.428   1.020
 5926WAT     H118020   5.580   1.478   1.056
 5926WAT     H218021   5.633   1.380   0.936
 5927WAT      O18022   1.866   0.641   6.596
 5927WAT     H118023   1.928   0.713   6.630
 5927WAT     H218024   1.887   0.555   6.643
 5928WAT      O18025   4.560   8.962   3.321
 5928WAT     H118026   4.499   8.883   3.330
 5928WAT     H218027   4.608   8.977   3.408
 5929WAT      O18028   3.703   6.194   5.418
 5929WAT     H118029   3.735   6.281   5.455
 5929WAT     H218030   3.780   6.132   5.405
 5930WAT      O18031   9.231   0.659   6.618
 5930WAT     H118032   9.250   0.624   6.710
 5930WAT     H218033   9.297   0.731   6.596
 5931WAT      O18034   3.687   7.149   7.907
 5931WAT     H118035   3.598   7.161   7.951
 5931WAT     H218036   3.758   7.145   7.977
 5932WAT      O18037   3.964   4.385   8.503
 5932WAT     H118038   3.961   4.439   8.587
 5932WAT     H218039   4.059   4.369   8.477
 5933WAT      O18040   4.019   4.445   5.608
 5933WAT     H118041   3.956   4.479   5.678
 5933WAT     H218042   3.967   4.404   5.533
 5934WAT      O18043   6.793   8.177   5.227
 5934WAT     H118044   6.865   8.133   5.174
 5934WAT     H218045   6.825   8.194   5.320
 5935WAT      O18046   1.116   0.857   2.378
 5935WAT     H118047   1.065   0.882   2.461
 5935WAT     H218048   1.114   0.934   2.314
 5936WAT      O18049   9.674   6.507   6.444
 5936WAT     H118050   9.617   6.513   6.362
 5936WAT     H218051   9.689   6.599   6.481
 5937WAT      O18052   9.329   0.565   8.174
 5937WAT     H118053   9.264   0.633   8.141
 5937WAT     H218054   9.283   0.504   8.239
 5938WAT      O18055   1.116   2.791   7.824
 5938WAT     H118056   1.031   2.812   7.872
 5938WAT     H218057   1.137   2.863   7.759
 5939WAT      O18058   7.923   8.670   8.441
 5939WAT     H118059   7.842   8.726   8.455
 5939WAT     H218060   7.921   8.630   8.349
 5940WAT      O18061   2.016   3.346   9.211
 5940WAT     H118062   2.111   3.361   9.182
 5940WAT     H218063   2.007   3.372   9.307
 5941WAT      O18064   9.800   9.368   6.877
 5941WAT     H118065   9.864   9.434   6.916
 5941WAT     H218066   9.832   9.339   6.787
 5942WAT      O18067   0.342   0.765   7.389
 5942WAT     H118068   0.394   0.847   7.365
 5942WAT     H218069   0.405   0.692   7.417
 5943WAT      O18070   2.471   5.313   8.618
 5943WAT     H118071   2.402   5.266   8.672
 5943WAT     H218072   2.560   5.270   8.633
 5944WAT      O18073   3.033   1.915   9.844
 5944WAT     H118074   3.104   1.851   9.871
 5944WAT     H218075   2.996   1.960   9.925
 5945WAT      O18076   9.242   4.621   5.740
 5945WAT     H118077   9.193   4.574   5.813
 5945WAT     H218078   9.223   4.576   5.652
 5946WAT      O18079   5.144   9.508   5.014
 5946WAT     H118080   5.107   9.580   5.072
 5946WAT     H218081   5.083   9.429   5.014
 5947WAT      O18082   4.430   3.918   8.657
 5947WAT     H118083   4.348   3.946   8.607
 5947WAT     H218084   4.423   3.821   8.682
 5948WAT      O18085   5.767   4.057   1.037
 5948WAT     H118086   5.834   3.994   1.078
 5948WAT     H218087   5.815   4.128   0.985
 5949WAT      O18088   2.614   6.471   2.316
 5949WAT     H118089   2.627   6.378   2.281
 5949WAT     H218090   2.575   6.528   2.244
 5950WAT      O18091   6.437   5.619   9.656
 5950WAT     H118092   6.382   5.608   9.739
 5950WAT     H218093   6.504   5.691   9.669
 5951WAT      O18094   6.245   7.323   9.453
 5951WAT     H118095   6.280   7.242   9.404
 5951WAT     H218096   6.269   7.316   9.549
 5952WAT      O18097   9.463   3.094   3.552
 5952WAT     H118098   9.468   3.190   3.524
 5952WAT     H218099   9.384   3.051   3.509
 5953WAT      O18100   0.877   4.079   3.205
 5953WAT     H118101   0.953   4.017   3.219
 5953WAT     H218102   0.791   4.028   3.206
 5954WAT      O18103   5.468   6.249   6.576
 5954WAT     H118104   5.383   6.283   6.535
 5954WAT     H218105   5.483   6.295   6.664
 5955WAT      O18106   5.294   9.703   1.580
 5955WAT     H118107   5.348   9.620   1.567
 5955WAT     H218108   5.209   9.695   1.528
 5956WAT      O18109   1.669   0.467   8.593
 5956WAT     H118110   1.722   0.402   8.648
 5956WAT     H218111   1.573   0.465   8.622
 5957WAT      O18112   0.202   6.164   2.848
 5957WAT     H118113   0.154   6.083   2.883
 5957WAT     H218114   0.292   6.171   2.892
 5958WAT      O18115   6.973   4.417   6.524
 5958WAT     H118116   6.891   4.362   6.535
 5958WAT     H218117   6.957   4.510   6.557
 5959WAT      O18118   2.872   5.612   3.678
 5959WAT     H118119   2.859   5.521   3.716
 5959WAT     H218120   2.967   5.641   3.692
 5960WAT      O18121   1.453   7.906   6.263
 5960WAT     H118122   1.374   7.957   6.228
 5960WAT     H218123   1.531   7.921   6.203
 5961WAT      O18124   0.169   5.393   9.733
 5961WAT     H118125   0.199   5.324   9.668
 5961WAT     H218126   0.228   5.473   9.727
 5962WAT      O18127   0.683   7.511   0.190
 5962WAT     H118128   0.678   7.455   0.107
 5962WAT     H218129   0.649   7.603   0.170
 5963WAT      O18130   7.723   4.620   8.718
 5963WAT     H118131   7.669   4.623   8.802
 5963WAT     H218132   7.671   4.573   8.646
 5964WAT      O18133   9.842   4.615   6.034
 5964WAT     H118134   9.926   4.563   6.049
 5964WAT     H218135   9.791   4.623   6.119
 5965WAT      O18136   9.563   6.359   6.648
 5965WAT     H118137   9.594   6.264   6.651
 5965WAT     H218138   9.608   6.406   6.572
 5966WAT      O18139   7.123   7.652   7.484
 5966WAT     H118140   7.116   7.594   7.403
 5966WAT     H218141   7.210   7.702   7.482
 5967WAT      O18142   1.479   1.829   2.960
 5967WAT     H118143   1.393   1.852   3.005
 5967WAT     H218144   1.512   1.740   2.994
 5968WAT      O18145   1.927   9.261   2.497
 5968WAT     H118146   2.019   9.298   2.482
 5968WAT     H218147   1.902   9.275   2.593
 5969WAT      O18148   5.746   7.572   4.684
 5969WAT     H118149   5.696   7.523   4.612
 5969WAT     H218150   5.724   7.669   4.679
 5970WAT      O18151   7.539   4.670   5.704
 5970WAT     H118152   7.554   4.767   5.687
 5970WAT     H218153   7.612   4.634   5.763
 5971WAT      O18154   6.105   5.334   9.454
 5971WAT     H118155   6.115   5.274   9.534
 5971WAT     H218156   6.115   5.429   9.483
 5972WAT      O18157   2.036   5.033   9.464
 5972WAT     H118158   2.032   5.129   9.438
 5972WAT     H218159   1.956   5.008   9.517
 5973WAT      O18160   9.508   2.276   0.876
 5973WAT     H118161   9.420   2.258   0.832
 5973WAT     H218162   9.519   2.215   0.955
 5974WAT      O18163   8.781   5.278   5.046
 5974WAT     H118164   8.874   5.273   5.083
 5974WAT     H218165   8.781   5.245   4.951
 5975WAT      O18166   2.382   9.106   1.653
 5975WAT     H118167   2.397   9.150   1.741
 5975WAT     H218168   2.284   9.094   1.638
 5976WAT      O18169   5.810   8.856   2.384
 5976WAT     H118170   5.723   8.906   2.378
 5976WAT     H218171   5.882   8.917   2.416
 5977WAT      O18172   8.698   4.617   1.468
 5977WAT     H118173   8.632   4.692   1.468
 5977WAT     H218174   8.682   4.559   1.548
 5978WAT      O18175   1.102   9.544   3.126
 5978WAT     H118176   1.158   9.594   3.061
 5978WAT     H218177   1.102   9.593   3.214
 5979WAT      O18178   5.344   2.085   6.715
 5979WAT     H118179   5.262   2.053   6.667
 5979WAT     H218180   5.317   2.127   6.802
 5980WAT      O18181   6.291   9.454   1.227
 5980WAT     H118182   6.321   9.396   1.303
 5980WAT     H218183   6.194   9.477   1.239
 5981WAT      O18184   0.621   3.453   1.367
 5981WAT     H118185   0.597   3.378   1.427
 5981WAT     H218186   0.635   3.419   1.274
 5982WAT      O18187   3.958   2.906   3.404
 5982WAT     H118188   3.900   2.968   3.350
 5982WAT     H218189   4.016   2.960   3.465
 5983WAT      O18190   2.934   6.963   7.002
 5983WAT     H118191   3.010   7.027   6.985
 5983WAT     H218192   2.913   6.914   6.917
 5984WAT      O18193   7.567   1.467   5.417
 5984WAT     H118194   7.559   1.379   5.370
 5984WAT     H218195   7.478   1.493   5.454
 5985WAT      O18196   1.439   2.886   3.189
 5985WAT     H118197   1.387   2.875   3.273
 5985WAT     H218198   1.530   2.921   3.210
 5986WAT      O18199   4.191   3.056   1.730
 5986WAT     H118200   4.268   3.115   1.704
 5986WAT     H218201   4.106   3.096   1.695
 5987WAT      O18202   0.476   8.739   3.903
 5987WAT     H118203   0.553   8.791   3.941
 5987WAT     H218204   0.414   8.801   3.856
 5988WAT      O18205   6.555   1.012   0.497
 5988WAT     H118206   6.497   0.964   0.563
 5988WAT     H218207   6.549   1.110   0.513
 5989WAT      O18208   5.158   5.854   3.882
 5989WAT     H118209   5.091   5.792   3.921
 5989WAT     H218210   5.247   5.839   3.925
 5990WAT      O18211   9.017   9.575   2.887
 5990WAT     H118212   9.070   9.590   2.970
 5990WAT     H218213   8.944   9.509   2.905
 5991WAT      O18214   4.587   4.217   9.189
 5991WAT     H118215   4.618   4.151   9.121
 5991WAT     H218216   4.494   4.247   9.166
 5992WAT      O18217   4.680   2.718   5.532
 5992WAT     H118218   4.697   2.793   5.596
 5992WAT     H218219   4.588   2.726   5.495
 5993WAT      O18220   6.752   0.844   0.802
 5993WAT     H118221   6.783   0.816   0.711
 5993WAT     H218222   6.703   0.768   0.845
 5994WAT      O18223   1.935   2.464   5.986
 5994WAT     H118224   2.023   2.453   5.940
 5994WAT     H218225   1.938   2.417   6.074
 5995WAT      O18226   0.831   6.822   2.938
 5995WAT     H118227   0.807   6.817   2.841
 5995WAT     H218228   0.909   6.763   2.957
 5996WAT      O18229   3.907   9.351   5.891
 5996WAT     H118230   3.859   9.281   5.839
 5996WAT     H218231   3.852   9.378   5.970
 5997WAT      O18232   1.039   8.200   0.262
 5997WAT     H118233   0.947   8.164   0.277
 5997WAT     H218234   1.074   8.238   0.347
 5998WAT      O18235   3.627   5.844   5.907
 5998WAT     H118236   3.530   5.823   5.912
 5998WAT     H218237   3.680   5.763   5.928
 5999WAT      O18238   5.238   8.271   5.775
 5999WAT     H118239   5.181   8.193   5.746
 5999WAT     H218240   5.278   8.314   5.694
 6000WAT      O18241   0.506   6.165   8.949
 6000WAT     H118242   0.569   6.225   8.999
 6000WAT     H218243   0.424   6.216   8.924
 6001WAT      O18244   1.390   4.190   7.155
 6001WAT     H118245   1.356   4.281   7.179
 6001WAT     H218246   1.340   4.120   7.207
 6002WAT      O18247   0.836   8.880   3.185
 6002WAT     H118248   0.845   8.934   3.101
 6002WAT     H218249   0.851   8.784   3.163
 6003WAT      O18250   6.835   9.729   7.581
 6003WAT     H118251   6.879   9.817   7.565
 6003WAT     H218252   6.768   9.738   7.655
 6004WAT      O18253   3.266   1.311   6.506
 6004WAT     H118254   3.316   1.391   6.472
 6004WAT     H218255   3.305   1.281   6.593
 6005WAT      O18256   5.080   9.096   8.314
 6005WAT     H118257   5.147   9.042   8.365
 6005WAT     H218258   5.124   9.180   8.279
 6006WAT      O18259   9.156   1.244   5.086
 6006WAT     H118260   9.156   1.341   5.110
 6006WAT     H218261   9.139   1.189   5.167
 6007WAT      O18262   8.045   3.868   9.224
 6007WAT     H118263   8.042   3.923   9.141
 6007WAT     H218264   8.100   3.787   9.208
 6008WAT      O18265   4.472   7.606   2.816
 6008WAT     H118266   4.524   7.680   2.860
 6008WAT     H218267   4.409   7.646   2.749
 6009WAT      O18268   2.917   0.109   2.880
 6009WAT     H118269   2.988   0.103   2.950
 6009WAT     H218270   2.833   0.067   2.915
 6010WAT      O18271   3.694   0.248   4.938
 6010WAT     H118272   3.731   0.155   4.937
 6010WAT     H218273   3.702   0.287   4.846
 6011WAT      O18274   4.180   1.193   7.745
 6011WAT     H118275   4.179   1.163   7.841
 6011WAT     H218276   4.141   1.121   7.687
 6012WAT      O18277   7.973   2.659   9.394
 6012WAT     H118278   7.889   2.617   9.428
 6012WAT     H218279   7.969   2.665   9.295
 6013WAT      O18280   0.159   7.521   5.690
 6013WAT     H118281   0.183   7.431   5.727
 6013WAT     H218282   0.064   7.542   5.712
 6014WAT      O18283   8.549   8.783   9.593
 6014WAT     H118284   8.595   8.858   9.640
 6014WAT     H218285   8.452   8.805   9.582
 6015WAT      O18286   2.350   7.593   6.149
 6015WAT     H118287   2.298   7.508   6.141
 6015WAT     H218288   2.447   7.574   6.133
 6016WAT      O18289   9.521   1.236   1.630
 6016WAT     H118290   9.558   1.326   1.605
 6016WAT     H218291   9.580   1.194   1.699
 6017WAT      O18292   0.152   4.868   0.832
 6017WAT     H118293   0.176   4.819   0.915
 6017WAT     H218294   0.117   4.959   0.855
 6018WAT      O18295   9.566   1.139   4.051
 6018WAT     H118296   9.514   1.225   4.056
 6018WAT     H218297   9.585   1.105   4.143
 6019WAT      O18298   8.537   0.002   3.857
 6019WAT     H118299   8.460   0.016   3.794
 6019WAT     H218300   8.614   0.059   3.829
 6020WAT      O18301   2.602   3.138   6.194
 6020WAT     H118302   2.697   3.110   6.209
 6020WAT     H218303   2.597   3.238   6.192
 6021WAT      O18304   8.563   5.493   8.549
 6021WAT     H118305   8.605   5.408   8.518
 6021WAT     H218306   8.610   5.525   8.631
 6022WAT      O18307   9.805   3.300   8.690
 6022WAT     H118308   9.799   3.215   8.743
 6022WAT     H218309   9.714   3.325   8.657
 6023WAT      O18310   3.050   0.432   4.600
 6023WAT     H118311   3.101   0.511   4.633
 6023WAT     H218312   3.040   0.437   4.500
 6024WAT      O18313   9.081   1.920   3.692
 6024WAT     H118314   9.046   1.826   3.696
 6024WAT     H218315   9.014   1.978   3.646
 6025WAT      O18316   1.714   7.210   9.885
 6025WAT     H118317   1.614   7.217   9.888
 6025WAT     H218318   1.742   7.122   9.922
 6026WAT      O18319   4.418   5.422   4.782
 6026WAT     H118320   4.481   5.497   4.765
 6026WAT     H218321   4.464   5.335   4.768
 6027WAT      O18322   8.165   8.140   5.553
 6027WAT     H118323   8.175   8.231   5.514
 6027WAT     H218324   8.221   8.132   5.636
 6028WAT      O18325   0.802   4.145   7.744
 6028WAT     H118326   0.714   4.185   7.771
 6028WAT     H218327   0.865   4.148   7.821
 6029WAT      O18328   9.764   1.635   8.052
 6029WAT     H118329   9.797   1.695   7.978
 6029WAT     H218330   9.842   1.602   8.106
 6030WAT      O18331   2.426   3.829   9.335
 6030WAT     H118332   2.484   3.895   9.288
 6030WAT     H218333   2.398   3.758   9.270
 6031WAT      O18334   0.155   8.269   5.567
 6031WAT     H118335   0.227   8.299   5.629
 6031WAT     H218336   0.140   8.339   5.497
 6032WAT      O18337   3.620   6.850   2.373
 6032WAT     H118338   3.561   6.784   2.326
 6032WAT     H218339   3.565   6.924   2.411
 6033WAT      O18340   5.125   5.405   8.079
 6033WAT     H118341   5.047   5.467   8.069
 6033WAT     H218342   5.207   5.450   8.042
 6034WAT      O18343   0.458   5.579   0.242
 6034WAT     H118344   0.469   5.664   0.190
 6034WAT     H218345   0.361   5.556   0.249
 6035WAT      O18346   3.774   0.674   0.534
 6035WAT     H118347   3.686   0.628   0.540
 6035WAT     H218348   3.830   0.628   0.465
 6036WAT      O18349   4.278   6.125   0.124
 6036WAT     H118350   4.331   6.209   0.124
 6036WAT     H218351   4.289   6.078   0.212
 6037WAT      O18352   6.029   3.427   4.551
 6037WAT     H118353   5.929   3.422   4.551
 6037WAT     H218354   6.065   3.380   4.631
 6038WAT      O18355   4.916   7.262   5.803
 6038WAT     H118356   4.869   7.350   5.799
 6038WAT     H218357   4.849   7.188   5.794
 6039WAT      O18358   1.645   0.664   2.669
 6039WAT     H118359   1.659   0.722   2.589
 6039WAT     H218360   1.561   0.610   2.656
 6040WAT      O18361   9.201   4.241   0.011
 6040WAT     H118362   9.239   4.311  -0.049
 6040WAT     H218363   9.155   4.171  -0.044
 6041WAT      O18364   5.577   7.027   6.551
 6041WAT     H118365   5.538   7.061   6.637
 6041WAT     H218366   5.666   6.985   6.569
 6042WAT      O18367   5.828   4.621   0.407
 6042WAT     H118368   5.889   4.668   0.343
 6042WAT     H218369   5.804   4.531   0.370
 6043WAT      O18370   3.216   9.081   4.556
 6043WAT     H118371   3.184   9.172   4.529
 6043WAT     H218372   3.249   9.085   4.650
 6044WAT      O18373   9.542   8.822   2.060
 6044WAT     H118374   9.640   8.822   2.042
 6044WAT     H218375   9.515   8.911   2.096
 6045WAT      O18376   6.754   4.655   0.939
 6045WAT     H118377   6.853   4.659   0.937
 6045WAT     H218378   6.718   4.670   0.847
 6046WAT      O18379   1.034   6.758   2.433
 6046WAT     H118380   1.091   6.787   2.510
 6046WAT     H218381   1.027   6.658   2.433
 6047WAT      O18382   2.513   5.871   4.809
 6047WAT     H118383   2.554   5.840   4.723
 6047WAT     H218384   2.414   5.873   4.800
 6048WAT      O18385   7.366   3.802   6.384
 6048WAT     H118386   7.287   3.852   6.349
 6048WAT     H218387   7.392   3.730   6.320
 6049WAT      O18388   4.405   3.801   6.143
 6049WAT     H118389   4.502   3.779   6.145
 6049WAT     H218390   4.369   3.803   6.237
 6050WAT      O18391   5.442   6.650   0.167
 6050WAT     H118392   5.522   6.675   0.113
 6050WAT     H218393   5.469   6.585   0.238
 6051WAT      O18394   7.418   4.719   4.884
 6051WAT     H118395   7.415   4.790   4.955
 6051WAT     H218396   7.365   4.640   4.914
 6052WAT      O18397   3.773   5.521   1.916
 6052WAT     H118398   3.762   5.468   2.000
 6052WAT     H218399   3.715   5.484   1.844
 6053WAT      O18400   1.293   5.707   5.272
 6053WAT     H118401   1.359   5.646   5.228
 6053WAT     H218402   1.310   5.709   5.371
 6054WAT      O18403   1.937   7.839   7.739
 6054WAT     H118404   1.927   7.936   7.716
 6054WAT     H218405   2.016   7.828   7.799
 6055WAT      O18406   7.527   0.086   6.310
 6055WAT     H118407   7.528  -0.003   6.356
 6055WAT     H218408   7.574   0.153   6.367
 6056WAT      O18409   6.065   5.723   9.301
 6056WAT     H118410   6.081   5.657   9.375
 6056WAT     H218411   6.030   5.808   9.339
 6057WAT      O18412   1.912   5.633   8.603
 6057WAT     H118413   1.982   5.609   8.671
 6057WAT     H218414   1.828   5.583   8.622
 6058WAT      O18415   9.650   9.258   6.366
 6058WAT     H118416   9.673   9.226   6.275
 6058WAT     H218417   9.603   9.346   6.360
 6059WAT      O18418   3.595   7.098   8.680
 6059WAT     H118419   3.611   7.136   8.589
 6059WAT     H218420   3.675   7.115   8.738
 6060WAT      O18421   6.430   8.417   2.674
 6060WAT     H118422   6.414   8.341   2.611
 6060WAT     H218423   6.481   8.385   2.754
 6061WAT      O18424   2.210   0.546   2.542
 6061WAT     H118425   2.203   0.495   2.455
 6061WAT     H218426   2.261   0.491   2.608
 6062WAT      O18427   3.600   0.831   8.026
 6062WAT     H118428   3.540   0.904   7.993
 6062WAT     H218429   3.616   0.844   8.124
 6063WAT      O18430   1.874   1.865   6.983
 6063WAT     H118431   1.817   1.850   6.902
 6063WAT     H218432   1.896   1.778   7.025
 6064WAT      O18433   2.840   4.784   7.317
 6064WAT     H118434   2.856   4.812   7.412
 6064WAT     H218435   2.906   4.831   7.258
 6065WAT      O18436   5.315   7.079   1.666
 6065WAT     H118437   5.350   7.141   1.736
 6065WAT     H218438   5.389   7.019   1.635
 6066WAT      O18439   5.399   4.838   0.808
 6066WAT     H118440   5.455   4.768   0.765
 6066WAT     H218441   5.445   4.874   0.889
 6067WAT      O18442   1.658   2.971   4.024
 6067WAT     H118443   1.673   3.018   4.110
 6067WAT     H218444   1.656   2.872   4.040
 6068WAT      O18445   1.066   8.655   5.401
 6068WAT     H118446   1.163   8.635   5.389
 6068WAT     H218447   1.034   8.611   5.485
 6069WAT      O18448   9.029   1.366   8.219
 6069WAT     H118449   8.959   1.356   8.148
 6069WAT     H218450   9.115   1.328   8.186
 6070WAT      O18451   1.171   1.528   9.319
 6070WAT     H118452   1.146   1.625   9.313
 6070WAT     H218453   1.121   1.476   9.250
 6071WAT      O18454   9.088   4.158   5.176
 6071WAT     H118455   9.051   4.127   5.088
 6071WAT     H218456   9.015   4.196   5.232
 6072WAT      O18457   9.007   2.787   3.277
 6072WAT     H118458   8.926   2.812   3.224
 6072WAT     H218459   9.023   2.689   3.269
 6073WAT      O18460   5.025   1.311   4.380
 6073WAT     H118461   5.113   1.273   4.351
 6073WAT     H218462   4.997   1.269   4.466
 6074WAT      O18463   1.598   1.691   5.255
 6074WAT     H118464   1.631   1.596   5.257
 6074WAT     H218465   1.543   1.708   5.337
 6075WAT      O18466   7.786   9.317   3.257
 6075WAT     H118467   7.824   9.277   3.340
 6075WAT     H218468   7.747   9.407   3.278
 6076WAT      O18469   3.909   1.081   2.966
 6076WAT     H118470   3.842   1.022   3.012
 6076WAT     H218471   3.925   1.163   3.021
 6077WAT      O18472   8.731   8.191   0.113
 6077WAT     H118473   8.664   8.118   0.096
 6077WAT     H218474   8.808   8.181   0.049
 6078WAT      O18475   9.323   3.015   7.927
 6078WAT     H118476   9.274   2.945   7.980
 6078WAT     H218477   9.421   3.001   7.938
 6079WAT      O18478   2.997   7.533   8.495
 6079WAT     H118479   3.080   7.549   8.441
 6079WAT     H218480   3.014   7.463   8.564
 6080WAT      O18481   3.861   9.309   2.281
 6080WAT     H118482   3.857   9.254   2.364
 6080WAT     H218483   3.943   9.365   2.282
 6081WAT      O18484   1.141   4.725   3.639
 6081WAT     H118485   1.093   4.720   3.551
 6081WAT     H218486   1.093   4.787   3.701
 6082WAT      O18487   3.445   3.458   5.597
 6082WAT     H118488   3.473   3.547   5.561
 6082WAT     H218489   3.374   3.472   5.667
 6083WAT      O18490   6.480   0.507   6.326
 6083WAT     H118491   6.462   0.423   6.378
 6083WAT     H218492   6.395   0.538   6.282
 6084WAT      O18493   3.053   5.988   6.264
 6084WAT     H118494   3.107   5.947   6.190
 6084WAT     H218495   2.964   6.018   6.228
 6085WAT      O18496   7.422   6.390   6.243
 6085WAT     H118497   7.413   6.443   6.328
 6085WAT     H218498   7.340   6.404   6.187
 6086WAT      O18499   5.673   3.849   5.733
 6086WAT     H118500   5.613   3.771   5.754
 6086WAT     H218501   5.637   3.897   5.653
 6087WAT      O18502   5.724   1.505   0.057
 6087WAT     H118503   5.627   1.528   0.044
 6087WAT     H218504   5.757   1.547   0.141
 6088WAT      O18505   2.100   2.667   0.885
 6088WAT     H118506   2.162   2.588   0.877
 6088WAT     H218507   2.057   2.667   0.975
 6089WAT      O18508   1.110   3.572   1.974
 6089WAT     H118509   1.171   3.500   2.008
 6089WAT     H218510   1.165   3.644   1.931
 6090WAT      O18511   1.977   3.259   9.517
 6090WAT     H118512   2.057   3.207   9.545
 6090WAT     H218513   1.898   3.198   9.509
 6091WAT      O18514   5.867   4.334   7.450
 6091WAT     H118515   5.820   4.278   7.382
 6091WAT     H218516   5.966   4.326   7.439
 6092WAT      O18517   5.432   1.734   7.069
 6092WAT     H118518   5.438   1.693   6.978
 6092WAT     H218519   5.339   1.765   7.085
 6093WAT      O18520   5.904   2.122   1.181
 6093WAT     H118521   5.936   2.131   1.086
 6093WAT     H218522   5.923   2.208   1.229
 6094WAT      O18523   7.736   6.610   6.886
 6094WAT     H118524   7.653   6.564   6.854
 6094WAT     H218525   7.816   6.570   6.841
 6095WAT      O18526   9.337   2.034   0.026
 6095WAT     H118527   9.418   1.978   0.048
 6095WAT     H218528   9.255   1.977   0.031
 6096WAT      O18529   5.447   3.003   2.438
 6096WAT     H118530   5.402   2.964   2.519
 6096WAT     H218531   5.377   3.040   2.376
 6097WAT      O18532   0.211   8.249   8.899
 6097WAT     H118533   0.172   8.252   8.991
 6097WAT     H218534   0.189   8.333   8.850
 6098WAT      O18535   9.723   4.591   4.798
 6098WAT     H118536   9.716   4.493   4.819
 6098WAT     H218537   9.774   4.603   4.713
 6099WAT      O18538   9.138   0.832   7.405
 6099WAT     H118539   9.099   0.911   7.453
 6099WAT     H218540   9.231   0.854   7.375
 6100WAT      O18541   7.559   2.875   2.699
 6100WAT     H118542   7.593   2.925   2.619
 6100WAT     H218543   7.506   2.796   2.669
 6101WAT      O18544   0.843   1.715   4.063
 6101WAT     H118545   0.822   1.800   4.015
 6101WAT     H218546   0.775   1.699   4.135
 6102WAT      O18547   7.760   6.327   5.561
 6102WAT     H118548   7.794   6.371   5.643
 6102WAT     H218549   7.751   6.229   5.577
 6103WAT      O18550   7.708   2.170   0.735
 6103WAT     H118551   7.731   2.129   0.824
 6103WAT     H218552   7.620   2.133   0.703
 6104WAT      O18553   6.692   2.210   3.375
 6104WAT     H118554   6.686   2.200   3.474
 6104WAT     H218555   6.655   2.128   3.331
 6105WAT      O18556   2.670   2.268   6.768
 6105WAT     H118557   2.738   2.318   6.821
 6105WAT     H218558   2.709   2.244   6.679
 6106WAT      O18559   9.352   9.786   4.309
 6106WAT     H118560   9.391   9.793   4.217
 6106WAT     H218561   9.254   9.768   4.302
 6107WAT      O18562   0.235   4.556   3.132
 6107WAT     H118563   0.206   4.646   3.099
 6107WAT     H218564   0.187   4.485   3.081
 6108WAT      O18565   2.703   7.422   2.278
 6108WAT     H118566   2.763   7.376   2.212
 6108WAT     H218567   2.726   7.519   2.282
 6109WAT      O18568   1.812   8.721   9.696
 6109WAT     H118569   1.841   8.733   9.601
 6109WAT     H218570   1.752   8.797   9.722
 6110WAT      O18571   9.291   2.953   7.059
 6110WAT     H118572   9.243   3.002   6.986
 6110WAT     H218573   9.372   2.909   7.021
 6111WAT      O18574   0.887   9.169   7.575
 6111WAT     H118575   0.958   9.216   7.523
 6111WAT     H218576   0.813   9.143   7.513
 6112WAT      O18577   9.168   6.202   2.520
 6112WAT     H118578   9.188   6.236   2.612
 6112WAT     H218579   9.114   6.271   2.471
 6113WAT      O18580   6.793   9.462   5.184
 6113WAT     H118581   6.715   9.423   5.135
 6113WAT     H218582   6.809   9.556   5.151
 6114WAT      O18583   5.190   4.287   8.147
 6114WAT     H118584   5.171   4.353   8.220
 6114WAT     H218585   5.152   4.321   8.061
 6115WAT      O18586   4.505   4.385   6.710
 6115WAT     H118587   4.596   4.353   6.734
 6115WAT     H218588   4.466   4.325   6.639
 6116WAT      O18589   7.375   4.283   4.649
 6116WAT     H118590   7.424   4.244   4.571
 6116WAT     H218591   7.424   4.261   4.733
 6117WAT      O18592   6.237   3.162   2.436
 6117WAT     H118593   6.140   3.177   2.455
 6117WAT     H218594   6.275   3.243   2.390
 6118WAT      O18595   3.379   6.436   6.840
 6118WAT     H118596   3.337   6.346   6.851
 6118WAT     H218597   3.454   6.430   6.774
 6119WAT      O18598   1.802   1.778   5.862
 6119WAT     H118599   1.732   1.762   5.932
 6119WAT     H218600   1.760   1.779   5.772
 6120WAT      O18601   2.228   3.131   9.602
 6120WAT     H118602   2.220   3.044   9.650
 6120WAT     H218603   2.223   3.206   9.667
 6121WAT      O18604   7.536   5.375   5.248
 6121WAT     H118605   7.597   5.361   5.325
 6121WAT     H218606   7.442   5.387   5.281
 6122WAT      O18607   1.209   8.317   8.164
 6122WAT     H118608   1.223   8.416   8.171
 6122WAT     H218609   1.120   8.293   8.203
 6123WAT      O18610   1.572   8.819   7.624
 6123WAT     H118611   1.537   8.749   7.687
 6123WAT     H218612   1.651   8.783   7.575
 6124WAT      O18613   5.811   5.513   1.356
 6124WAT     H118614   5.734   5.488   1.415
 6124WAT     H218615   5.889   5.539   1.412
 6125WAT      O18616   1.118   6.126   8.383
 6125WAT     H118617   1.024   6.102   8.406
 6125WAT     H218618   1.181   6.060   8.424
 6126WAT      O18619   4.349   1.103   4.186
 6126WAT     H118620   4.323   1.156   4.105
 6126WAT     H218621   4.283   1.119   4.259
 6127WAT      O18622   4.789   8.300   8.839
 6127WAT     H118623   4.694   8.280   8.814
 6127WAT     H218624   4.832   8.354   8.766
 6128WAT      O18625   1.744   2.923   0.812
 6128WAT     H118626   1.830   2.972   0.829
 6128WAT     H218627   1.764   2.833   0.774
 6129WAT      O18628   4.995   0.422   7.336
 6129WAT     H118629   5.028   0.404   7.429
 6129WAT     H218630   5.062   0.479   7.288
 6130WAT      O18631   2.261   4.456   2.452
 6130WAT     H118632   2.340   4.417   2.404
 6130WAT     H218633   2.220   4.527   2.395
 6131WAT      O18634   8.766   9.552   7.889
 6131WAT     H118635   8.676   9.563   7.929
 6131WAT     H218636   8.763   9.482   7.818
 6132WAT      O18637   6.979   0.614   2.781
 6132WAT     H118638   6.997   0.593   2.685
 6132WAT     H218639   7.047   0.679   2.814
 6133WAT      O18640   0.197   7.370   9.775
 6133WAT     H118641   0.189   7.469   9.784
 6133WAT     H218642   0.111   7.332   9.741
 6134WAT      O18643   3.638   5.803   3.565
 6134WAT     H118644   3.597   5.885   3.527
 6134WAT     H218645   3.701   5.828   3.639
 6135WAT      O18646   3.253   1.281   0.107
 6135WAT     H118647   3.236   1.186   0.081
 6135WAT     H218648   3.320   1.283   0.182
 6136WAT      O18649   0.153   1.318   7.316
 6136WAT     H118650   0.079   1.328   7.383
 6136WAT     H218651   0.236   1.286   7.362
 6137WAT      O18652   4.483   8.342   3.662
 6137WAT     H118653   4.570   8.325   3.616
 6137WAT     H218654   4.440   8.255   3.685
 6138WAT      O18655   8.691   5.959   3.177
 6138WAT     H118656   8.602   6.004   3.188
 6138WAT     H218657   8.761   6.028   3.160
 6139WAT      O18658   4.254   9.236   6.297
 6139WAT     H118659   4.304   9.291   6.230
 6139WAT     H218660   4.306   9.154   6.318
 6140WAT      O18661   4.460   3.519   3.347
 6140WAT     H118662   4.491   3.504   3.253
 6140WAT     H218663   4.360   3.523   3.349
 6141WAT      O18664   6.080   2.754   2.182
 6141WAT     H118665   6.079   2.660   2.217
 6141WAT     H218666   6.071   2.817   2.259
 6142WAT      O18667   2.056   0.206   3.660
 6142WAT     H118668   2.063   0.117   3.615
 6142WAT     H218669   2.002   0.196   3.744
 6143WAT      O18670   8.922   4.011   7.511
 6143WAT     H118671   8.877   4.036   7.425
 6143WAT     H218672   8.860   4.029   7.588
 6144WAT      O18673   5.834   0.349   3.341
 6144WAT     H118674   5.912   0.409   3.324
 6144WAT     H218675   5.753   0.403   3.361
 6145WAT      O18676   6.982   8.617   9.633
 6145WAT     H118677   6.886   8.635   9.654
 6145WAT     H218678   7.037   8.625   9.715
 6146WAT      O18679   2.823   1.253   8.503
 6146WAT     H118680   2.765   1.243   8.422
 6146WAT     H218681   2.809   1.174   8.563
 6147WAT      O18682   4.059   3.053   3.999
 6147WAT     H118683   4.097   3.051   4.091
 6147WAT     H218684   4.124   3.011   3.935
 6148WAT      O18685   4.053   1.049   5.229
 6148WAT     H118686   3.954   1.062   5.234
 6148WAT     H218687   4.078   1.022   5.136
 6149WAT      O18688   9.657   9.367   0.476
 6149WAT     H118689   9.591   9.339   0.545
 6149WAT     H218690   9.617   9.439   0.419
 6150WAT      O18691   4.036   9.139   2.534
 6150WAT     H118692   4.126   9.154   2.492
 6150WAT     H218693   4.047   9.093   2.622
 6151WAT      O18694   1.212   8.933   2.618
 6151WAT     H118695   1.155   8.874   2.561
 6151WAT     H218696   1.283   8.878   2.662
 6152WAT      O18697   8.577   3.317   4.936
 6152WAT     H118698   8.647   3.350   4.999
 6152WAT     H218699   8.522   3.393   4.904
 6153WAT      O18700   0.196   7.166   2.390
 6153WAT     H118701   0.285   7.212   2.385
 6153WAT     H218702   0.206   7.071   2.361
 6154WAT      O18703   4.295   1.407   2.504
 6154WAT     H118704   4.251   1.328   2.460
 6154WAT     H218705   4.273   1.406   2.601
 6155WAT      O18706   3.991   9.374   3.030
 6155WAT     H118707   4.087   9.355   3.009
 6155WAT     H218708   3.946   9.412   2.950
 6156WAT      O18709   6.943   7.489   2.218
 6156WAT     H118710   6.894   7.420   2.270
 6156WAT     H218711   7.038   7.460   2.203
 6157WAT      O18712   9.253   9.254   1.421
 6157WAT     H118713   9.315   9.205   1.360
 6157WAT     H218714   9.306   9.296   1.496
 6158WAT      O18715   5.069   7.990   1.098
 6158WAT     H118716   5.099   8.084   1.116
 6158WAT     H218717   5.146   7.928   1.113
 6159WAT      O18718   7.632   3.213   5.006
 6159WAT     H118719   7.725   3.178   4.990
 6159WAT     H218720   7.600   3.260   4.924
 6160WAT      O18721   1.052   1.427   4.477
 6160WAT     H118722   1.014   1.370   4.550
 6160WAT     H218723   1.027   1.388   4.388
 6161WAT      O18724   1.216   1.974   5.324
 6161WAT     H118725   1.258   2.056   5.286
 6161WAT     H218726   1.171   1.996   5.410
 6162WAT      O18727   0.689   0.648   8.865
 6162WAT     H118728   0.610   0.658   8.925
 6162WAT     H218729   0.773   0.662   8.917
 6163WAT      O18730   0.429   3.783   5.472
 6163WAT     H118731   0.449   3.803   5.376
 6163WAT     H218732   0.331   3.797   5.489
 6164WAT      O18733   3.520   1.022   7.758
 6164WAT     H118734   3.599   1.044   7.816
 6164WAT     H218735   3.472   1.106   7.733
 6165WAT      O18736   8.071   2.343   7.397
 6165WAT     H118737   8.170   2.356   7.398
 6165WAT     H218738   8.028   2.413   7.454
 6166WAT      O18739   8.286   5.021   4.763
 6166WAT     H118740   8.377   5.039   4.801
 6166WAT     H218741   8.227   5.099   4.781
 6167WAT      O18742   6.913   3.385   3.702
 6167WAT     H118743   6.851   3.408   3.777
 6167WAT     H218744   6.938   3.469   3.653
 6168WAT      O18745   4.212   5.468   9.123
 6168WAT     H118746   4.259   5.511   9.199
 6168WAT     H218747   4.253   5.378   9.105
 6169WAT      O18748   9.211   4.119   5.437
 6169WAT     H118749   9.169   4.134   5.348
 6169WAT     H218750   9.143   4.130   5.509
 6170WAT      O18751   0.153   8.133   2.472
 6170WAT     H118752   0.203   8.145   2.558
 6170WAT     H218753   0.172   8.043   2.434
 6171WAT      O18754   2.365   9.483   3.142
 6171WAT     H118755   2.438   9.434   3.188
 6171WAT     H218756   2.330   9.556   3.201
 6172WAT      O18757   2.031   9.175   0.770
 6172WAT     H118758   2.010   9.271   0.789
 6172WAT     H218759   2.033   9.160   0.671
 6173WAT      O18760   6.441   8.463   5.234
 6173WAT     H118761   6.365   8.400   5.249
 6173WAT     H218762   6.433   8.540   5.298
 6174WAT      O18763   4.398   2.688   5.472
 6174WAT     H118764   4.326   2.732   5.526
 6174WAT     H218765   4.434   2.609   5.522
 6175WAT      O18766   3.998   0.392   2.377
 6175WAT     H118767   4.088   0.355   2.350
 6175WAT     H218768   4.003   0.492   2.380
 6176WAT      O18769   1.921   0.858   1.378
 6176WAT     H118770   1.833   0.875   1.423
 6176WAT     H218771   1.908   0.791   1.305
 6177WAT      O18772   4.710   8.086   1.846
 6177WAT     H118773   4.628   8.030   1.837
 6177WAT     H218774   4.683   8.181   1.864
 6178WAT      O18775   6.506   2.593   1.411
 6178WAT     H118776   6.591   2.599   1.359
 6178WAT     H218777   6.434   2.643   1.363
 6179WAT      O18778   4.451   1.594   7.527
 6179WAT     H118779   4.443   1.685   7.567
 6179WAT     H218780   4.405   1.527   7.585
 6180WAT      O18781   3.207   0.202   1.152
 6180WAT     H118782   3.167   0.164   1.235
 6180WAT     H218783   3.163   0.163   1.072
 6181WAT      O18784   5.547   0.549   6.397
 6181WAT     H118785   5.528   0.529   6.493
 6181WAT     H218786   5.499   0.632   6.370
 6182WAT      O18787   0.167   0.128   6.731
 6182WAT     H118788   0.240   0.074   6.688
 6182WAT     H218789   0.105   0.161   6.660
 6183WAT      O18790   7.909   9.675   3.658
 6183WAT     H118791   7.987   9.723   3.699
 6183WAT     H218792   7.828   9.689   3.715
 6184WAT      O18793   8.953   6.123   5.280
 6184WAT     H118794   8.965   6.221   5.264
 6184WAT     H218795   8.922   6.078   5.196
 6185WAT      O18796   4.928   5.928   2.619
 6185WAT     H118797   5.012   5.924   2.672
 6185WAT     H218798   4.922   5.848   2.559
 6186WAT      O18799   0.460   3.691   0.076
 6186WAT     H118800   0.369   3.686   0.036
 6186WAT     H218801   0.529   3.685   0.004
 6187WAT      O18802   9.757   4.546   7.397
 6187WAT     H118803   9.763   4.514   7.302
 6187WAT     H218804   9.662   4.546   7.426
 6188WAT      O18805   2.625   0.151   3.147
 6188WAT     H118806   2.633   0.250   3.163
 6188WAT     H218807   2.528   0.126   3.140
 6189WAT      O18808   3.848   7.460   5.733
 6189WAT     H118809   3.854   7.548   5.779
 6189WAT     H218810   3.832   7.388   5.800
 6190WAT      O18811   7.982   0.867   9.377
 6190WAT     H118812   8.081   0.852   9.386
 6190WAT     H218813   7.934   0.820   9.451
 6191WAT      O18814   7.725   8.399   3.951
 6191WAT     H118815   7.742   8.485   3.905
 6191WAT     H218816   7.632   8.367   3.929
 6192WAT      O18817   5.528   2.535   6.031
 6192WAT     H118818   5.456   2.482   6.076
 6192WAT     H218819   5.529   2.513   5.933
 6193WAT      O18820   1.853   9.622   1.355
 6193WAT     H118821   1.948   9.625   1.386
 6193WAT     H218822   1.846   9.665   1.265
 6194WAT      O18823   8.164   7.793   5.541
 6194WAT     H118824   8.115   7.821   5.459
 6194WAT     H218825   8.256   7.763   5.516
 6195WAT      O18826   1.777   3.086   0.357
 6195WAT     H118827   1.682   3.073   0.328
 6195WAT     H218828   1.805   3.180   0.338
 6196WAT      O18829   5.806   8.175   5.165
 6196WAT     H118830   5.860   8.125   5.233
 6196WAT     H218831   5.846   8.161   5.074
 6197WAT      O18832   2.035   1.432   6.885
 6197WAT     H118833   2.133   1.423   6.869
 6197WAT     H218834   2.012   1.393   6.974
 6198WAT      O18835   0.348   6.386   8.649
 6198WAT     H118836   0.418   6.314   8.645
 6198WAT     H218837   0.275   6.357   8.711
 6199WAT      O18838   7.273   9.558   5.334
 6199WAT     H118839   7.294   9.481   5.395
 6199WAT     H218840   7.202   9.530   5.268
 6200WAT      O18841   7.138   9.561   6.795
 6200WAT     H118842   7.097   9.530   6.710
 6200WAT     H218843   7.160   9.483   6.853
 6201WAT      O18844   9.695   2.194   8.045
 6201WAT     H118845   9.690   2.285   8.086
 6201WAT     H218846   9.602   2.161   8.026
 6202WAT      O18847   0.437   3.044   1.445
 6202WAT     H118848   0.439   3.079   1.351
 6202WAT     H218849   0.521   2.993   1.463
 6203WAT      O18850   3.128   4.181   6.812
 6203WAT     H118851   3.218   4.207   6.778
 6203WAT     H218852   3.106   4.088   6.783
 6204WAT      O18853   9.388   9.123   8.815
 6204WAT     H118854   9.342   9.144   8.729
 6204WAT     H218855   9.456   9.193   8.835
 6205WAT      O18856   6.009   5.679   9.028
 6205WAT     H118857   5.961   5.592   9.024
 6205WAT     H218858   6.040   5.697   9.121
 6206WAT      O18859   5.998   5.184   2.419
 6206WAT     H118860   5.904   5.197   2.386
 6206WAT     H218861   6.031   5.095   2.390
 6207WAT      O18862   7.513   1.833   9.082
 6207WAT     H118863   7.434   1.886   9.113
 6207WAT     H218864   7.596   1.869   9.125
 6208WAT      O18865   0.850   3.798   0.475
 6208WAT     H118866   0.840   3.848   0.561
 6208WAT     H218867   0.773   3.734   0.465
 6209WAT      O18868   7.449   2.947   3.284
 6209WAT     H118869   7.383   3.016   3.253
 6209WAT     H218870   7.449   2.870   3.220
 6210WAT      O18871   4.417   7.607   1.978
 6210WAT     H118872   4.343   7.651   2.029
 6210WAT     H218873   4.385   7.583   1.886
 6211WAT      O18874   8.597   6.021   5.561
 6211WAT     H118875   8.538   5.943   5.579
 6211WAT     H218876   8.611   6.073   5.646
 6212WAT      O18877   8.446   6.887   5.913
 6212WAT     H118878   8.510   6.931   5.977
 6212WAT     H218879   8.355   6.886   5.952
 6213WAT      O18880   7.502   0.659   2.311
 6213WAT     H118881   7.542   0.591   2.373
 6213WAT     H218882   7.455   0.729   2.365
 6214WAT      O18883   3.538   3.380   8.325
 6214WAT     H118884   3.618   3.403   8.270
 6214WAT     H218885   3.547   3.286   8.360
 6215WAT      O18886   8.392   6.860   3.108
 6215WAT     H118887   8.425   6.953   3.126
 6215WAT     H218888   8.407   6.837   3.012
 6216WAT      O18889   1.732   8.097   3.986
 6216WAT     H118890   1.791   8.140   3.918
 6216WAT     H218891   1.640   8.135   3.980
 6217WAT      O18892   0.397   9.423   8.392
 6217WAT     H118893   0.455   9.419   8.311
 6217WAT     H218894   0.454   9.429   8.474
 6218WAT      O18895   1.622   3.294   2.233
 6218WAT     H118896   1.702   3.331   2.185
 6218WAT     H218897   1.557   3.368   2.250
 6219WAT      O18898   3.299   6.306   6.195
 6219WAT     H118899   3.230   6.319   6.124
 6219WAT     H218900   3.390   6.305   6.153
 6220WAT      O18901   6.122   9.797   2.753
 6220WAT     H118902   6.136   9.758   2.844
 6220WAT     H218903   6.124   9.897   2.759
 6221WAT      O18904   8.768   9.160   4.704
 6221WAT     H118905   8.790   9.235   4.765
 6221WAT     H218906   8.688   9.110   4.740
 6222WAT      O18907   6.157   3.585   6.501
 6222WAT     H118908   6.144   3.494   6.541
 6222WAT     H218909   6.251   3.616   6.517
 6223WAT      O18910   0.352   1.850   9.429
 6223WAT     H118911   0.292   1.794   9.485
 6223WAT     H218912   0.339   1.946   9.452
 6224WAT      O18913   6.276   0.558   8.047
 6224WAT     H118914   6.194   0.522   8.001
 6224WAT     H218915   6.278   0.526   8.142
 6225WAT      O18916   2.547   6.654   3.129
 6225WAT     H118917   2.467   6.619   3.178
 6225WAT     H218918   2.598   6.578   3.090
 6226WAT      O18919   0.595   9.644   5.777
 6226WAT     H118920   0.572   9.635   5.680
 6226WAT     H218921   0.615   9.740   5.798
 6227WAT      O18922   2.650   4.717   5.571
 6227WAT     H118923   2.636   4.808   5.531
 6227WAT     H218924   2.570   4.691   5.624
 6228WAT      O18925   5.591   8.874   6.458
 6228WAT     H118926   5.585   8.782   6.495
 6228WAT     H218927   5.529   8.935   6.508
 6229WAT      O18928   3.940   7.974   5.960
 6229WAT     H118929   3.920   7.964   6.057
 6229WAT     H218930   3.878   7.916   5.907
 6230WAT      O18931   3.087   5.618   2.171
 6230WAT     H118932   3.031   5.642   2.250
 6230WAT     H218933   3.044   5.655   2.088
 6231WAT      O18934   2.337   3.071   8.490
 6231WAT     H118935   2.361   3.045   8.396
 6231WAT     H218936   2.351   3.169   8.502
 6232WAT      O18937   9.443   7.706   3.631
 6232WAT     H118938   9.458   7.709   3.532
 6232WAT     H218939   9.483   7.622   3.669
 6233WAT      O18940   4.052   2.395   1.943
 6233WAT     H118941   4.150   2.397   1.965
 6233WAT     H218942   4.031   2.467   1.877
 6234WAT      O18943   9.088   4.481   5.982
 6234WAT     H118944   8.999   4.439   5.998
 6234WAT     H218945   9.159   4.411   5.988
 6235WAT      O18946   1.106   3.777   0.707
 6235WAT     H118947   1.024   3.827   0.678
 6235WAT     H218948   1.116   3.695   0.651
 6236WAT      O18949   9.762   7.617   3.558
 6236WAT     H118950   9.774   7.686   3.630
 6236WAT     H218951   9.705   7.543   3.593
 6237WAT      O18952   4.657   1.494   6.232
 6237WAT     H118953   4.605   1.410   6.212
 6237WAT     H218954   4.673   1.543   6.147
 6238WAT      O18955   3.278   8.578   5.226
 6238WAT     H118956   3.330   8.540   5.303
 6238WAT     H218957   3.317   8.667   5.202
 6239WAT      O18958   3.141   6.533   9.526
 6239WAT     H118959   3.201   6.549   9.604
 6239WAT     H218960   3.169   6.449   9.479
 6240WAT      O18961   6.020   6.975   2.667
 6240WAT     H118962   6.042   7.068   2.696
 6240WAT     H218963   5.945   6.978   2.601
 6241WAT      O18964   3.527   7.812   0.337
 6241WAT     H118965   3.600   7.815   0.405
 6241WAT     H218966   3.518   7.902   0.294
 6242WAT      O18967   8.015   0.173   5.685
 6242WAT     H118968   7.982   0.189   5.778
 6242WAT     H218969   7.980   0.085   5.651
 6243WAT      O18970   1.189   1.520   8.214
 6243WAT     H118971   1.285   1.496   8.199
 6243WAT     H218972   1.131   1.456   8.163
 6244WAT      O18973   3.833   8.413   7.999
 6244WAT     H118974   3.746   8.375   8.031
 6244WAT     H218975   3.885   8.448   8.077
 6245WAT      O18976   6.886   0.354   1.018
 6245WAT     H118977   6.868   0.268   1.065
 6245WAT     H218978   6.834   0.427   1.061
 6246WAT      O18979   5.713   5.124   8.793
 6246WAT     H118980   5.758   5.165   8.873
 6246WAT     H218981   5.767   5.145   8.711
 6247WAT      O18982   8.918   9.741   2.707
 6247WAT     H118983   8.926   9.674   2.781
 6247WAT     H218984   8.834   9.723   2.655
 6248WAT      O18985   2.873   4.413   1.936
 6248WAT     H118986   2.881   4.512   1.927
 6248WAT     H218987   2.815   4.378   1.862
 6249WAT      O18988   4.826   7.685   7.950
 6249WAT     H118989   4.759   7.638   7.893
 6249WAT     H218990   4.883   7.617   7.996
 6250WAT      O18991   2.289   5.523   8.682
 6250WAT     H118992   2.212   5.460   8.686
 6250WAT     H218993   2.368   5.475   8.642
 6251WAT      O18994   8.094   0.819   3.116
 6251WAT     H118995   8.168   0.854   3.058
 6251WAT     H218996   8.069   0.727   3.085
 6252WAT      O18997   1.681   7.502   6.651
 6252WAT     H118998   1.705   7.583   6.597
 6252WAT     H218999   1.676   7.422   6.592
 6253WAT      O19000   0.024   8.516   9.584
 6253WAT     H119001  -0.032   8.511   9.502
 6253WAT     H219002   0.098   8.449   9.578
 6254WAT      O19003   9.850   7.258   9.702
 6254WAT     H119004   9.782   7.295   9.765
 6254WAT     H219005   9.813   7.257   9.609
 6255WAT      O19006   5.851   6.467   0.391
 6255WAT     H119007   5.926   6.448   0.454
 6255WAT     H219008   5.874   6.430   0.301
 6256WAT      O19009   9.510   3.352   3.934
 6256WAT     H119010   9.502   3.255   3.912
 6256WAT     H219011   9.419   3.394   3.935
 6257WAT      O19012   5.344   0.624   3.465
 6257WAT     H119013   5.261   0.660   3.423
 6257WAT     H219014   5.392   0.698   3.513
 6258WAT      O19015   7.177   3.760   5.095
 6258WAT     H119016   7.164   3.831   5.164
 6258WAT     H219017   7.272   3.729   5.097
 6259WAT      O19018   8.123   7.492   4.758
 6259WAT     H119019   8.036   7.542   4.753
 6259WAT     H219020   8.109   7.397   4.732
 6260WAT      O19021   7.432   4.755   4.426
 6260WAT     H119022   7.401   4.770   4.520
 6260WAT     H219023   7.407   4.834   4.370
 6261WAT      O19024   5.053   6.734   7.136
 6261WAT     H119025   5.031   6.769   7.045
 6261WAT     H219026   4.978   6.755   7.199
 6262WAT      O19027   1.908   3.053   6.525
 6262WAT     H119028   1.995   3.054   6.574
 6262WAT     H219029   1.913   3.114   6.446
 6263WAT      O19030   7.733   9.765   2.596
 6263WAT     H119031   7.797   9.706   2.646
 6263WAT     H219032   7.639   9.741   2.622
 6264WAT      O19033   7.432   5.366   0.419
 6264WAT     H119034   7.459   5.448   0.367
 6264WAT     H219035   7.339   5.340   0.394
 6265WAT      O19036   5.130   3.887   3.798
 6265WAT     H119037   5.158   3.793   3.818
 6265WAT     H219038   5.031   3.894   3.802
 6266WAT      O19039   8.623   7.140   3.469
 6266WAT     H119040   8.647   7.191   3.551
 6266WAT     H219041   8.657   7.188   3.388
 6267WAT      O19042   2.255   2.159   8.500
 6267WAT     H119043   2.201   2.234   8.537
 6267WAT     H219044   2.212   2.124   8.417
 6268WAT      O19045   9.120   2.142   6.254
 6268WAT     H119046   9.166   2.120   6.169
 6268WAT     H219047   9.022   2.122   6.245
 6269WAT      O19048   0.871   3.435   7.838
 6269WAT     H119049   0.956   3.397   7.802
 6269WAT     H219050   0.818   3.363   7.883
 6270WAT      O19051   3.265   1.288   4.703
 6270WAT     H119052   3.332   1.258   4.771
 6270WAT     H219053   3.276   1.386   4.687
 6271WAT      O19054   9.191   3.328   7.522
 6271WAT     H119055   9.107   3.374   7.553
 6271WAT     H219056   9.265   3.395   7.518
 6272WAT      O19057   4.322   6.061   6.949
 6272WAT     H119058   4.263   6.142   6.951
 6272WAT     H219059   4.328   6.022   7.041
 6273WAT      O19060   5.110   2.953   7.541
 6273WAT     H119061   5.133   2.878   7.478
 6273WAT     H219062   5.167   3.032   7.521
 6274WAT      O19063   3.883   4.461   1.830
 6274WAT     H119064   3.983   4.457   1.821
 6274WAT     H219065   3.855   4.555   1.845
 6275WAT      O19066   6.152   4.361   9.473
 6275WAT     H119067   6.136   4.445   9.525
 6275WAT     H219068   6.092   4.288   9.507
 6276WAT      O19069   6.084   9.644   4.241
 6276WAT     H119070   6.126   9.558   4.210
 6276WAT     H219071   6.107   9.659   4.337
 6277WAT      O19072   8.230   2.565   4.117
 6277WAT     H119073   8.172   2.622   4.176
 6277WAT     H219074   8.290   2.624   4.063
 6278WAT      O19075   0.857   5.703   3.098
 6278WAT     H119076   0.776   5.732   3.149
 6278WAT     H219077   0.842   5.610   3.063
 6279WAT      O19078   5.382   5.004   2.753
 6279WAT     H119079   5.290   4.971   2.773
 6279WAT     H219080   5.433   5.013   2.838
 6280WAT      O19081   7.876   6.287   3.837
 6280WAT     H119082   7.962   6.333   3.860
 6280WAT     H219083   7.834   6.251   3.920
 6281WAT      O19084   4.082   2.555   0.944
 6281WAT     H119085   4.069   2.456   0.935
 6281WAT     H219086   4.140   2.574   1.023
 6282WAT      O19087   0.139   2.035   0.474
 6282WAT     H119088   0.198   2.005   0.549
 6282WAT     H219089   0.151   2.134   0.460
 6283WAT      O19090   6.302   1.870   8.016
 6283WAT     H119091   6.352   1.865   7.929
 6283WAT     H219092   6.322   1.789   8.071
 6284WAT      O19093   8.388   0.500   4.115
 6284WAT     H119094   8.308   0.560   4.111
 6284WAT     H219095   8.437   0.515   4.201
 6285WAT      O19096   7.102   7.593   2.933
 6285WAT     H119097   7.144   7.569   3.021
 6285WAT     H219098   7.002   7.585   2.941
 6286WAT      O19099   6.307   0.482   5.226
 6286WAT     H119100   6.324   0.393   5.183
 6286WAT     H219101   6.225   0.478   5.282
 6287WAT      O19102   0.990   8.467   9.166
 6287WAT     H119103   0.949   8.394   9.220
 6287WAT     H219104   1.027   8.537   9.227
 6288WAT      O19105   3.416   1.465   3.416
 6288WAT     H119106   3.405   1.366   3.421
 6288WAT     H219107   3.510   1.487   3.389
 6289WAT      O19108   5.728   4.268   2.013
 6289WAT     H119109   5.726   4.279   2.112
 6289WAT     H219110   5.819   4.235   1.985
 6290WAT      O19111   1.685   8.160   9.420
 6290WAT     H119112   1.732   8.072   9.426
 6290WAT     H219113   1.611   8.154   9.353
 6291WAT      O19114   3.569   3.743   9.107
 6291WAT     H119115   3.565   3.774   9.012
 6291WAT     H219116   3.537   3.649   9.113
 6292WAT      O19117   8.997   7.070   5.518
 6292WAT     H119118   9.069   7.001   5.527
 6292WAT     H219119   9.024   7.137   5.448
 6293WAT      O19120   4.781   7.124   8.417
 6293WAT     H119121   4.706   7.160   8.474
 6293WAT     H219122   4.749   7.115   8.322
 6294WAT      O19123   4.963   1.912   5.501
 6294WAT     H119124   4.998   1.992   5.454
 6294WAT     H219125   4.873   1.933   5.540
 6295WAT      O19126   2.447   7.840   3.869
 6295WAT     H119127   2.493   7.847   3.958
 6295WAT     H219128   2.445   7.930   3.826
 6296WAT      O19129   4.920   3.551   8.114
 6296WAT     H119130   4.883   3.557   8.021
 6296WAT     H219131   4.887   3.628   8.168
 6297WAT      O19132   8.743   3.407   7.741
 6297WAT     H119133   8.781   3.498   7.721
 6297WAT     H219134   8.777   3.342   7.674
 6298WAT      O19135   1.780   0.261   7.515
 6298WAT     H119136   1.780   0.240   7.417
 6298WAT     H219137   1.800   0.178   7.567
 6299WAT      O19138   8.416   1.513   2.508
 6299WAT     H119139   8.429   1.532   2.605
 6299WAT     H219140   8.339   1.567   2.474
 6300WAT      O19141   4.354   6.877   9.267
 6300WAT     H119142   4.306   6.894   9.181
 6300WAT     H219143   4.290   6.887   9.343
 6301WAT      O19144   3.096   6.278   1.185
 6301WAT     H119145   3.101   6.365   1.137
 6301WAT     H219146   3.058   6.293   1.277
 6302WAT      O19147   0.123   0.483   9.422
 6302WAT     H119148   0.074   0.396   9.430
 6302WAT     H219149   0.218   0.470   9.449
 6303WAT      O19150   6.741   0.099   0.263
 6303WAT     H119151   6.833   0.088   0.300
 6303WAT     H219152   6.677   0.112   0.339
 6304WAT      O19153   3.333   9.683   9.769
 6304WAT     H119154   3.398   9.632   9.826
 6304WAT     H219155   3.269   9.619   9.726
 6305WAT      O19156   9.217   5.254   7.546
 6305WAT     H119157   9.246   5.340   7.504
 6305WAT     H219158   9.208   5.267   7.645
 6306WAT      O19159   8.466   3.680   5.182
 6306WAT     H119160   8.401   3.757   5.182
 6306WAT     H219161   8.417   3.596   5.159
 6307WAT      O19162   1.968   1.127   1.946
 6307WAT     H119163   2.033   1.118   2.021
 6307WAT     H219164   2.007   1.186   1.875
 6308WAT      O19165   6.604   7.094   6.314
 6308WAT     H119166   6.646   7.172   6.267
 6308WAT     H219167   6.584   7.119   6.409
 6309WAT      O19168   7.215   9.758   9.194
 6309WAT     H119169   7.124   9.780   9.159
 6309WAT     H219170   7.207   9.697   9.273
 6310WAT      O19171   5.137   3.634   7.653
 6310WAT     H119172   5.220   3.587   7.682
 6310WAT     H219173   5.161   3.718   7.605
 6311WAT      O19174   3.807   8.982   5.618
 6311WAT     H119175   3.763   9.044   5.682
 6311WAT     H219176   3.906   8.983   5.632
 6312WAT      O19177   1.010   7.364   7.934
 6312WAT     H119178   0.924   7.340   7.980
 6312WAT     H219179   0.991   7.422   7.855
 6313WAT      O19180   6.417   9.108   6.867
 6313WAT     H119181   6.379   9.037   6.808
 6313WAT     H219182   6.466   9.065   6.943
 6314WAT      O19183   9.442   7.363   5.523
 6314WAT     H119184   9.532   7.399   5.497
 6314WAT     H219185   9.382   7.363   5.444
 6315WAT      O19186   3.635   6.188   3.840
 6315WAT     H119187   3.713   6.242   3.870
 6315WAT     H219188   3.629   6.105   3.895
 6316WAT      O19189   7.724   0.020   2.867
 6316WAT     H119190   7.748   0.034   2.964
 6316WAT     H219191   7.797  -0.032   2.822
 6317WAT      O19192   7.967   4.306   5.404
 6317WAT     H119193   8.041   4.242   5.382
 6317WAT     H219194   7.926   4.280   5.491
 6318WAT      O19195   9.043   6.471   8.441
 6318WAT     H119196   9.015   6.479   8.346
 6318WAT     H219197   8.975   6.416   8.491
 6319WAT      O19198   9.041   1.784   5.782
 6319WAT     H119199   8.959   1.734   5.756
 6319WAT     H219200   9.053   1.780   5.881
 6320WAT      O19201   1.419   5.527   7.079
 6320WAT     H119202   1.471   5.607   7.110
 6320WAT     H219203   1.357   5.498   7.151
 6321WAT      O19204   5.011   8.362   7.478
 6321WAT     H119205   4.917   8.378   7.449
 6321WAT     H219206   5.032   8.264   7.474
 6322WAT      O19207   4.753   5.481   4.870
 6322WAT     H119208   4.680   5.507   4.933
 6322WAT     H219209   4.841   5.485   4.918
 6323WAT      O19210   3.436   0.446   4.703
 6323WAT     H119211   3.438   0.351   4.734
 6323WAT     H219212   3.530   0.477   4.684
 6324WAT      O19213   1.204   0.021   9.808
 6324WAT     H119214   1.118   0.041   9.762
 6324WAT     H219215   1.195   0.038   9.906
 6325WAT      O19216   1.708   8.285   0.977
 6325WAT     H119217   1.738   8.190   0.990
 6325WAT     H219218   1.689   8.301   0.881
 6326WAT      O19219   7.991   6.291   0.161
 6326WAT     H119220   7.964   6.195   0.153
 6326WAT     H219221   8.086   6.301   0.131
 6327WAT      O19222   2.504   7.565   9.481
 6327WAT     H119223   2.528   7.651   9.526
 6327WAT     H219224   2.436   7.517   9.536
 6328WAT      O19225   4.885   4.946   6.546
 6328WAT     H119226   4.897   4.953   6.447
 6328WAT     H219227   4.854   5.034   6.582
 6329WAT      O19228   5.438   9.457   4.142
 6329WAT     H119229   5.461   9.547   4.180
 6329WAT     H219230   5.370   9.413   4.202
 6330WAT      O19231   2.509   0.787   9.839
 6330WAT     H119232   2.536   0.880   9.862
 6330WAT     H219233   2.511   0.731   9.922
 6331WAT      O19234   2.314   1.115   0.070
 6331WAT     H119235   2.234   1.055   0.070
 6331WAT     H219236   2.299   1.193   0.010
 6332WAT      O19237   5.551   7.512   1.575
 6332WAT     H119238   5.573   7.553   1.664
 6332WAT     H219239   5.566   7.578   1.503
 6333WAT      O19240   4.039   7.829   2.554
 6333WAT     H119241   3.983   7.874   2.623
 6333WAT     H219242   3.984   7.761   2.505
 6334WAT      O19243   7.587   0.895   5.362
 6334WAT     H119244   7.559   0.893   5.458
 6334WAT     H219245   7.535   0.826   5.311
 6335WAT      O19246   7.022   3.983   9.417
 6335WAT     H119247   7.073   3.976   9.502
 6335WAT     H219248   6.983   4.074   9.409
 6336WAT      O19249   3.913   2.182   1.117
 6336WAT     H119250   3.981   2.227   1.059
 6336WAT     H219251   3.855   2.123   1.060
 6337WAT      O19252   0.885   4.449   3.655
 6337WAT     H119253   0.926   4.460   3.745
 6337WAT     H219254   0.957   4.431   3.588
 6338WAT      O19255   0.926   4.856   1.605
 6338WAT     H119256   0.997   4.816   1.546
 6338WAT     H219257   0.869   4.917   1.552
 6339WAT      O19258   1.891   4.012   8.480
 6339WAT     H119259   1.990   4.006   8.485
 6339WAT     H219260   1.865   4.097   8.433
 6340WAT      O19261   1.789   8.212   7.909
 6340WAT     H119262   1.694   8.243   7.912
 6340WAT     H219263   1.850   8.286   7.936
 6341WAT      O19264   7.307   5.195   1.921
 6341WAT     H119265   7.261   5.111   1.892
 6341WAT     H219266   7.363   5.231   1.846
 6342WAT      O19267   5.866   3.242   4.893
 6342WAT     H119268   5.862   3.173   4.965
 6342WAT     H219269   5.779   3.291   4.888
 6343WAT      O19270   2.243   0.765   0.736
 6343WAT     H119271   2.223   0.862   0.719
 6343WAT     H219272   2.212   0.710   0.659
 6344WAT      O19273   2.158   7.285   0.628
 6344WAT     H119274   2.230   7.258   0.565
 6344WAT     H219275   2.105   7.360   0.588
 6345WAT      O19276   4.517   4.795   3.361
 6345WAT     H119277   4.528   4.797   3.460
 6345WAT     H219278   4.607   4.804   3.318
 6346WAT      O19279   1.360   3.972   9.065
 6346WAT     H119280   1.387   4.063   9.097
 6346WAT     H219281   1.441   3.916   9.050
 6347WAT      O19282   5.110   6.172   1.647
 6347WAT     H119283   5.106   6.219   1.735
 6347WAT     H219284   5.184   6.210   1.592
 6348WAT      O19285   7.254   7.523   7.854
 6348WAT     H119286   7.306   7.489   7.775
 6348WAT     H219287   7.297   7.607   7.888
 6349WAT      O19288   5.686   2.016   5.786
 6349WAT     H119289   5.597   1.972   5.770
 6349WAT     H219290   5.756   1.945   5.798
 6350WAT      O19291   6.084   6.467   2.736
 6350WAT     H119292   6.168   6.487   2.786
 6350WAT     H219293   6.066   6.540   2.670
 6351WAT      O19294   2.695   0.366   1.049
 6351WAT     H119295   2.628   0.433   1.017
 6351WAT     H219296   2.689   0.358   1.148
 6352WAT      O19297   8.449   8.377   6.948
 6352WAT     H119298   8.440   8.306   7.018
 6352WAT     H219299   8.361   8.423   6.937
 6353WAT      O19300   3.109   8.164   2.588
 6353WAT     H119301   3.017   8.174   2.550
 6353WAT     H219302   3.134   8.067   2.591
 6354WAT      O19303  -0.003   9.611   2.587
 6354WAT     H119304  -0.020   9.709   2.599
 6354WAT     H219305   0.086   9.598   2.543
 6355WAT      O19306   2.493   8.128   5.309
 6355WAT     H119307   2.454   8.187   5.379
 6355WAT     H219308   2.429   8.118   5.233
 6356WAT      O19309   0.478   5.077   0.409
 6356WAT     H119310   0.509   5.030   0.327
 6356WAT     H219311   0.419   5.016   0.462
 6357WAT      O19312   0.501   7.407   5.075
 6357WAT     H119313   0.441   7.332   5.046
 6357WAT     H219314   0.467   7.446   5.160
 6358WAT      O19315   6.336   7.238   8.989
 6358WAT     H119316   6.301   7.188   8.910
 6358WAT     H219317   6.436   7.243   8.985
 6359WAT      O19318   7.394   0.512   7.970
 6359WAT     H119319   7.310   0.566   7.973
 6359WAT     H219320   7.380   0.426   8.019
 6360WAT      O19321   6.980   5.462   0.762
 6360WAT     H119322   6.921   5.534   0.798
 6360WAT     H219323   7.075   5.494   0.761
 6361WAT      O19324   2.046   5.845   4.146
 6361WAT     H119325   2.044   5.749   4.176
 6361WAT     H219326   2.080   5.902   4.221
 6362WAT      O19327   3.774   9.458   6.101
 6362WAT     H119328   3.707   9.494   6.166
 6362WAT     H219329   3.856   9.430   6.149
 6363WAT      O19330   6.111   2.184   3.757
 6363WAT     H119331   6.176   2.135   3.814
 6363WAT     H219332   6.021   2.185   3.802
 6364WAT      O19333   2.985   6.639   1.705
 6364WAT     H119334   3.074   6.594   1.709
 6364WAT     H219335   2.913   6.570   1.697
 6365WAT      O19336   6.879   2.962   4.885
 6365WAT     H119337   6.803   2.979   4.823
 6365WAT     H219338   6.849   2.976   4.979
 6366WAT      O19339   1.926   2.625   1.466
 6366WAT     H119340   2.014   2.619   1.419
 6366WAT     H219341   1.940   2.607   1.564
 6367WAT      O19342   6.834   7.612   2.885
 6367WAT     H119343   6.889   7.615   2.802
 6367WAT     H219344   6.737   7.617   2.861
 6368WAT      O19345   8.622   6.801   9.542
 6368WAT     H119346   8.588   6.787   9.449
 6368WAT     H219347   8.686   6.729   9.566
 6369WAT      O19348   5.299   0.324   8.776
 6369WAT     H119349   5.372   0.340   8.711
 6369WAT     H219350   5.326   0.251   8.839
 6370WAT      O19351   6.477   5.718   7.692
 6370WAT     H119352   6.536   5.766   7.627
 6370WAT     H219353   6.531   5.651   7.743
 6371WAT      O19354   1.464   3.686   5.530
 6371WAT     H119355   1.516   3.749   5.472
 6371WAT     H219356   1.509   3.678   5.619
 6372WAT      O19357   8.649   4.297   9.609
 6372WAT     H119358   8.661   4.306   9.708
 6372WAT     H219359   8.553   4.285   9.588
 6373WAT      O19360   1.138   1.621   4.674
 6373WAT     H119361   1.111   1.575   4.589
 6373WAT     H219362   1.056   1.655   4.721
 6374WAT      O19363   8.450   0.916   7.260
 6374WAT     H119364   8.412   0.978   7.328
 6374WAT     H219365   8.383   0.904   7.186
 6375WAT      O19366   2.737   5.930   9.637
 6375WAT     H119367   2.638   5.941   9.645
 6375WAT     H219368   2.761   5.912   9.541
 6376WAT      O19369   6.413   3.360   1.239
 6376WAT     H119370   6.397   3.284   1.302
 6376WAT     H219371   6.363   3.441   1.271
 6377WAT      O19372   7.052   4.258   9.610
 6377WAT     H119373   6.959   4.295   9.601
 6377WAT     H219374   7.116   4.316   9.560
 6378WAT      O19375   8.292   2.579   5.859
 6378WAT     H119376   8.198   2.607   5.838
 6378WAT     H219377   8.353   2.607   5.784
 6379WAT      O19378   4.825   2.200   2.829
 6379WAT     H119379   4.865   2.124   2.879
 6379WAT     H219380   4.847   2.191   2.732
 6380WAT      O19381   6.456   2.004   4.300
 6380WAT     H119382   6.375   1.953   4.331
 6380WAT     H219383   6.531   1.940   4.282
 6381WAT      O19384   2.243   4.446   0.039
 6381WAT     H119385   2.279   4.423  -0.052
 6381WAT     H219386   2.271   4.539   0.063
 6382WAT      O19387   1.557   3.502   9.629
 6382WAT     H119388   1.626   3.446   9.675
 6382WAT     H219389   1.570   3.497   9.530
 6383WAT      O19390   5.805   0.333   4.982
 6383WAT     H119391   5.786   0.417   4.932
 6383WAT     H219392   5.719   0.288   5.006
 6384WAT      O19393   8.409   1.055   6.092
 6384WAT     H119394   8.332   1.018   6.143
 6384WAT     H219395   8.441   0.988   6.024
 6385WAT      O19396   3.705   2.861   2.900
 6385WAT     H119397   3.662   2.888   2.814
 6385WAT     H219398   3.639   2.810   2.955
 6386WAT      O19399   5.499   8.879   0.963
 6386WAT     H119400   5.493   8.824   1.047
 6386WAT     H219401   5.477   8.974   0.984
 6387WAT      O19402   9.662   0.939   2.730
 6387WAT     H119403   9.583   0.933   2.790
 6387WAT     H219404   9.714   0.854   2.735
 6388WAT      O19405   3.266   9.555   4.021
 6388WAT     H119406   3.275   9.459   4.046
 6388WAT     H219407   3.356   9.592   3.999
 6389WAT      O19408   1.643   6.061   2.718
 6389WAT     H119409   1.743   6.050   2.711
 6389WAT     H219410   1.608   6.096   2.632
 6390WAT      O19411   5.222   5.674   4.402
 6390WAT     H119412   5.297   5.738   4.385
 6390WAT     H219413   5.243   5.618   4.482
 6391WAT      O19414   7.653   5.054   3.909
 6391WAT     H119415   7.558   5.044   3.940
 6391WAT     H219416   7.664   5.010   3.820
 6392WAT      O19417   5.429   7.551   8.306
 6392WAT     H119418   5.486   7.483   8.262
 6392WAT     H219419   5.356   7.506   8.357
 6393WAT      O19420   5.687   9.520   5.699
 6393WAT     H119421   5.717   9.606   5.659
 6393WAT     H219422   5.629   9.471   5.633
 6394WAT      O19423   1.575   2.718   6.370
 6394WAT     H119424   1.513   2.677   6.304
 6394WAT     H219425   1.622   2.646   6.421
 6395WAT      O19426   9.765   4.311   4.331
 6395WAT     H119427   9.836   4.361   4.282
 6395WAT     H219428   9.797   4.286   4.422
 6396WAT      O19429   1.997   4.844   7.290
 6396WAT     H119430   1.994   4.778   7.215
 6396WAT     H219431   1.944   4.926   7.266
 6397WAT      O19432   3.937   0.339   7.472
 6397WAT     H119433   4.021   0.338   7.526
 6397WAT     H219434   3.948   0.281   7.391
 6398WAT      O19435   2.054   0.264   3.006
 6398WAT     H119436   2.141   0.305   3.034
 6398WAT     H219437   2.023   0.306   2.920
 6399WAT      O19438   2.554   8.601   4.663
 6399WAT     H119439   2.475   8.662   4.671
 6399WAT     H219440   2.531   8.511   4.700
 6400WAT      O19441   0.073   3.211   0.092
 6400WAT     H119442   0.098   3.145   0.162
 6400WAT     H219443   0.045   3.297   0.135
 6401WAT      O19444   0.633   0.235   5.014
 6401WAT     H119445   0.655   0.210   4.920
 6401WAT     H219446   0.534   0.243   5.024
 6402WAT      O19447   6.338   7.040   6.702
 6402WAT     H119448   6.254   7.046   6.757
 6402WAT     H219449   6.318   6.994   6.616
 6403WAT      O19450   2.170   4.091   8.321
 6403WAT     H119451   2.138   4.067   8.230
 6403WAT     H219452   2.168   4.190   8.332
 6404WAT      O19453   5.366   9.042   1.147
 6404WAT     H119454   5.337   9.030   1.242
 6404WAT     H219455   5.448   9.100   1.144
 6405WAT      O19456   4.140   6.155   2.657
 6405WAT     H119457   4.196   6.072   2.664
 6405WAT     H219458   4.064   6.149   2.721
 6406WAT      O19459   1.501   5.079   4.184
 6406WAT     H119460   1.522   5.104   4.278
 6406WAT     H219461   1.459   5.157   4.137
 6407WAT      O19462   2.832   5.390   1.643
 6407WAT     H119463   2.851   5.392   1.741
 6407WAT     H219464   2.737   5.362   1.628
 6408WAT      O19465   7.772   1.787   1.119
 6408WAT     H119466   7.797   1.812   1.212
 6408WAT     H219467   7.846   1.812   1.056
 6409WAT      O19468   6.230   0.593   9.469
 6409WAT     H119469   6.140   0.555   9.449
 6409WAT     H219470   6.274   0.540   9.542
 6410WAT      O19471   6.207   3.884   5.677
 6410WAT     H119472   6.258   3.968   5.697
 6410WAT     H219473   6.112   3.895   5.707
 6411WAT      O19474   6.257   5.399   3.860
 6411WAT     H119475   6.319   5.404   3.782
 6411WAT     H219476   6.275   5.314   3.910
 6412WAT      O19477   4.340   7.094   7.980
 6412WAT     H119478   4.282   7.158   8.031
 6412WAT     H219479   4.307   7.088   7.886
 6413WAT      O19480   8.203   3.273   8.218
 6413WAT     H119481   8.219   3.239   8.311
 6413WAT     H219482   8.124   3.335   8.219
 6414WAT      O19483   6.477   7.224   1.417
 6414WAT     H119484   6.467   7.157   1.343
 6414WAT     H219485   6.516   7.179   1.498
 6415WAT      O19486   3.309   6.654   1.146
 6415WAT     H119487   3.266   6.673   1.234
 6415WAT     H219488   3.395   6.705   1.139
 6416WAT      O19489   8.887   5.192   5.700
 6416WAT     H119490   8.971   5.138   5.693
 6416WAT     H219491   8.909   5.289   5.696
 6417WAT      O19492   2.504   6.669   8.080
 6417WAT     H119493   2.527   6.704   7.989
 6417WAT     H219494   2.549   6.581   8.094
 6418WAT      O19495   9.437   0.024   7.346
 6418WAT     H119496   9.487   0.008   7.431
 6418WAT     H219497   9.452   0.119   7.317
 6419WAT      O19498   0.445   4.969   1.584
 6419WAT     H119499   0.443   4.980   1.684
 6419WAT     H219500   0.353   4.945   1.552
 6420WAT      O19501   0.957   7.363   3.197
 6420WAT     H119502   0.938   7.446   3.143
 6420WAT     H219503   1.002   7.389   3.282
 6421WAT      O19504   7.997   0.788   1.977
 6421WAT     H119505   8.029   0.735   1.898
 6421WAT     H219506   7.897   0.794   1.974
 6422WAT      O19507   3.169   9.025   0.579
 6422WAT     H119508   3.099   9.016   0.650
 6422WAT     H219509   3.256   9.051   0.621
 6423WAT      O19510   2.476   9.449   0.313
 6423WAT     H119511   2.423   9.414   0.235
 6423WAT     H219512   2.546   9.512   0.279
 6424WAT      O19513   6.556   3.919   3.338
 6424WAT     H119514   6.648   3.922   3.375
 6424WAT     H219515   6.502   3.994   3.376
 6425WAT      O19516   7.421   2.035   3.853
 6425WAT     H119517   7.509   2.069   3.886
 6425WAT     H219518   7.365   2.111   3.821
 6426WAT      O19519   2.102   8.171   6.496
 6426WAT     H119520   2.087   8.224   6.579
 6426WAT     H219521   2.014   8.143   6.457
 6427WAT      O19522   8.318   9.115   8.606
 6427WAT     H119523   8.325   9.104   8.706
 6427WAT     H219524   8.390   9.062   8.562
 6428WAT      O19525   2.663   7.306   5.643
 6428WAT     H119526   2.570   7.322   5.609
 6428WAT     H219527   2.661   7.302   5.743
 6429WAT      O19528   0.713   4.876   2.176
 6429WAT     H119529   0.760   4.803   2.226
 6429WAT     H219530   0.779   4.948   2.154
 6430WAT      O19531   1.326   8.648   7.714
 6430WAT     H119532   1.357   8.585   7.785
 6430WAT     H219533   1.369   8.622   7.627
 6431WAT      O19534   3.852   1.912   8.357
 6431WAT     H119535   3.842   2.003   8.317
 6431WAT     H219536   3.818   1.913   8.452
 6432WAT      O19537   6.074   1.766   0.917
 6432WAT     H119538   6.038   1.816   0.996
 6432WAT     H219539   6.027   1.678   0.910
 6433WAT      O19540   8.266   7.236   0.116
 6433WAT     H119541   8.312   7.275   0.195
 6433WAT     H219542   8.167   7.247   0.126
 6434WAT      O19543   4.546   8.100   2.901
 6434WAT     H119544   4.600   8.117   2.984
 6434WAT     H219545   4.608   8.092   2.822
 6435WAT      O19546   5.580   3.681   0.799
 6435WAT     H119547   5.547   3.775   0.807
 6435WAT     H219548   5.611   3.663   0.706
 6436WAT      O19549   2.750   0.312   6.516
 6436WAT     H119550   2.813   0.249   6.470
 6436WAT     H219551   2.795   0.349   6.598
 6437WAT      O19552   9.562   8.117   1.207
 6437WAT     H119553   9.554   8.043   1.141
 6437WAT     H219554   9.532   8.203   1.165
 6438WAT      O19555   3.603   6.460   1.481
 6438WAT     H119556   3.507   6.454   1.453
 6438WAT     H219557   3.653   6.515   1.415
 6439WAT      O19558   5.718   3.857   6.461
 6439WAT     H119559   5.759   3.902   6.382
 6439WAT     H219560   5.628   3.821   6.437
 6440WAT      O19561   2.728   1.364   2.658
 6440WAT     H119562   2.767   1.407   2.576
 6440WAT     H219563   2.746   1.265   2.655
 6441WAT      O19564   8.842   2.432   6.500
 6441WAT     H119565   8.926   2.461   6.455
 6441WAT     H219566   8.787   2.512   6.523
 6442WAT      O19567   7.951   4.285   3.226
 6442WAT     H119568   7.874   4.223   3.212
 6442WAT     H219569   8.035   4.231   3.238
 6443WAT      O19570   6.610   2.204   4.999
 6443WAT     H119571   6.615   2.107   5.024
 6443WAT     H219572   6.538   2.216   4.930
 6444WAT      O19573   6.801   0.154   9.493
 6444WAT     H119574   6.846   0.072   9.530
 6444WAT     H219575   6.864   0.232   9.498
 6445WAT      O19576   7.701   6.068   1.555
 6445WAT     H119577   7.774   6.038   1.615
 6445WAT     H219578   7.617   6.081   1.608
 6446WAT      O19579   4.707   1.856   5.172
 6446WAT     H119580   4.624   1.827   5.219
 6446WAT     H219581   4.683   1.914   5.094
 6447WAT      O19582   2.671   6.073   0.120
 6447WAT     H119583   2.577   6.046   0.141
 6447WAT     H219584   2.676   6.173   0.118
 6448WAT      O19585   0.829   6.516   0.593
 6448WAT     H119586   0.774   6.457   0.652
 6448WAT     H219587   0.805   6.612   0.609
 6449WAT      O19588   4.575   7.910   7.758
 6449WAT     H119589   4.534   7.921   7.668
 6449WAT     H219590   4.672   7.888   7.748
 6450WAT      O19591   2.489   8.050   0.648
 6450WAT     H119592   2.578   8.093   0.632
 6450WAT     H219593   2.421   8.119   0.670
 6451WAT      O19594   3.572   4.411   0.544
 6451WAT     H119595   3.627   4.494   0.553
 6451WAT     H219596   3.484   4.433   0.502
 6452WAT      O19597   6.080   4.211   1.242
 6452WAT     H119598   6.077   4.196   1.144
 6452WAT     H219599   6.175   4.208   1.274
 6453WAT      O19600   5.427   1.218   7.200
 6453WAT     H119601   5.401   1.287   7.267
 6453WAT     H219602   5.379   1.234   7.114
 6454WAT      O19603   9.241   4.785   6.136
 6454WAT     H119604   9.288   4.820   6.217
 6454WAT     H219605   9.248   4.685   6.136
 6455WAT      O19606   1.774   7.925   9.526
 6455WAT     H119607   1.806   7.909   9.619
 6455WAT     H219608   1.717   7.849   9.496
 6456WAT      O19609   7.373   4.416   1.762
 6456WAT     H119610   7.335   4.506   1.740
 6456WAT     H219611   7.387   4.364   1.678
 6457WAT      O19612   9.657   3.997   6.631
 6457WAT     H119613   9.714   4.044   6.699
 6457WAT     H219614   9.572   3.967   6.675
 6458WAT      O19615   4.439   5.434   3.089
 6458WAT     H119616   4.443   5.453   3.187
 6458WAT     H219617   4.528   5.402   3.057
 6459WAT      O19618   1.324   2.794   0.016
 6459WAT     H119619   1.416   2.829  -0.003
 6459WAT     H219620   1.308   2.712  -0.039
 6460WAT      O19621   0.446   2.895   2.053
 6460WAT     H119622   0.426   2.827   1.983
 6460WAT     H219623   0.371   2.899   2.119
 6461WAT      O19624   8.455   5.010   5.221
 6461WAT     H119625   8.481   5.071   5.296
 6461WAT     H219626   8.490   4.918   5.239
 6462WAT      O19627   0.889   8.349   6.849
 6462WAT     H119628   0.857   8.365   6.943
 6462WAT     H219629   0.823   8.387   6.785
 6463WAT      O19630   4.457   1.849   7.589
 6463WAT     H119631   4.540   1.899   7.613
 6463WAT     H219632   4.379   1.890   7.636
 6464WAT      O19633   4.312   4.069   2.262
 6464WAT     H119634   4.357   4.053   2.350
 6464WAT     H219635   4.379   4.102   2.196
 6465WAT      O19636   5.805   7.335   8.282
 6465WAT     H119637   5.891   7.320   8.234
 6465WAT     H219638   5.734   7.277   8.242
 6466WAT      O19639   7.361   3.392   5.575
 6466WAT     H119640   7.429   3.453   5.535
 6466WAT     H219641   7.312   3.345   5.502
 6467WAT      O19642   8.052   8.400   0.814
 6467WAT     H119643   8.008   8.481   0.853
 6467WAT     H219644   8.083   8.421   0.721
 6468WAT      O19645   2.247   6.367   2.670
 6468WAT     H119646   2.202   6.451   2.640
 6468WAT     H219647   2.270   6.375   2.767
 6469WAT      O19648   3.542   2.761   8.689
 6469WAT     H119649   3.478   2.810   8.629
 6469WAT     H219650   3.621   2.819   8.708
 6470WAT      O19651   1.944   1.370   0.633
 6470WAT     H119652   1.846   1.352   0.638
 6470WAT     H219653   1.966   1.445   0.695
 6471WAT      O19654   5.063   8.346   8.266
 6471WAT     H119655   5.161   8.351   8.285
 6471WAT     H219656   5.047   8.356   8.168
 6472WAT      O19657   5.265   3.795   8.848
 6472WAT     H119658   5.190   3.730   8.863
 6472WAT     H219659   5.275   3.853   8.929
 6473WAT      O19660   5.821   4.383   3.013
 6473WAT     H119661   5.897   4.373   2.948
 6473WAT     H219662   5.775   4.295   3.024
 6474WAT      O19663   8.111   2.688   6.971
 6474WAT     H119664   8.176   2.669   6.897
 6474WAT     H219665   8.077   2.602   7.009
 6475WAT      O19666   9.168   7.323   9.689
 6475WAT     H119667   9.165   7.408   9.742
 6475WAT     H219668   9.079   7.306   9.649
 6476WAT      O19669   2.382   7.307   3.763
 6476WAT     H119670   2.348   7.398   3.785
 6476WAT     H219671   2.371   7.289   3.665
 6477WAT      O19672   7.510   1.067   2.604
 6477WAT     H119673   7.437   1.135   2.597
 6477WAT     H219674   7.571   1.077   2.525
 6478WAT      O19675   4.846   5.727   2.439
 6478WAT     H119676   4.755   5.712   2.400
 6478WAT     H219677   4.881   5.641   2.475
 6479WAT      O19678   8.596   7.452   7.555
 6479WAT     H119679   8.572   7.370   7.502
 6479WAT     H219680   8.513   7.492   7.593
 6480WAT      O19681   4.123   6.372   7.711
 6480WAT     H119682   4.061   6.294   7.719
 6480WAT     H219683   4.149   6.383   7.616
 6481WAT      O19684   9.852   5.044   3.029
 6481WAT     H119685   9.895   5.131   3.051
 6481WAT     H219686   9.909   4.969   3.061
 6482WAT      O19687   1.144   4.704   0.419
 6482WAT     H119688   1.171   4.789   0.374
 6482WAT     H219689   1.110   4.724   0.510
 6483WAT      O19690   9.603   0.410   8.035
 6483WAT     H119691   9.608   0.425   7.936
 6483WAT     H219692   9.551   0.485   8.077
 6484WAT      O19693   5.339   8.687   0.856
 6484WAT     H119694   5.382   8.613   0.907
 6484WAT     H219695   5.389   8.772   0.874
 6485WAT      O19696   0.735   8.604   4.682
 6485WAT     H119697   0.759   8.560   4.595
 6485WAT     H219698   0.693   8.693   4.664
 6486WAT      O19699   9.695   5.854   5.313
 6486WAT     H119700   9.699   5.774   5.372
 6486WAT     H219701   9.659   5.932   5.365
 6487WAT      O19702   6.613   0.341   7.486
 6487WAT     H119703   6.559   0.312   7.565
 6487WAT     H219704   6.634   0.262   7.430
 6488WAT      O19705   8.938   5.653   1.178
 6488WAT     H119706   8.925   5.715   1.255
 6488WAT     H219707   8.907   5.697   1.094
 6489WAT      O19708   4.347   2.291   0.486
 6489WAT     H119709   4.281   2.230   0.530
 6489WAT     H219710   4.366   2.258   0.393
 6490WAT      O19711   1.292   5.171   8.664
 6490WAT     H119712   1.201   5.158   8.703
 6490WAT     H219713   1.284   5.207   8.571
 6491WAT      O19714   0.163   1.633   7.222
 6491WAT     H119715   0.191   1.542   7.192
 6491WAT     H219716   0.139   1.631   7.319
 6492WAT      O19717   0.743   1.707   9.721
 6492WAT     H119718   0.838   1.737   9.727
 6492WAT     H219719   0.739   1.615   9.685
 6493WAT      O19720   7.552   6.530   2.768
 6493WAT     H119721   7.646   6.558   2.784
 6493WAT     H219722   7.538   6.514   2.670
 6494WAT      O19723   7.905   7.181   2.514
 6494WAT     H119724   7.820   7.138   2.542
 6494WAT     H219725   7.978   7.154   2.577
 6495WAT      O19726   2.054   2.311   0.934
 6495WAT     H119727   2.033   2.265   0.847
 6495WAT     H219728   2.131   2.373   0.921
 6496WAT      O19729   8.760   7.108   2.736
 6496WAT     H119730   8.860   7.116   2.738
 6496WAT     H219731   8.729   7.062   2.819
 6497WAT      O19732   4.060   5.098   8.951
 6497WAT     H119733   4.100   5.123   9.039
 6497WAT     H219734   4.044   4.999   8.947
 6498WAT      O19735   8.252   7.933   4.997
 6498WAT     H119736   8.298   7.860   5.048
 6498WAT     H219737   8.208   7.996   5.061
 6499WAT      O19738   2.425   3.771   8.686
 6499WAT     H119739   2.369   3.810   8.613
 6499WAT     H219740   2.391   3.804   8.774
 6500WAT      O19741   9.182   3.824   2.274
 6500WAT     H119742   9.123   3.744   2.264
 6500WAT     H219743   9.171   3.883   2.194
 6501WAT      O19744   7.160   4.879   5.092
 6501WAT     H119745   7.231   4.948   5.076
 6501WAT     H219746   7.148   4.865   5.190
 6502WAT      O19747   2.355   9.762   4.771
 6502WAT     H119748   2.391   9.720   4.687
 6502WAT     H219749   2.355   9.861   4.761
 6503WAT      O19750   6.879   8.165   2.911
 6503WAT     H119751   6.879   8.264   2.925
 6503WAT     H219752   6.799   8.139   2.857
 6504WAT      O19753   3.785   5.584   2.717
 6504WAT     H119754   3.820   5.602   2.809
 6504WAT     H219755   3.695   5.542   2.723
 6505WAT      O19756   5.774   3.408   1.783
 6505WAT     H119757   5.807   3.410   1.877
 6505WAT     H219758   5.827   3.472   1.727
 6506WAT      O19759   9.858   5.223   4.412
 6506WAT     H119760   9.819   5.315   4.415
 6506WAT     H219761   9.845   5.178   4.500
 6507WAT      O19762   1.271   1.538   2.107
 6507WAT     H119763   1.181   1.549   2.149
 6507WAT     H219764   1.270   1.581   2.016
 6508WAT      O19765   2.635   1.189   8.878
 6508WAT     H119766   2.684   1.121   8.823
 6508WAT     H219767   2.673   1.280   8.862
 6509WAT      O19768   3.371   8.189   4.159
 6509WAT     H119769   3.463   8.192   4.200
 6509WAT     H219770   3.329   8.279   4.166
 6510WAT      O19771   6.349   6.569   0.436
 6510WAT     H119772   6.288   6.571   0.516
 6510WAT     H219773   6.409   6.649   0.438
 6511WAT      O19774   2.091   4.064   8.059
 6511WAT     H119775   2.160   4.095   7.993
 6511WAT     H219776   2.068   3.969   8.040
 6512WAT      O19777   3.856   7.358   9.339
 6512WAT     H119778   3.835   7.263   9.359
 6512WAT     H219779   3.916   7.363   9.259
 6513WAT      O19780   0.914   1.055   8.510
 6513WAT     H119781   0.914   1.029   8.606
 6513WAT     H219782   0.926   1.154   8.502
 6514WAT      O19783   1.318   8.669   1.038
 6514WAT     H119784   1.399   8.676   0.979
 6514WAT     H219785   1.344   8.689   1.132
 6515WAT      O19786   0.957   2.653   0.013
 6515WAT     H119787   0.956   2.743  -0.029
 6515WAT     H219788   1.038   2.644   0.071
 6516WAT      O19789   8.317   5.977   5.810
 6516WAT     H119790   8.295   5.986   5.713
 6516WAT     H219791   8.246   5.924   5.856
 6517WAT      O19792   4.426   0.684   0.907
 6517WAT     H119793   4.463   0.659   0.818
 6517WAT     H219794   4.488   0.748   0.952
 6518WAT      O19795   5.691   0.906   5.781
 6518WAT     H119796   5.708   0.867   5.691
 6518WAT     H219797   5.592   0.920   5.793
 6519WAT      O19798   6.910   2.584   9.314
 6519WAT     H119799   6.924   2.536   9.401
 6519WAT     H219800   6.886   2.519   9.243
 6520WAT      O19801   3.938   1.038   4.174
 6520WAT     H119802   3.919   1.072   4.267
 6520WAT     H219803   3.979   1.112   4.120
 6521WAT      O19804   7.401   2.519   8.781
 6521WAT     H119805   7.371   2.506   8.875
 6521WAT     H219806   7.411   2.431   8.736
 6522WAT      O19807   4.286   5.433   6.377
 6522WAT     H119808   4.240   5.502   6.434
 6522WAT     H219809   4.218   5.368   6.344
 6523WAT      O19810   9.730   0.195   0.542
 6523WAT     H119811   9.667   0.154   0.477
 6523WAT     H219812   9.818   0.148   0.538
 6524WAT      O19813   7.402   8.697   6.469
 6524WAT     H119814   7.364   8.789   6.474
 6524WAT     H219815   7.450   8.676   6.555
 6525WAT      O19816   8.789   0.280   6.368
 6525WAT     H119817   8.717   0.215   6.394
 6525WAT     H219818   8.764   0.371   6.401
 6526WAT      O19819   6.634   9.812   5.781
 6526WAT     H119820   6.591   9.807   5.872
 6526WAT     H219821   6.632   9.721   5.738
 6527WAT      O19822   0.538   6.382   5.436
 6527WAT     H119823   0.470   6.316   5.404
 6527WAT     H219824   0.513   6.473   5.402
 6528WAT      O19825   2.886   1.077   7.651
 6528WAT     H119826   2.978   1.043   7.672
 6528WAT     H219827   2.892   1.154   7.587
 6529WAT      O19828   5.482   2.765   7.287
 6529WAT     H119829   5.496   2.840   7.351
 6529WAT     H219830   5.537   2.686   7.314
 6530WAT      O19831   3.973   1.795   3.288
 6530WAT     H119832   3.883   1.838   3.275
 6530WAT     H219833   4.034   1.821   3.213
 6531WAT      O19834   5.938   3.516   5.741
 6531WAT     H119835   5.909   3.531   5.835
 6531WAT     H219836   5.971   3.601   5.702
 6532WAT      O19837   9.219   5.872   8.177
 6532WAT     H119838   9.262   5.918   8.099
 6532WAT     H219839   9.283   5.870   8.254
 6533WAT      O19840   7.233   7.460   2.732
 6533WAT     H119841   7.217   7.501   2.822
 6533WAT     H219842   7.313   7.399   2.737
 6534WAT      O19843   4.722   4.927   0.325
 6534WAT     H119844   4.667   4.879   0.393
 6534WAT     H219845   4.767   4.861   0.266
 6535WAT      O19846   9.609   1.240   0.331
 6535WAT     H119847   9.560   1.166   0.378
 6535WAT     H219848   9.693   1.261   0.380
 6536WAT      O19849   6.892   4.989   6.739
 6536WAT     H119850   6.818   4.927   6.763
 6536WAT     H219851   6.974   4.966   6.792
 6537WAT      O19852   8.256   4.927   0.765
 6537WAT     H119853   8.343   4.891   0.800
 6537WAT     H219854   8.239   4.890   0.674
 6538WAT      O19855   5.390   6.766   6.403
 6538WAT     H119856   5.474   6.715   6.423
 6538WAT     H219857   5.390   6.795   6.307
 6539WAT      O19858   3.981   4.032   5.198
 6539WAT     H119859   3.923   3.950   5.196
 6539WAT     H219860   3.924   4.113   5.199
 6540WAT      O19861   5.378   1.609   3.780
 6540WAT     H119862   5.281   1.596   3.802
 6540WAT     H219863   5.431   1.536   3.823
 6541WAT      O19864   9.826   0.076   5.766
 6541WAT     H119865   9.785   0.144   5.706
 6541WAT     H219866   9.791   0.087   5.859
 6542WAT      O19867   0.072   1.591   0.046
 6542WAT     H119868   0.165   1.556   0.032
 6542WAT     H219869   0.060   1.676  -0.005
 6543WAT      O19870   2.898   4.665   9.633
 6543WAT     H119871   2.818   4.635   9.580
 6543WAT     H219872   2.977   4.673   9.571
 6544WAT      O19873   3.132   7.877   1.269
 6544WAT     H119874   3.080   7.808   1.321
 6544WAT     H219875   3.083   7.964   1.271
 6545WAT      O19876   9.445   5.970   9.226
 6545WAT     H119877   9.529   5.989   9.277
 6545WAT     H219878   9.366   6.003   9.278
 6546WAT      O19879   8.510   4.354   1.710
 6546WAT     H119880   8.604   4.342   1.742
 6546WAT     H219881   8.472   4.438   1.749
 6547WAT      O19882   9.341   4.380   5.310
 6547WAT     H119883   9.272   4.328   5.259
 6547WAT     H219884   9.299   4.419   5.392
 6548WAT      O19885   3.686   2.820   1.332
 6548WAT     H119886   3.644   2.832   1.242
 6548WAT     H219887   3.784   2.841   1.325
 6549WAT      O19888   8.744   8.712   2.238
 6549WAT     H119889   8.713   8.808   2.242
 6549WAT     H219890   8.796   8.697   2.154
 6550WAT      O19891   1.328   8.388   6.421
 6550WAT     H119892   1.290   8.478   6.397
 6550WAT     H219893   1.332   8.380   6.521
 6551WAT      O19894   3.762   8.322   3.243
 6551WAT     H119895   3.830   8.319   3.316
 6551WAT     H219896   3.805   8.296   3.157
 6552WAT      O19897   8.770   7.626   5.564
 6552WAT     H119898   8.787   7.655   5.470
 6552WAT     H219899   8.771   7.526   5.568
 6553WAT      O19900   3.481   1.612   6.662
 6553WAT     H119901   3.580   1.605   6.650
 6553WAT     H219902   3.456   1.708   6.675
 6554WAT      O19903   1.953   4.418   6.226
 6554WAT     H119904   1.879   4.440   6.164
 6554WAT     H219905   1.927   4.441   6.320
 6555WAT      O19906   4.193   3.412   9.749
 6555WAT     H119907   4.235   3.499   9.724
 6555WAT     H219908   4.095   3.425   9.763
 6556WAT      O19909   4.944   4.761   1.354
 6556WAT     H119910   4.887   4.843   1.362
 6556WAT     H219911   4.898   4.685   1.399
 6557WAT      O19912   8.172   9.753   9.710
 6557WAT     H119913   8.114   9.747   9.629
 6557WAT     H219914   8.178   9.663   9.754
 6558WAT      O19915   9.018   9.244   9.885
 6558WAT     H119916   9.058   9.329   9.920
 6558WAT     H219917   9.058   9.222   9.796
 6559WAT      O19918   3.766   2.171   4.834
 6559WAT     H119919   3.784   2.260   4.875
 6559WAT     H219920   3.669   2.165   4.808
 6560WAT      O19921   3.026   6.404   2.509
 6560WAT     H119922   3.063   6.399   2.602
 6560WAT     H219923   2.990   6.496   2.492
 6561WAT      O19924   6.326   9.652   7.678
 6561WAT     H119925   6.279   9.599   7.608
 6561WAT     H219926   6.273   9.650   7.763
 6562WAT      O19927   0.506   7.660   1.480
 6562WAT     H119928   0.413   7.641   1.447
 6562WAT     H219929   0.573   7.620   1.417
 6563WAT      O19930   6.392   3.785   6.976
 6563WAT     H119931   6.444   3.751   6.897
 6563WAT     H219932   6.312   3.727   6.990
 6564WAT      O19933   2.453   2.273   5.569
 6564WAT     H119934   2.482   2.319   5.653
 6564WAT     H219935   2.356   2.249   5.576
 6565WAT      O19936   0.567   0.188   1.231
 6565WAT     H119937   0.624   0.164   1.310
 6565WAT     H219938   0.506   0.111   1.210
 6566WAT      O19939   0.549   4.144   4.607
 6566WAT     H119940   0.586   4.199   4.683
 6566WAT     H219941   0.490   4.072   4.644
 6567WAT      O19942   1.492   9.207   1.475
 6567WAT     H119943   1.480   9.205   1.376
 6567WAT     H219944   1.547   9.286   1.501
 6568WAT      O19945   8.230   8.003   9.063
 6568WAT     H119946   8.272   8.068   8.998
 6568WAT     H219947   8.134   7.991   9.040
 6569WAT      O19948   3.991   9.461   7.518
 6569WAT     H119949   4.033   9.552   7.521
 6569WAT     H219950   3.985   9.430   7.423
 6570WAT      O19951   5.014   3.726   7.263
 6570WAT     H119952   5.101   3.727   7.213
 6570WAT     H219953   4.981   3.632   7.271
 6571WAT      O19954   6.124   8.351   4.372
 6571WAT     H119955   6.079   8.381   4.456
 6571WAT     H219956   6.093   8.259   4.348
 6572WAT      O19957   8.128   6.233   6.897
 6572WAT     H119958   8.180   6.318   6.908
 6572WAT     H219959   8.142   6.175   6.977
 6573WAT      O19960   1.831   3.113   7.769
 6573WAT     H119961   1.894   3.036   7.776
 6573WAT     H219962   1.764   3.108   7.843
 6574WAT      O19963   1.606   9.664   3.603
 6574WAT     H119964   1.609   9.701   3.696
 6574WAT     H219965   1.562   9.731   3.543
 6575WAT      O19966   4.521   6.162   3.395
 6575WAT     H119967   4.439   6.113   3.424
 6575WAT     H219968   4.518   6.177   3.296
 6576WAT      O19969   5.594   5.417   3.489
 6576WAT     H119970   5.678   5.409   3.543
 6576WAT     H219971   5.545   5.330   3.490
 6577WAT      O19972   2.712   0.118   5.628
 6577WAT     H119973   2.641   0.049   5.639
 6577WAT     H219974   2.719   0.174   5.710
 6578WAT      O19975   0.471   1.509   1.330
 6578WAT     H119976   0.386   1.463   1.306
 6578WAT     H219977   0.538   1.498   1.256
 6579WAT      O19978   7.454   8.130   9.044
 6579WAT     H119979   7.376   8.185   9.072
 6579WAT     H219980   7.429   8.033   9.043
 6580WAT      O19981   2.516   7.208   3.981
 6580WAT     H119982   2.457   7.259   3.918
 6580WAT     H219983   2.576   7.271   4.030
 6581WAT      O19984   2.336   4.158   4.479
 6581WAT     H119985   2.272   4.145   4.554
 6581WAT     H219986   2.428   4.174   4.516
 6582WAT      O19987   3.717   9.808   2.522
 6582WAT     H119988   3.790   9.743   2.498
 6582WAT     H219989   3.757   9.895   2.549
 6583WAT      O19990   2.573   4.389   6.236
 6583WAT     H119991   2.602   4.383   6.141
 6583WAT     H219992   2.481   4.428   6.240
 6584WAT      O19993   8.194   6.845   3.596
 6584WAT     H119994   8.284   6.803   3.605
 6584WAT     H219995   8.127   6.793   3.647
 6585WAT      O19996   0.560   1.573   0.223
 6585WAT     H119997   0.623   1.626   0.167
 6585WAT     H219998   0.584   1.476   0.217
 6586WAT      O19999   4.693   9.303   2.080
 6586WAT     H120000   4.660   9.364   2.007
 6586WAT     H220001   4.772   9.345   2.124
 6587WAT      O20002   7.725   4.771   0.020
 6587WAT     H120003   7.805   4.831   0.015
 6587WAT     H220004   7.642   4.826   0.013
 6588WAT      O20005   9.570   3.017   8.520
 6588WAT     H120006   9.665   3.019   8.489
 6588WAT     H220007   9.564   3.053   8.613
 6589WAT      O20008   3.218   7.236   5.538
 6589WAT     H120009   3.123   7.260   5.558
 6589WAT     H220010   3.263   7.312   5.492
 6590WAT      O20011   6.848   4.846   9.125
 6590WAT     H120012   6.924   4.911   9.115
 6590WAT     H220013   6.840   4.791   9.041
 6591WAT      O20014   8.627   0.144   9.603
 6591WAT     H120015   8.686   0.064   9.608
 6591WAT     H220016   8.541   0.120   9.558
 6592WAT      O20017   3.624   8.867   3.765
 6592WAT     H120018   3.633   8.943   3.701
 6592WAT     H220019   3.563   8.797   3.727
 6593WAT      O20020   7.621   0.481   7.319
 6593WAT     H120021   7.554   0.410   7.301
 6593WAT     H220022   7.686   0.449   7.389
 6594WAT      O20023   8.679   5.016   8.289
 6594WAT     H120024   8.678   5.034   8.191
 6594WAT     H220025   8.673   4.918   8.306
 6595WAT      O20026   8.613   7.476   8.649
 6595WAT     H120027   8.709   7.456   8.630
 6595WAT     H220028   8.591   7.445   8.742
 6596WAT      O20029   4.308   6.208   0.589
 6596WAT     H120030   4.369   6.262   0.531
 6596WAT     H220031   4.356   6.182   0.673
 6597WAT      O20032   6.520   1.320   5.508
 6597WAT     H120033   6.615   1.325   5.478
 6597WAT     H220034   6.480   1.234   5.476
 6598WAT      O20035   6.595   4.869   6.520
 6598WAT     H120036   6.639   4.930   6.454
 6598WAT     H220037   6.498   4.891   6.526
 6599WAT      O20038   0.382   6.344   6.659
 6599WAT     H120039   0.443   6.265   6.658
 6599WAT     H220040   0.287   6.313   6.665
 6600WAT      O20041   3.372   3.343   7.491
 6600WAT     H120042   3.462   3.367   7.527
 6600WAT     H220043   3.344   3.411   7.423
 6601WAT      O20044   7.783   8.777   9.778
 6601WAT     H120045   7.878   8.807   9.764
 6601WAT     H220046   7.747   8.818   9.861
 6602WAT      O20047   5.598   0.719   2.357
 6602WAT     H120048   5.605   0.624   2.329
 6602WAT     H220049   5.609   0.779   2.277
 6603WAT      O20050   7.963   7.964   0.024
 6603WAT     H120051   7.939   7.888  -0.037
 6603WAT     H220052   8.014   7.928   0.103
 6604WAT      O20053   7.272   0.552   5.389
 6604WAT     H120054   7.271   0.452   5.394
 6604WAT     H220055   7.240   0.591   5.475
 6605WAT      O20056   0.854   6.120   1.684
 6605WAT     H120057   0.942   6.099   1.726
 6605WAT     H220058   0.867   6.143   1.587
 6606WAT      O20059   8.609   5.674   0.676
 6606WAT     H120060   8.642   5.633   0.761
 6606WAT     H220061   8.616   5.607   0.602
 6607WAT      O20062   7.650   5.300   1.660
 6607WAT     H120063   7.556   5.275   1.635
 6607WAT     H220064   7.667   5.396   1.637
 6608WAT      O20065   0.563   8.053   3.040
 6608WAT     H120066   0.525   7.978   2.986
 6608WAT     H220067   0.508   8.136   3.025
 6609WAT      O20068   0.532   3.405   0.203
 6609WAT     H120069   0.457   3.372   0.259
 6609WAT     H220070   0.559   3.496   0.234
 6610WAT      O20071   0.290   0.927   8.610
 6610WAT     H120072   0.255   1.012   8.572
 6610WAT     H220073   0.388   0.919   8.591
 6611WAT      O20074   8.936   6.231   6.161
 6611WAT     H120075   8.870   6.167   6.122
 6611WAT     H220076   9.015   6.238   6.100
 6612WAT      O20077   5.742   4.521   8.054
 6612WAT     H120078   5.741   4.547   7.958
 6612WAT     H220079   5.808   4.447   8.068
 6613WAT      O20080   2.687   3.671   3.265
 6613WAT     H120081   2.664   3.577   3.290
 6613WAT     H220082   2.724   3.673   3.172
 6614WAT      O20083   5.213   6.300   9.760
 6614WAT     H120084   5.237   6.392   9.790
 6614WAT     H220085   5.297   6.246   9.749
 6615WAT      O20086   8.530   6.406   1.760
 6615WAT     H120087   8.557   6.335   1.695
 6615WAT     H220088   8.508   6.490   1.711
 6616WAT      O20089   6.865   5.953   3.377
 6616WAT     H120090   6.850   5.927   3.473
 6616WAT     H220091   6.794   6.017   3.349
 6617WAT      O20092   4.041   7.342   2.636
 6617WAT     H120093   4.131   7.381   2.618
 6617WAT     H220094   3.970   7.408   2.610
 6618WAT      O20095   7.237   4.485   1.395
 6618WAT     H120096   7.229   4.515   1.300
 6618WAT     H220097   7.145   4.470   1.433
 6619WAT      O20098   6.443   7.852   1.239
 6619WAT     H120099   6.457   7.762   1.198
 6619WAT     H220100   6.511   7.916   1.204
 6620WAT      O20101   8.600   6.888   1.200
 6620WAT     H120102   8.614   6.904   1.297
 6620WAT     H220103   8.561   6.797   1.186
 6621WAT      O20104   7.824   7.017   3.645
 6621WAT     H120105   7.844   6.949   3.575
 6621WAT     H220106   7.766   6.976   3.716
 6622WAT      O20107   6.230   3.050   1.059
 6622WAT     H120108   6.271   3.005   1.138
 6622WAT     H220109   6.201   3.143   1.084
 6623WAT      O20110   6.818   2.913   0.120
 6623WAT     H120111   6.826   2.937   0.216
 6623WAT     H220112   6.827   2.814   0.110
 6624WAT      O20113   9.888   9.266   9.156
 6624WAT     H120114   9.795   9.249   9.189
 6624WAT     H220115   9.952   9.206   9.203
 6625WAT      O20116   7.768   1.817   4.182
 6625WAT     H120117   7.697   1.875   4.221
 6625WAT     H220118   7.768   1.728   4.227
 6626WAT      O20119   2.409   0.386   1.530
 6626WAT     H120120   2.356   0.301   1.517
 6626WAT     H220121   2.493   0.381   1.477
 6627WAT      O20122   7.079   1.886   4.903
 6627WAT     H120123   7.039   1.834   4.979
 6627WAT     H220124   7.177   1.894   4.916
 6628WAT      O20125   8.267   1.828   4.453
 6628WAT     H120126   8.168   1.822   4.436
 6628WAT     H220127   8.283   1.880   4.536
 6629WAT      O20128   1.147   2.300   7.752
 6629WAT     H120129   1.225   2.262   7.803
 6629WAT     H220130   1.136   2.397   7.777
 6630WAT      O20131   3.574   1.738   9.710
 6630WAT     H120132   3.633   1.659   9.694
 6630WAT     H220133   3.536   1.733   9.802
 6631WAT      O20134   8.210   3.242   7.965
 6631WAT     H120135   8.204   3.251   8.064
 6631WAT     H220136   8.168   3.323   7.922
 6632WAT      O20137   6.163   8.547   6.861
 6632WAT     H120138   6.226   8.588   6.927
 6632WAT     H220139   6.111   8.474   6.906
 6633WAT      O20140   1.327   7.152   6.844
 6633WAT     H120141   1.240   7.157   6.893
 6633WAT     H220142   1.367   7.243   6.836
 6634WAT      O20143   0.480   1.880   3.362
 6634WAT     H120144   0.461   1.886   3.460
 6634WAT     H220145   0.488   1.784   3.335
 6635WAT      O20146   8.218   1.729   9.194
 6635WAT     H120147   8.240   1.646   9.246
 6635WAT     H220148   8.215   1.706   9.097
 6636WAT      O20149   2.622   5.539   6.819
 6636WAT     H120150   2.559   5.611   6.845
 6636WAT     H220151   2.699   5.537   6.883
 6637WAT      O20152   1.155   1.502   3.740
 6637WAT     H120153   1.188   1.567   3.807
 6637WAT     H220154   1.104   1.429   3.787
 6638WAT      O20155   6.558   8.088   4.001
 6638WAT     H120156   6.601   8.174   3.973
 6638WAT     H220157   6.617   8.041   4.066
 6639WAT      O20158   2.477   7.850   1.002
 6639WAT     H120159   2.502   7.764   1.046
 6639WAT     H220160   2.412   7.899   1.061
 6640WAT      O20161   1.902   4.507   6.484
 6640WAT     H120162   1.935   4.599   6.463
 6640WAT     H220163   1.815   4.512   6.532
 6641WAT      O20164   5.557   5.401   5.105
 6641WAT     H120165   5.596   5.423   5.016
 6641WAT     H220166   5.630   5.397   5.173
 6642WAT      O20167   6.713   0.987   7.372
 6642WAT     H120168   6.637   1.049   7.388
 6642WAT     H220169   6.689   0.923   7.299
 6643WAT      O20170   7.602   8.238   1.392
 6643WAT     H120171   7.506   8.229   1.418
 6643WAT     H220172   7.656   8.263   1.473
 6644WAT      O20173   5.264   8.076   7.753
 6644WAT     H120174   5.357   8.082   7.715
 6644WAT     H220175   5.266   8.104   7.849
 6645WAT      O20176   0.471   1.735   4.670
 6645WAT     H120177   0.548   1.678   4.642
 6645WAT     H220178   0.402   1.737   4.597
 6646WAT      O20179   1.126   3.387   7.047
 6646WAT     H120180   1.143   3.337   7.132
 6646WAT     H220181   1.095   3.324   6.977
 6647WAT      O20182   9.601   4.817   9.199
 6647WAT     H120183   9.701   4.829   9.204
 6647WAT     H220184   9.566   4.867   9.121
 6648WAT      O20185   4.834   1.167   6.282
 6648WAT     H120186   4.865   1.072   6.282
 6648WAT     H220187   4.905   1.225   6.240
 6649WAT      O20188   2.757   1.242   0.751
 6649WAT     H120189   2.704   1.269   0.832
 6649WAT     H220190   2.697   1.196   0.686
 6650WAT      O20191   4.979   2.853   0.016
 6650WAT     H120192   5.027   2.883   0.099
 6650WAT     H220193   5.046   2.834  -0.056
 6651WAT      O20194   1.133   8.153   4.473
 6651WAT     H120195   1.054   8.213   4.460
 6651WAT     H220196   1.148   8.137   4.571
 6652WAT      O20197   8.788   9.375   4.848
 6652WAT     H120198   8.764   9.338   4.938
 6652WAT     H220199   8.841   9.459   4.859
 6653WAT      O20200   5.232   6.967   3.972
 6653WAT     H120201   5.306   6.941   4.034
 6653WAT     H220202   5.259   6.949   3.878
 6654WAT      O20203   1.818   7.409   6.870
 6654WAT     H120204   1.770   7.420   6.957
 6654WAT     H220205   1.764   7.453   6.798
 6655WAT      O20206   2.593   0.534   6.411
 6655WAT     H120207   2.499   0.543   6.442
 6655WAT     H220208   2.631   0.447   6.443
 6656WAT      O20209   0.522   3.685   8.905
 6656WAT     H120210   0.481   3.744   8.835
 6656WAT     H220211   0.455   3.617   8.934
 6657WAT      O20212   5.123   7.699   8.785
 6657WAT     H120213   5.145   7.699   8.882
 6657WAT     H220214   5.063   7.622   8.764
 6658WAT      O20215   1.396   0.531   9.382
 6658WAT     H120216   1.309   0.571   9.412
 6658WAT     H220217   1.426   0.576   9.297
 6659WAT      O20218   3.426   4.780   9.749
 6659WAT     H120219   3.384   4.695   9.717
 6659WAT     H220220   3.497   4.759   9.816
 6660WAT      O20221   8.815   8.315   0.794
 6660WAT     H120222   8.828   8.240   0.858
 6660WAT     H220223   8.717   8.332   0.782
 6661WAT      O20224   5.456   3.484   1.521
 6661WAT     H120225   5.392   3.422   1.566
 6661WAT     H220226   5.410   3.526   1.442
 6662WAT      O20227   3.768   4.035   4.292
 6662WAT     H120228   3.808   4.051   4.202
 6662WAT     H220229   3.704   4.109   4.314
 6663WAT      O20230   1.597   3.630   4.784
 6663WAT     H120231   1.665   3.561   4.808
 6663WAT     H220232   1.602   3.706   4.848
 6664WAT      O20233   8.574   6.250   4.955
 6664WAT     H120234   8.591   6.214   4.864
 6664WAT     H220235   8.654   6.301   4.986
 6665WAT      O20236   4.974   9.078   5.877
 6665WAT     H120237   5.039   9.002   5.883
 6665WAT     H220238   4.950   9.108   5.969
 6666WAT      O20239   8.554   9.118   5.204
 6666WAT     H120240   8.515   9.089   5.116
 6666WAT     H220241   8.654   9.122   5.196
 6667WAT      O20242   8.697   8.792   6.356
 6667WAT     H120243   8.714   8.816   6.452
 6667WAT     H220244   8.776   8.741   6.321
 6668WAT      O20245   5.191   8.180   6.993
 6668WAT     H120246   5.210   8.235   7.075
 6668WAT     H220247   5.235   8.091   7.002
 6669WAT      O20248   3.819   0.653   0.058
 6669WAT     H120249   3.884   0.678   0.131
 6669WAT     H220250   3.816   0.726  -0.010
 6670WAT      O20251   0.239   7.487   7.760
 6670WAT     H120252   0.276   7.535   7.839
 6670WAT     H220253   0.192   7.404   7.791
 6671WAT      O20254   1.957   7.186   4.522
 6671WAT     H120255   1.901   7.206   4.441
 6671WAT     H220256   1.983   7.089   4.522
 6672WAT      O20257   4.092   8.404   2.174
 6672WAT     H120258   4.110   8.319   2.124
 6672WAT     H220259   4.034   8.463   2.118
 6673WAT      O20260   5.308   9.173   6.368
 6673WAT     H120261   5.340   9.126   6.285
 6673WAT     H220262   5.358   9.138   6.447
 6674WAT      O20263   3.258   9.664   7.674
 6674WAT     H120264   3.334   9.685   7.612
 6674WAT     H220265   3.268   9.717   7.758
 6675WAT      O20266   2.567   7.299   7.799
 6675WAT     H120267   2.656   7.340   7.814
 6675WAT     H220268   2.555   7.222   7.862
 6676WAT      O20269   6.047   7.572   7.660
 6676WAT     H120270   6.016   7.666   7.645
 6676WAT     H220271   5.993   7.510   7.603
 6677WAT      O20272   3.568   9.723   6.841
 6677WAT     H120273   3.601   9.765   6.926
 6677WAT     H220274   3.516   9.641   6.863
 6678WAT      O20275   4.589   0.065   6.062
 6678WAT     H120276   4.653   0.027   6.128
 6678WAT     H220277   4.549  -0.008   6.007
 6679WAT      O20278   7.426   1.371   3.508
 6679WAT     H120279   7.518   1.364   3.546
 6679WAT     H220280   7.393   1.280   3.483
 6680WAT      O20281   6.212   2.626   3.814
 6680WAT     H120282   6.176   2.547   3.764
 6680WAT     H220283   6.311   2.617   3.826
 6681WAT      O20284   2.686   5.253   6.605
 6681WAT     H120285   2.725   5.257   6.697
 6681WAT     H220286   2.740   5.190   6.549
 6682WAT      O20287   7.540   8.660   6.692
 6682WAT     H120288   7.525   8.566   6.722
 6682WAT     H220289   7.635   8.687   6.710
 6683WAT      O20290   1.136   9.483   9.533
 6683WAT     H120291   1.037   9.493   9.534
 6683WAT     H220292   1.166   9.439   9.618
 6684WAT      O20293   6.513   6.354   2.230
 6684WAT     H120294   6.549   6.261   2.232
 6684WAT     H220295   6.460   6.372   2.314
 6685WAT      O20296   4.869   2.838   5.977
 6685WAT     H120297   4.799   2.794   6.032
 6685WAT     H220298   4.847   2.826   5.880
 6686WAT      O20299   9.407   4.036   4.188
 6686WAT     H120300   9.335   4.100   4.214
 6686WAT     H220301   9.496   4.082   4.189
 6687WAT      O20302   4.612   8.555   1.220
 6687WAT     H120303   4.558   8.621   1.272
 6687WAT     H220304   4.701   8.593   1.198
 6688WAT      O20305   3.023   1.783   3.969
 6688WAT     H120306   3.010   1.684   3.982
 6688WAT     H220307   3.055   1.801   3.876
 6689WAT      O20308   4.399   2.657   6.621
 6689WAT     H120309   4.350   2.617   6.544
 6689WAT     H220310   4.419   2.586   6.689
 6690WAT      O20311   5.255   7.325   1.249
 6690WAT     H120312   5.297   7.245   1.207
 6690WAT     H220313   5.269   7.405   1.190
 6691WAT      O20314   0.358   7.837   5.352
 6691WAT     H120315   0.263   7.812   5.332
 6691WAT     H220316   0.359   7.900   5.430
 6692WAT      O20317   5.822   3.109   2.087
 6692WAT     H120318   5.917   3.139   2.095
 6692WAT     H220319   5.762   3.188   2.075
 6693WAT      O20320   8.851   8.769   8.379
 6693WAT     H120321   8.855   8.869   8.370
 6693WAT     H220322   8.761   8.742   8.414
 6694WAT      O20323   5.801   3.377   7.643
 6694WAT     H120324   5.884   3.365   7.588
 6694WAT     H220325   5.787   3.297   7.701
 6695WAT      O20326   4.650   4.543   8.963
 6695WAT     H120327   4.555   4.525   8.987
 6695WAT     H220328   4.697   4.583   9.041
 6696WAT      O20329   7.768   8.064   3.267
 6696WAT     H120330   7.835   8.079   3.339
 6696WAT     H220331   7.700   7.997   3.297
 6697WAT      O20332   5.630   3.254   2.323
 6697WAT     H120333   5.587   3.196   2.254
 6697WAT     H220334   5.560   3.287   2.387
 6698WAT      O20335   9.826   2.283   7.455
 6698WAT     H120336   9.896   2.281   7.383
 6698WAT     H220337   9.737   2.261   7.414
 6699WAT      O20338   8.177   7.505   5.746
 6699WAT     H120339   8.193   7.599   5.776
 6699WAT     H220340   8.264   7.461   5.723
 6700WAT      O20341   8.255   1.219   0.125
 6700WAT     H120342   8.259   1.315   0.153
 6700WAT     H220343   8.194   1.210   0.045
 6701WAT      O20344   1.475   1.430   1.127
 6701WAT     H120345   1.532   1.476   1.060
 6701WAT     H220346   1.484   1.331   1.117
 6702WAT      O20347   8.817   5.776   9.410
 6702WAT     H120348   8.882   5.847   9.382
 6702WAT     H220349   8.725   5.815   9.414
 6703WAT      O20350   6.587   8.691   8.622
 6703WAT     H120351   6.535   8.668   8.540
 6703WAT     H220352   6.628   8.782   8.612
 6704WAT      O20353   9.379   5.186   6.999
 6704WAT     H120354   9.336   5.103   6.964
 6704WAT     H220355   9.310   5.256   7.014
 6705WAT      O20356   1.341   1.932   4.601
 6705WAT     H120357   1.378   2.024   4.612
 6705WAT     H220358   1.241   1.937   4.605
 6706WAT      O20359   0.614   0.711   2.073
 6706WAT     H120360   0.601   0.809   2.088
 6706WAT     H220361   0.525   0.665   2.077
 6707WAT      O20362   4.890   0.853   9.581
 6707WAT     H120363   4.847   0.817   9.664
 6707WAT     H220364   4.859   0.947   9.566
 6708WAT      O20365   9.396   4.487   0.085
 6708WAT     H120366   9.337   4.472   0.164
 6708WAT     H220367   9.350   4.457   0.002
 6709WAT      O20368   5.484   9.708   8.822
 6709WAT     H120369   5.536   9.792   8.836
 6709WAT     H220370   5.539   9.642   8.771
 6710WAT      O20371   2.449   0.281   5.851
 6710WAT     H120372   2.438   0.272   5.950
 6710WAT     H220373   2.482   0.373   5.829
 6711WAT      O20374   3.456   7.751   8.577
 6711WAT     H120375   3.408   7.834   8.550
 6711WAT     H220376   3.499   7.709   8.497
 6712WAT      O20377   2.861   3.506   7.056
 6712WAT     H120378   2.917   3.580   7.094
 6712WAT     H220379   2.780   3.494   7.113
 6713WAT      O20380   6.055   2.552   9.319
 6713WAT     H120381   6.025   2.460   9.292
 6713WAT     H220382   5.983   2.595   9.374
 6714WAT      O20383   1.948   0.212   1.730
 6714WAT     H120384   1.963   0.304   1.695
 6714WAT     H220385   1.966   0.146   1.657
 6715WAT      O20386   9.777   7.340   0.698
 6715WAT     H120387   9.815   7.385   0.779
 6715WAT     H220388   9.798   7.395   0.617
 6716WAT      O20389   9.057   7.595   4.489
 6716WAT     H120390   9.100   7.565   4.574
 6716WAT     H220391   8.973   7.542   4.475
 6717WAT      O20392   2.087   1.301   1.776
 6717WAT     H120393   2.144   1.280   1.697
 6717WAT     H220394   2.086   1.400   1.791
 6718WAT      O20395   7.462   7.393   5.443
 6718WAT     H120396   7.430   7.307   5.481
 6718WAT     H220397   7.509   7.376   5.356
 6719WAT      O20398   5.753   8.917   0.240
 6719WAT     H120399   5.724   8.823   0.226
 6719WAT     H220400   5.845   8.919   0.278
 6720WAT      O20401   5.707   8.747   4.294
 6720WAT     H120402   5.706   8.759   4.195
 6720WAT     H220403   5.614   8.755   4.329
 6721WAT      O20404   7.737   9.165   7.156
 6721WAT     H120405   7.740   9.091   7.224
 6721WAT     H220406   7.802   9.236   7.182
 6722WAT      O20407   8.168   1.554   3.828
 6722WAT     H120408   8.134   1.488   3.761
 6722WAT     H220409   8.095   1.576   3.893
 6723WAT      O20410   2.719   1.740   5.077
 6723WAT     H120411   2.632   1.724   5.032
 6723WAT     H220412   2.788   1.763   5.008
 6724WAT      O20413   3.675   1.334   2.537
 6724WAT     H120414   3.730   1.415   2.520
 6724WAT     H220415   3.597   1.333   2.474
 6725WAT      O20416   6.042   9.612   7.128
 6725WAT     H120417   5.994   9.700   7.123
 6725WAT     H220418   5.980   9.543   7.165
 6726WAT      O20419   0.023   0.206   5.382
 6726WAT     H120420   0.008   0.199   5.283
 6726WAT     H220421   0.085   0.134   5.411
 6727WAT      O20422   2.844   0.443   6.730
 6727WAT     H120423   2.825   0.371   6.797
 6727WAT     H220424   2.817   0.531   6.768
 6728WAT      O20425   7.783   8.804   1.057
 6728WAT     H120426   7.749   8.828   0.966
 6728WAT     H220427   7.706   8.780   1.117
 6729WAT      O20428   4.761   6.653   3.569
 6729WAT     H120429   4.805   6.663   3.479
 6729WAT     H220430   4.718   6.740   3.594
 6730WAT      O20431   2.631   8.431   5.558
 6730WAT     H120432   2.546   8.428   5.507
 6730WAT     H220433   2.659   8.526   5.571
 6731WAT      O20434   5.570   8.001   0.414
 6731WAT     H120435   5.597   7.926   0.475
 6731WAT     H220436   5.590   8.088   0.459
 6732WAT      O20437   0.682   5.085   0.699
 6732WAT     H120438   0.725   5.117   0.783
 6732WAT     H220439   0.670   5.161   0.635
 6733WAT      O20440   8.389   4.371   5.241
 6733WAT     H120441   8.381   4.452   5.183
 6733WAT     H220442   8.480   4.331   5.231
 6734WAT      O20443   5.057   1.546   6.607
 6734WAT     H120444   5.143   1.500   6.582
 6734WAT     H220445   4.993   1.540   6.531
 6735WAT      O20446   3.725   7.295   5.430
 6735WAT     H120447   3.795   7.318   5.364
 6735WAT     H220448   3.756   7.320   5.522
 6736WAT      O20449   6.239   4.761   6.692
 6736WAT     H120450   6.157   4.721   6.732
 6736WAT     H220451   6.317   4.745   6.752
 6737WAT      O20452   9.053   7.315   8.079
 6737WAT     H120453   9.151   7.328   8.095
 6737WAT     H220454   9.040   7.271   7.990
 6738WAT      O20455   0.985   6.575   1.785
 6738WAT     H120456   0.994   6.551   1.882
 6738WAT     H220457   1.056   6.641   1.761
 6739WAT      O20458   9.699   6.816   0.501
 6739WAT     H120459   9.670   6.894   0.445
 6739WAT     H220460   9.777   6.771   0.459
 6740WAT      O20461   3.994   4.704   9.674
 6740WAT     H120462   3.914   4.738   9.625
 6740WAT     H220463   4.054   4.781   9.697
 6741WAT      O20464   8.133   4.859   1.582
 6741WAT     H120465   8.149   4.820   1.491
 6741WAT     H220466   8.079   4.795   1.637
 6742WAT      O20467   3.642   8.898   3.368
 6742WAT     H120468   3.554   8.855   3.348
 6742WAT     H220469   3.626   8.983   3.419
 6743WAT      O20470   6.307   6.869   0.580
 6743WAT     H120471   6.275   6.779   0.611
 6743WAT     H220472   6.394   6.858   0.532
 6744WAT      O20473   5.294   0.474   2.055
 6744WAT     H120474   5.303   0.417   1.974
 6744WAT     H220475   5.213   0.532   2.046
 6745WAT      O20476   2.889   3.290   5.007
 6745WAT     H120477   2.944   3.221   5.055
 6745WAT     H220478   2.950   3.360   4.968
 6746WAT      O20479   0.017   7.890   0.100
 6746WAT     H120480   0.036   7.887   0.198
 6746WAT     H220481  -0.002   7.985   0.073
 6747WAT      O20482   4.086   8.369   0.048
 6747WAT     H120483   4.004   8.403   0.095
 6747WAT     H220484   4.143   8.447   0.021
 6748WAT      O20485   2.613   3.491   9.419
 6748WAT     H120486   2.521   3.456   9.397
 6748WAT     H220487   2.663   3.422   9.471
 6749WAT      O20488   3.172   6.192   8.515
 6749WAT     H120489   3.175   6.233   8.606
 6749WAT     H220490   3.083   6.149   8.500
 6750WAT      O20491   7.436   6.066   8.499
 6750WAT     H120492   7.485   5.982   8.472
 6750WAT     H220493   7.342   6.060   8.467
 6751WAT      O20494   2.598   3.237   5.682
 6751WAT     H120495   2.664   3.163   5.671
 6751WAT     H220496   2.610   3.280   5.771
 6752WAT      O20497   4.609   5.506   1.011
 6752WAT     H120498   4.682   5.505   0.943
 6752WAT     H220499   4.638   5.456   1.092
 6753WAT      O20500   2.022   1.659   8.094
 6753WAT     H120501   2.032   1.756   8.070
 6753WAT     H220502   2.107   1.611   8.073
 6754WAT      O20503   4.088   6.560   5.773
 6754WAT     H120504   4.072   6.513   5.860
 6754WAT     H220505   4.146   6.504   5.714
 6755WAT      O20506   4.434   8.089   5.595
 6755WAT     H120507   4.354   8.030   5.599
 6755WAT     H220508   4.496   8.066   5.670
 6756WAT      O20509   2.271   4.571   0.988
 6756WAT     H120510   2.354   4.614   1.023
 6756WAT     H220511   2.278   4.560   0.889
 6757WAT      O20512   7.480   0.966   4.149
 6757WAT     H120513   7.400   1.021   4.171
 6757WAT     H220514   7.455   0.895   4.083
 6758WAT      O20515   1.817   6.645   4.879
 6758WAT     H120516   1.860   6.712   4.819
 6758WAT     H220517   1.883   6.616   4.949
 6759WAT      O20518   6.621   8.298   3.828
 6759WAT     H120519   6.652   8.215   3.781
 6759WAT     H220520   6.596   8.367   3.760
 6760WAT      O20521   6.759   9.020   6.749
 6760WAT     H120522   6.729   9.109   6.782
 6760WAT     H220523   6.806   9.030   6.662
 6761WAT      O20524   7.335   6.989   1.158
 6761WAT     H120525   7.276   6.929   1.211
 6761WAT     H220526   7.293   7.080   1.151
 6762WAT      O20527   7.161   1.922   6.456
 6762WAT     H120528   7.209   1.847   6.501
 6762WAT     H220529   7.193   2.009   6.495
 6763WAT      O20530   2.771   0.810   7.387
 6763WAT     H120531   2.720   0.892   7.414
 6763WAT     H220532   2.869   0.828   7.396
 6764WAT      O20533   8.991   5.988   8.288
 6764WAT     H120534   9.065   5.944   8.238
 6764WAT     H220535   9.026   6.024   8.375
 6765WAT      O20536   0.569   0.016   2.581
 6765WAT     H120537   0.628   0.093   2.606
 6765WAT     H220538   0.576  -0.055   2.651
 6766WAT      O20539   5.443   7.047   7.581
 6766WAT     H120540   5.388   7.129   7.567
 6766WAT     H220541   5.535   7.073   7.609
 6767WAT      O20542   1.725   5.339   3.718
 6767WAT     H120543   1.705   5.421   3.665
 6767WAT     H220544   1.649   5.320   3.780
 6768WAT      O20545   3.214   4.038   9.220
 6768WAT     H120546   3.251   4.018   9.311
 6768WAT     H220547   3.161   4.123   9.224
 6769WAT      O20548   9.194   7.833   0.782
 6769WAT     H120549   9.163   7.863   0.692
 6769WAT     H220550   9.276   7.777   0.772
 6770WAT      O20551   2.926   3.935   9.110
 6770WAT     H120552   3.011   3.885   9.092
 6770WAT     H220553   2.849   3.885   9.070
 6771WAT      O20554   2.720   2.583   2.090
 6771WAT     H120555   2.711   2.498   2.039
 6771WAT     H220556   2.676   2.657   2.040
 6772WAT      O20557   1.454   0.495   8.224
 6772WAT     H120558   1.427   0.577   8.174
 6772WAT     H220559   1.426   0.414   8.172
 6773WAT      O20560   3.288   0.656   5.003
 6773WAT     H120561   3.283   0.557   5.018
 6773WAT     H220562   3.371   0.692   5.046
 6774WAT      O20563   2.278   1.722   9.728
 6774WAT     H120564   2.261   1.707   9.825
 6774WAT     H220565   2.370   1.760   9.716
 6775WAT      O20566   3.168   8.383   2.779
 6775WAT     H120567   3.081   8.404   2.825
 6775WAT     H220568   3.152   8.313   2.709
 6776WAT      O20569   6.214   6.617   0.662
 6776WAT     H120570   6.133   6.635   0.719
 6776WAT     H220571   6.288   6.582   0.720
 6777WAT      O20572   3.216   7.205   7.248
 6777WAT     H120573   3.316   7.207   7.259
 6777WAT     H220574   3.180   7.298   7.249
 6778WAT      O20575   2.560   8.070   6.416
 6778WAT     H120576   2.532   7.997   6.355
 6778WAT     H220577   2.479   8.117   6.452
 6779WAT      O20578   9.605   6.532   0.624
 6779WAT     H120579   9.517   6.568   0.594
 6779WAT     H220580   9.650   6.598   0.683
 6780WAT      O20581   8.070   8.694   3.631
 6780WAT     H120582   8.157   8.653   3.602
 6780WAT     H220583   7.997   8.662   3.572
 6781WAT      O20584   5.950   7.787   2.394
 6781WAT     H120585   5.931   7.802   2.297
 6781WAT     H220586   6.007   7.862   2.429
 6782WAT      O20587   5.385   8.275   0.838
 6782WAT     H120588   5.344   8.290   0.929
 6782WAT     H220589   5.323   8.220   0.782
 6783WAT      O20590   4.244   3.291   5.719
 6783WAT     H120591   4.175   3.318   5.786
 6783WAT     H220592   4.224   3.337   5.632
 6784WAT      O20593   7.346   6.396   0.895
 6784WAT     H120594   7.287   6.396   0.975
 6784WAT     H220595   7.300   6.444   0.819
 6785WAT      O20596   5.273   0.767   1.341
 6785WAT     H120597   5.214   0.704   1.392
 6785WAT     H220598   5.267   0.746   1.243
 6786WAT      O20599   8.891   8.725   6.973
 6786WAT     H120600   8.962   8.791   6.995
 6786WAT     H220601   8.923   8.633   6.994
 6787WAT      O20602   8.500   3.083   6.355
 6787WAT     H120603   8.439   3.005   6.365
 6787WAT     H220604   8.453   3.155   6.304
 6788WAT      O20605   0.196   4.629   0.736
 6788WAT     H120606   0.154   4.576   0.810
 6788WAT     H220607   0.188   4.726   0.756
 6789WAT      O20608   7.217   7.930   7.303
 6789WAT     H120609   7.279   7.897   7.374
 6789WAT     H220610   7.163   8.007   7.340
 6790WAT      O20611   1.975   2.721   0.656
 6790WAT     H120612   2.003   2.703   0.750
 6790WAT     H220613   1.936   2.638   0.615
 6791WAT      O20614   5.903   4.634   1.480
 6791WAT     H120615   5.833   4.575   1.521
 6791WAT     H220616   5.934   4.701   1.548
 6792WAT      O20617   3.810   2.827   8.371
 6792WAT     H120618   3.767   2.766   8.437
 6792WAT     H220619   3.873   2.888   8.417
 6793WAT      O20620   4.687   0.394   5.213
 6793WAT     H120621   4.738   0.478   5.233
 6793WAT     H220622   4.723   0.320   5.271
 6794WAT      O20623   2.078   8.150   3.389
 6794WAT     H120624   2.165   8.144   3.340
 6794WAT     H220625   2.024   8.226   3.353
 6795WAT      O20626   3.380   0.824   9.261
 6795WAT     H120627   3.385   0.731   9.297
 6795WAT     H220628   3.370   0.889   9.336
 6796WAT      O20629   7.642   9.461   1.201
 6796WAT     H120630   7.595   9.380   1.237
 6796WAT     H220631   7.575   9.533   1.183
 6797WAT      O20632   7.753   8.320   1.603
 6797WAT     H120633   7.730   8.311   1.700
 6797WAT     H220634   7.851   8.301   1.590
 6798WAT      O20635   6.410   7.685   0.624
 6798WAT     H120636   6.417   7.587   0.643
 6798WAT     H220637   6.486   7.734   0.666
 6799WAT      O20638   8.149   4.089   5.365
 6799WAT     H120639   8.151   4.087   5.265
 6799WAT     H220640   8.232   4.048   5.400
 6800WAT      O20641   8.635   1.586   3.359
 6800WAT     H120642   8.672   1.560   3.449
 6800WAT     H220643   8.647   1.684   3.345
 6801WAT      O20644   0.996   6.852   5.497
 6801WAT     H120645   1.048   6.786   5.443
 6801WAT     H220646   0.903   6.817   5.511
 6802WAT      O20647   1.634   0.478   6.851
 6802WAT     H120648   1.723   0.475   6.806
 6802WAT     H220649   1.631   0.557   6.912
 6803WAT      O20650   2.072   5.218   1.576
 6803WAT     H120651   2.031   5.127   1.580
 6803WAT     H220652   2.000   5.287   1.569
 6804WAT      O20653   3.815   4.738   4.323
 6804WAT     H120654   3.795   4.800   4.246
 6804WAT     H220655   3.880   4.668   4.293
 6805WAT      O20656   3.512   9.650   1.418
 6805WAT     H120657   3.513   9.717   1.344
 6805WAT     H220658   3.605   9.620   1.438
 6806WAT      O20659   7.186   6.648   6.279
 6806WAT     H120660   7.253   6.671   6.350
 6806WAT     H220661   7.226   6.662   6.189
 6807WAT      O20662   9.848   9.695   2.241
 6807WAT     H120663   9.877   9.762   2.309
 6807WAT     H220664   9.806   9.616   2.288
 6808WAT      O20665   3.433   2.790   7.180
 6808WAT     H120666   3.521   2.743   7.184
 6808WAT     H220667   3.423   2.849   7.260
 6809WAT      O20668   7.967   7.747   4.802
 6809WAT     H120669   8.032   7.817   4.773
 6809WAT     H220670   7.915   7.780   4.881
 6810WAT      O20671   3.891   6.837   2.505
 6810WAT     H120672   3.927   6.928   2.486
 6810WAT     H220673   3.798   6.830   2.470
 6811WAT      O20674   9.195   1.377   2.262
 6811WAT     H120675   9.102   1.383   2.225
 6811WAT     H220676   9.255   1.439   2.213
 6812WAT      O20677   7.030   7.236   2.794
 6812WAT     H120678   6.970   7.276   2.863
 6812WAT     H220679   7.013   7.279   2.705
 6813WAT      O20680   6.785   4.463   7.388
 6813WAT     H120681   6.735   4.515   7.319
 6813WAT     H220682   6.812   4.525   7.462
 6814WAT      O20683   1.246   1.906   7.397
 6814WAT     H120684   1.173   1.838   7.406
 6814WAT     H220685   1.312   1.875   7.328
 6815WAT      O20686   2.122   8.844   9.110
 6815WAT     H120687   2.022   8.841   9.103
 6815WAT     H220688   2.156   8.752   9.129
 6816WAT      O20689   2.628   6.499   7.830
 6816WAT     H120690   2.688   6.460   7.900
 6816WAT     H220691   2.555   6.435   7.809
 6817WAT      O20692   2.419   0.817   3.489
 6817WAT     H120693   2.376   0.844   3.575
 6817WAT     H220694   2.436   0.718   3.490
 6818WAT      O20695   1.696   8.882   6.752
 6818WAT     H120696   1.725   8.921   6.665
 6818WAT     H220697   1.629   8.943   6.796
 6819WAT      O20698   0.003   1.724   8.364
 6819WAT     H120699   0.029   1.765   8.451
 6819WAT     H220700   0.047   1.774   8.289
 6820WAT      O20701   5.536   4.849   7.750
 6820WAT     H120702   5.483   4.932   7.770
 6820WAT     H220703   5.483   4.769   7.777
 6821WAT      O20704   8.850   4.688   3.971
 6821WAT     H120705   8.913   4.715   3.898
 6821WAT     H220706   8.757   4.715   3.947
 6822WAT      O20707   9.152   1.112   3.583
 6822WAT     H120708   9.082   1.056   3.627
 6822WAT     H220709   9.242   1.081   3.613
 6823WAT      O20710   9.003   7.523   6.091
 6823WAT     H120711   9.023   7.560   6.000
 6823WAT     H220712   9.087   7.521   6.145
 6824WAT      O20713   3.654   4.839   3.700
 6824WAT     H120714   3.620   4.749   3.676
 6824WAT     H220715   3.687   4.839   3.794
 6825WAT      O20716   4.189   0.013   2.271
 6825WAT     H120717   4.195  -0.045   2.352
 6825WAT     H220718   4.260  -0.015   2.205
 6826WAT      O20719   5.895   0.630   7.748
 6826WAT     H120720   5.942   0.577   7.677
 6826WAT     H220721   5.797   0.612   7.743
 6827WAT      O20722   0.099   2.315   0.374
 6827WAT     H120723   0.131   2.395   0.323
 6827WAT     H220724   0.002   2.299   0.355
 6828WAT      O20725   0.066   1.251   4.445
 6828WAT     H120726   0.138   1.274   4.511
 6828WAT     H220727   0.001   1.188   4.487
 6829WAT      O20728   2.835   1.967   8.081
 6829WAT     H120729   2.795   1.891   8.131
 6829WAT     H220730   2.771   2.044   8.079
 6830WAT      O20731   6.181   5.388   5.363
 6830WAT     H120732   6.133   5.471   5.392
 6830WAT     H220733   6.237   5.354   5.439
 6831WAT      O20734   6.074   8.385   7.597
 6831WAT     H120735   5.997   8.444   7.620
 6831WAT     H220736   6.053   8.291   7.624
 6832WAT      O20737   4.869   9.618   2.707
 6832WAT     H120738   4.859   9.525   2.743
 6832WAT     H220739   4.780   9.665   2.711
 6833WAT      O20740   5.925   2.145   4.811
 6833WAT     H120741   5.941   2.118   4.716
 6833WAT     H220742   5.982   2.224   4.833
 6834WAT      O20743   3.660   4.215   4.467
 6834WAT     H120744   3.601   4.214   4.548
 6834WAT     H220745   3.734   4.281   4.480
 6835WAT      O20746   8.181   8.208   4.683
 6835WAT     H120747   8.211   8.253   4.768
 6835WAT     H220748   8.192   8.272   4.607
 6836WAT      O20749   5.247   9.083   3.407
 6836WAT     H120750   5.243   9.001   3.350
 6836WAT     H220751   5.175   9.147   3.380
 6837WAT      O20752   3.861   9.004   2.037
 6837WAT     H120753   3.875   9.000   2.136
 6837WAT     H220754   3.849   9.099   2.009
 6838WAT      O20755   6.487   4.048   1.110
 6838WAT     H120756   6.497   4.050   1.011
 6838WAT     H220757   6.436   3.967   1.137
 6839WAT      O20758   1.821   0.358   4.947
 6839WAT     H120759   1.899   0.297   4.935
 6839WAT     H220760   1.848   0.452   4.927
 6840WAT      O20761   0.525   3.930   5.962
 6840WAT     H120762   0.436   3.968   5.937
 6840WAT     H220763   0.576   3.996   6.016
 6841WAT      O20764   0.943   4.348   3.151
 6841WAT     H120765   1.041   4.338   3.136
 6841WAT     H220766   0.902   4.258   3.166
 6842WAT      O20767   6.337   3.799   3.055
 6842WAT     H120768   6.431   3.794   3.089
 6842WAT     H220769   6.322   3.888   3.011
 6843WAT      O20770   6.149   8.269   9.114
 6843WAT     H120771   6.180   8.356   9.153
 6843WAT     H220772   6.051   8.259   9.129
 6844WAT      O20773   6.847   6.498   7.747
 6844WAT     H120774   6.857   6.566   7.819
 6844WAT     H220775   6.772   6.525   7.686
 6845WAT      O20776   3.124   1.683   1.111
 6845WAT     H120777   3.110   1.770   1.158
 6845WAT     H220778   3.055   1.617   1.142
 6846WAT      O20779   5.611   8.267   7.125
 6846WAT     H120780   5.653   8.348   7.085
 6846WAT     H220781   5.568   8.213   7.053
 6847WAT      O20782   0.831   5.123   2.838
 6847WAT     H120783   0.825   5.029   2.803
 6847WAT     H220784   0.807   5.187   2.765
 6848WAT      O20785   3.418   5.735   8.613
 6848WAT     H120786   3.474   5.697   8.539
 6848WAT     H220787   3.393   5.663   8.677
 6849WAT      O20788   9.456   4.183   9.643
 6849WAT     H120789   9.421   4.112   9.705
 6849WAT     H220790   9.386   4.254   9.632
 6850WAT      O20791   4.486   8.087   6.705
 6850WAT     H120792   4.473   8.005   6.760
 6850WAT     H220793   4.537   8.063   6.622
 6851WAT      O20794   7.503   1.884   9.566
 6851WAT     H120795   7.422   1.943   9.571
 6851WAT     H220796   7.493   1.821   9.490
 6852WAT      O20797   9.504   2.393   5.013
 6852WAT     H120798   9.529   2.488   5.029
 6852WAT     H220799   9.585   2.340   4.989
 6853WAT      O20800   0.810   2.132   7.713
 6853WAT     H120801   0.858   2.064   7.658
 6853WAT     H220802   0.848   2.223   7.694
 6854WAT      O20803   5.707   3.774   5.411
 6854WAT     H120804   5.726   3.778   5.313
 6854WAT     H220805   5.679   3.864   5.444
 6855WAT      O20806   7.470   7.139   5.581
 6855WAT     H120807   7.561   7.119   5.545
 6855WAT     H220808   7.449   7.077   5.657
 6856WAT      O20809   0.660   5.296   6.215
 6856WAT     H120810   0.635   5.271   6.122
 6856WAT     H220811   0.617   5.384   6.239
 6857WAT      O20812   1.494   5.004   6.910
 6857WAT     H120813   1.539   4.949   6.839
 6857WAT     H220814   1.457   5.087   6.869
 6858WAT      O20815   9.252   8.361   8.411
 6858WAT     H120816   9.228   8.343   8.316
 6858WAT     H220817   9.178   8.413   8.455
 6859WAT      O20818   4.121   1.056   9.214
 6859WAT     H120819   4.147   0.994   9.288
 6859WAT     H220820   4.098   1.004   9.132
 6860WAT      O20821   3.644   0.641   7.854
 6860WAT     H120822   3.640   0.715   7.921
 6860WAT     H220823   3.553   0.625   7.817
 6861WAT      O20824   8.138   9.163   9.727
 6861WAT     H120825   8.223   9.197   9.768
 6861WAT     H220826   8.072   9.238   9.721
 6862WAT      O20827   4.531   6.272   7.672
 6862WAT     H120828   4.524   6.370   7.652
 6862WAT     H220829   4.450   6.225   7.636
 6863WAT      O20830   4.709   6.756   1.392
 6863WAT     H120831   4.662   6.844   1.402
 6863WAT     H220832   4.654   6.696   1.334
 6864WAT      O20833   7.808   2.135   1.531
 6864WAT     H120834   7.884   2.107   1.589
 6864WAT     H220835   7.799   2.235   1.533
 6865WAT      O20836   8.170   6.838   7.398
 6865WAT     H120837   8.113   6.790   7.331
 6865WAT     H220838   8.193   6.776   7.472
 6866WAT      O20839   4.437   9.263   7.590
 6866WAT     H120840   4.388   9.177   7.576
 6866WAT     H220841   4.535   9.248   7.577
 6867WAT      O20842   5.747   2.122   0.054
 6867WAT     H120843   5.796   2.084  -0.024
 6867WAT     H220844   5.802   2.196   0.095
 6868WAT      O20845   7.705   3.371   0.888
 6868WAT     H120846   7.719   3.463   0.925
 6868WAT     H220847   7.640   3.376   0.812
 6869WAT      O20848   5.158   2.235   0.858
 6869WAT     H120849   5.207   2.148   0.872
 6869WAT     H220850   5.177   2.270   0.767
 6870WAT      O20851   2.513   9.450   1.679
 6870WAT     H120852   2.452   9.498   1.742
 6870WAT     H220853   2.583   9.513   1.646
 6871WAT      O20854   2.034   4.199   9.692
 6871WAT     H120855   2.032   4.175   9.595
 6871WAT     H220856   2.013   4.117   9.746
 6872WAT      O20857   4.286   0.444   6.165
 6872WAT     H120858   4.242   0.388   6.096
 6872WAT     H220859   4.224   0.518   6.192
 6873WAT      O20860   6.287   4.114   8.893
 6873WAT     H120861   6.285   4.040   8.960
 6873WAT     H220862   6.360   4.178   8.917
 6874WAT      O20863   0.891   2.268   3.613
 6874WAT     H120864   0.951   2.283   3.534
 6874WAT     H220865   0.929   2.196   3.671
 6875WAT      O20866   4.441   9.831   9.248
 6875WAT     H120867   4.521   9.844   9.189
 6875WAT     H220868   4.405   9.921   9.274
 6876WAT      O20869   3.070   2.511   0.145
 6876WAT     H120870   2.985   2.467   0.176
 6876WAT     H220871   3.107   2.459   0.068
 6877WAT      O20872   3.677   9.427   0.490
 6877WAT     H120873   3.740   9.364   0.445
 6877WAT     H220874   3.672   9.404   0.587
 6878WAT      O20875   1.051   1.242   0.974
 6878WAT     H120876   1.098   1.190   1.045
 6878WAT     H220877   0.956   1.258   1.002
 6879WAT      O20878   1.598   9.460   9.403
 6879WAT     H120879   1.530   9.415   9.344
 6879WAT     H220880   1.608   9.555   9.375
 6880WAT      O20881   8.107   7.187   2.684
 6880WAT     H120882   8.151   7.275   2.705
 6880WAT     H220883   8.081   7.141   2.770
 6881WAT      O20884   7.592   6.601   7.632
 6881WAT     H120885   7.572   6.503   7.635
 6881WAT     H220886   7.691   6.614   7.622
 6882WAT      O20887   1.814   2.150   5.649
 6882WAT     H120888   1.810   2.250   5.647
 6882WAT     H220889   1.826   2.115   5.556
 6883WAT      O20890   8.758   6.852   5.835
 6883WAT     H120891   8.722   6.881   5.923
 6883WAT     H220892   8.772   6.931   5.776
 6884WAT      O20893   9.739   2.887   9.806
 6884WAT     H120894   9.718   2.979   9.840
 6884WAT     H220895   9.661   2.827   9.821
 6885WAT      O20896   4.497   3.083   0.726
 6885WAT     H120897   4.410   3.106   0.683
 6885WAT     H220898   4.568   3.147   0.696
 6886WAT      O20899   0.723   2.319   1.570
 6886WAT     H120900   0.738   2.286   1.663
 6886WAT     H220901   0.798   2.379   1.543
 6887WAT      O20902   4.394   2.427   6.143
 6887WAT     H120903   4.422   2.332   6.131
 6887WAT     H220904   4.329   2.453   6.072
 6888WAT      O20905   3.291   9.589   1.588
 6888WAT     H120906   3.227   9.517   1.561
 6888WAT     H220907   3.365   9.594   1.522
 6889WAT      O20908   4.703   7.681   2.530
 6889WAT     H120909   4.645   7.695   2.449
 6889WAT     H220910   4.740   7.588   2.528
 6890WAT      O20911   0.693   2.991   9.838
 6890WAT     H120912   0.660   3.033   9.753
 6890WAT     H220913   0.631   3.016   9.913
 6891WAT      O20914   4.964   2.790   4.574
 6891WAT     H120915   5.003   2.843   4.649
 6891WAT     H220916   5.015   2.705   4.562
 6892WAT      O20917   3.595   1.586   4.869
 6892WAT     H120918   3.640   1.671   4.897
 6892WAT     H220919   3.652   1.540   4.800
 6893WAT      O20920   6.719   4.034   9.706
 6893WAT     H120921   6.739   3.937   9.715
 6893WAT     H220922   6.673   4.067   9.789
 6894WAT      O20923   8.209   6.165   4.266
 6894WAT     H120924   8.124   6.189   4.220
 6894WAT     H220925   8.283   6.223   4.232
 6895WAT      O20926   7.918   7.367   2.986
 6895WAT     H120927   7.871   7.433   2.927
 6895WAT     H220928   8.014   7.394   2.996
 6896WAT      O20929   3.974   8.656   8.509
 6896WAT     H120930   3.948   8.561   8.494
 6896WAT     H220931   3.918   8.695   8.583
 6897WAT      O20932   4.774   5.989   2.839
 6897WAT     H120933   4.835   5.955   2.767
 6897WAT     H220934   4.818   6.065   2.886
 6898WAT      O20935   8.660   8.665   1.509
 6898WAT     H120936   8.749   8.635   1.472
 6898WAT     H220937   8.642   8.615   1.594
 6899WAT      O20938   8.925   6.109   4.068
 6899WAT     H120939   8.907   6.126   4.164
 6899WAT     H220940   8.885   6.021   4.042
 6900WAT      O20941   5.055   2.175   2.220
 6900WAT     H120942   5.052   2.265   2.264
 6900WAT     H220943   4.983   2.117   2.258
 6901WAT      O20944   0.817   2.107   9.425
 6901WAT     H120945   0.855   2.034   9.482
 6901WAT     H220946   0.724   2.082   9.397
 6902WAT      O20947   4.598   6.313   1.282
 6902WAT     H120948   4.647   6.335   1.197
 6902WAT     H220949   4.664   6.308   1.357
 6903WAT      O20950   6.696   5.052   6.326
 6903WAT     H120951   6.607   5.049   6.281
 6903WAT     H220952   6.699   5.127   6.392
 6904WAT      O20953   4.832   3.175   0.884
 6904WAT     H120954   4.871   3.225   0.962
 6904WAT     H220955   4.764   3.233   0.838
 6905WAT      O20956   5.675   1.836   0.934
 6905WAT     H120957   5.667   1.929   0.898
 6905WAT     H220958   5.613   1.776   0.885
 6906WAT      O20959   5.107   6.025   9.225
 6906WAT     H120960   5.007   6.024   9.228
 6906WAT     H220961   5.137   6.005   9.132
 6907WAT      O20962   3.032   8.524   6.977
 6907WAT     H120963   2.992   8.453   6.919
 6907WAT     H220964   3.070   8.482   7.060
 6908WAT      O20965   5.864   3.417   3.637
 6908WAT     H120966   5.944   3.366   3.672
 6908WAT     H220967   5.804   3.441   3.714
 6909WAT      O20968   4.526   6.761   9.045
 6909WAT     H120969   4.616   6.783   9.082
 6909WAT     H220970   4.456   6.816   9.091
 6910WAT      O20971   2.806   4.987   0.481
 6910WAT     H120972   2.896   5.008   0.442
 6910WAT     H220973   2.818   4.946   0.572
 6911WAT      O20974   8.397   2.713   2.807
 6911WAT     H120975   8.364   2.667   2.890
 6911WAT     H220976   8.497   2.710   2.805
 6912WAT      O20977   8.168   4.620   8.295
 6912WAT     H120978   8.230   4.689   8.258
 6912WAT     H220979   8.087   4.614   8.235
 6913WAT      O20980   4.814   8.838   1.458
 6913WAT     H120981   4.852   8.747   1.448
 6913WAT     H220982   4.887   8.906   1.458
 6914WAT      O20983   2.495   6.856   0.802
 6914WAT     H120984   2.554   6.805   0.740
 6914WAT     H220985   2.528   6.845   0.896
 6915WAT      O20986   6.775   3.565   1.196
 6915WAT     H120987   6.747   3.602   1.107
 6915WAT     H220988   6.861   3.608   1.224
 6916WAT      O20989   5.191   9.069   2.626
 6916WAT     H120990   5.268   9.076   2.689
 6916WAT     H220991   5.134   8.991   2.651
 6917WAT      O20992   3.945   8.175   4.348
 6917WAT     H120993   3.969   8.079   4.366
 6917WAT     H220994   3.867   8.179   4.286
 6918WAT      O20995   9.218   5.474   4.847
 6918WAT     H120996   9.142   5.414   4.822
 6918WAT     H220997   9.212   5.497   4.944
 6919WAT      O20998   4.711   4.100   0.036
 6919WAT     H120999   4.776   4.038   0.079
 6919WAT     H221000   4.755   4.148  -0.040
 6920WAT      O21001   4.618   7.823   2.921
 6920WAT     H121002   4.566   7.883   2.860
 6920WAT     H221003   4.710   7.860   2.934
 6921WAT      O21004   5.932   8.532   7.149
 6921WAT     H121005   5.973   8.609   7.197
 6921WAT     H221006   6.003   8.467   7.123
 6922WAT      O21007   9.259   5.159   6.329
 6922WAT     H121008   9.166   5.129   6.351
 6922WAT     H221009   9.256   5.247   6.283
 6923WAT      O21010   1.591   7.283   1.537
 6923WAT     H121011   1.608   7.198   1.487
 6923WAT     H221012   1.554   7.351   1.474
 6924WAT      O21013   7.494   6.146   5.665
 6924WAT     H121014   7.450   6.201   5.594
 6924WAT     H221015   7.584   6.116   5.632
 6925WAT      O21016   6.460   3.321   2.184
 6925WAT     H121017   6.424   3.354   2.271
 6925WAT     H221018   6.410   3.239   2.156
 6926WAT      O21019   2.544   4.494   5.950
 6926WAT     H121020   2.526   4.410   5.899
 6926WAT     H221021   2.641   4.517   5.943
 6927WAT      O21022   1.793   2.981   5.770
 6927WAT     H121023   1.846   2.923   5.709
 6927WAT     H221024   1.851   3.013   5.845
 6928WAT      O21025   6.608   7.932   2.261
 6928WAT     H121026   6.590   7.955   2.356
 6928WAT     H221027   6.576   7.839   2.243
 6929WAT      O21028   9.096   3.949   0.702
 6929WAT     H121029   9.161   4.021   0.725
 6929WAT     H221030   9.098   3.878   0.773
 6930WAT      O21031   0.964   7.251   1.457
 6930WAT     H121032   1.045   7.206   1.419
 6930WAT     H221033   0.974   7.258   1.556
 6931WAT      O21034   3.239   1.363   8.004
 6931WAT     H121035   3.320   1.325   8.048
 6931WAT     H221036   3.266   1.436   7.941
 6932WAT      O21037   7.488   2.690   4.660
 6932WAT     H121038   7.449   2.719   4.747
 6932WAT     H221039   7.515   2.770   4.606
 6933WAT      O21040   7.307   1.288   1.374
 6933WAT     H121041   7.316   1.190   1.395
 6933WAT     H221042   7.398   1.326   1.356
 6934WAT      O21043   7.666   1.305   7.709
 6934WAT     H121044   7.610   1.222   7.721
 6934WAT     H221045   7.611   1.385   7.730
 6935WAT      O21046   9.419   0.461   0.208
 6935WAT     H121047   9.508   0.435   0.248
 6935WAT     H221048   9.362   0.502   0.279
 6936WAT      O21049   9.524   2.473   9.731
 6936WAT     H121050   9.621   2.451   9.747
 6936WAT     H221051   9.515   2.570   9.712
 6937WAT      O21052   0.662   1.608   7.151
 6937WAT     H121053   0.639   1.529   7.207
 6937WAT     H221054   0.661   1.691   7.208
 6938WAT      O21055   0.412   8.929   3.410
 6938WAT     H121056   0.322   8.923   3.367
 6938WAT     H221057   0.483   8.905   3.344
 6939WAT      O21058   5.628   3.207   5.926
 6939WAT     H121059   5.599   3.113   5.911
 6939WAT     H221060   5.673   3.215   6.016
 6940WAT      O21061   3.254   7.069   2.214
 6940WAT     H121062   3.223   7.005   2.144
 6940WAT     H221063   3.354   7.069   2.218
 6941WAT      O21064   0.485   7.375   5.746
 6941WAT     H121065   0.482   7.443   5.673
 6941WAT     H221066   0.410   7.310   5.734
 6942WAT      O21067   6.782   9.598   2.016
 6942WAT     H121068   6.808   9.683   1.971
 6942WAT     H221069   6.720   9.547   1.957
 6943WAT      O21070   3.542   6.534   2.695
 6943WAT     H121071   3.484   6.488   2.762
 6943WAT     H221072   3.486   6.573   2.623
 6944WAT      O21073   1.184   2.470   6.679
 6944WAT     H121074   1.261   2.534   6.680
 6944WAT     H221075   1.157   2.450   6.773
 6945WAT      O21076   9.890   5.784   0.341
 6945WAT     H121077   9.893   5.826   0.251
 6945WAT     H221078   9.814   5.822   0.394
 6946WAT      O21079   2.507   2.738   0.927
 6946WAT     H121080   2.588   2.759   0.981
 6946WAT     H221081   2.483   2.642   0.939
 6947WAT      O21082   4.415   1.337   4.562
 6947WAT     H121083   4.434   1.345   4.660
 6947WAT     H221084   4.323   1.369   4.543
 6948WAT      O21085   0.761   7.282   5.732
 6948WAT     H121086   0.753   7.189   5.769
 6948WAT     H221087   0.674   7.330   5.744
 6949WAT      O21088   4.121   4.680   1.306
 6949WAT     H121089   4.207   4.630   1.296
 6949WAT     H221090   4.072   4.680   1.219
 6950WAT      O21091   3.481   7.158   4.750
 6950WAT     H121092   3.465   7.222   4.674
 6950WAT     H221093   3.481   7.065   4.716
 6951WAT      O21094   8.375   7.994   9.470
 6951WAT     H121095   8.285   7.971   9.508
 6951WAT     H221096   8.427   7.910   9.454
 6952WAT      O21097   8.912   0.548   0.401
 6952WAT     H121098   8.914   0.517   0.496
 6952WAT     H221099   8.818   0.551   0.368
 6953WAT      O21100   6.768   1.695   2.975
 6953WAT     H121101   6.816   1.776   2.943
 6953WAT     H221102   6.686   1.679   2.920
 6954WAT      O21103   0.179   8.243   8.130
 6954WAT     H121104   0.103   8.273   8.187
 6954WAT     H221105   0.178   8.294   8.044
 6955WAT      O21106   3.132   2.571   7.468
 6955WAT     H121107   3.167   2.492   7.418
 6955WAT     H221108   3.197   2.595   7.541
 6956WAT      O21109   4.716   0.489   8.772
 6956WAT     H121110   4.628   0.441   8.768
 6956WAT     H221111   4.720   0.559   8.702
 6957WAT      O21112   5.169   4.500   9.356
 6957WAT     H121113   5.260   4.529   9.328
 6957WAT     H221114   5.109   4.496   9.276
 6958WAT      O21115   6.309   7.946   0.051
 6958WAT     H121116   6.362   7.890   0.116
 6958WAT     H221117   6.339   8.041   0.056
 6959WAT      O21118   5.856   2.714   5.910
 6959WAT     H121119   5.876   2.738   6.004
 6959WAT     H221120   5.895   2.624   5.889
 6960WAT      O21121   1.705   1.848   6.763
 6960WAT     H121122   1.624   1.836   6.820
 6960WAT     H221123   1.691   1.926   6.701
 6961WAT      O21124   6.063   8.339   7.011
 6961WAT     H121125   6.034   8.244   7.012
 6961WAT     H221126   6.152   8.348   7.056
 6962WAT      O21127   5.965   7.252   0.562
 6962WAT     H121128   6.001   7.290   0.647
 6962WAT     H221129   6.034   7.195   0.519
 6963WAT      O21130   0.462   0.733   9.330
 6963WAT     H121131   0.470   0.648   9.382
 6963WAT     H221132   0.465   0.713   9.232
 6964WAT      O21133   0.778   6.697   8.877
 6964WAT     H121134   0.811   6.696   8.783
 6964WAT     H221135   0.708   6.768   8.888
 6965WAT      O21136   3.819   7.045   4.074
 6965WAT     H121137   3.752   7.014   4.141
 6965WAT     H221138   3.862   7.129   4.107
 6966WAT      O21139   5.991   9.499   2.765
 6966WAT     H121140   6.002   9.498   2.864
 6966WAT     H221141   6.042   9.423   2.725
 6967WAT      O21142   8.168   4.394   5.929
 6967WAT     H121143   8.133   4.484   5.951
 6967WAT     H221144   8.108   4.324   5.968
 6968WAT      O21145   1.035   7.993   4.144
 6968WAT     H121146   1.020   7.943   4.059
 6968WAT     H221147   1.122   7.964   4.185
 6969WAT      O21148   8.117   7.319   1.152
 6969WAT     H121149   8.132   7.235   1.205
 6969WAT     H221150   8.092   7.394   1.213
 6970WAT      O21151   2.662   5.419   7.780
 6970WAT     H121152   2.617   5.460   7.858
 6970WAT     H221153   2.692   5.326   7.804
 6971WAT      O21154   2.549   6.908   3.144
 6971WAT     H121155   2.552   6.916   3.243
 6971WAT     H221156   2.559   6.812   3.118
 6972WAT      O21157   3.768   8.609   4.612
 6972WAT     H121158   3.788   8.532   4.673
 6972WAT     H221159   3.821   8.688   4.641
 6973WAT      O21160   5.987   1.275   8.644
 6973WAT     H121161   5.997   1.191   8.591
 6973WAT     H221162   5.901   1.274   8.693
 6974WAT      O21163   6.164   2.962   4.193
 6974WAT     H121164   6.066   2.941   4.184
 6974WAT     H221165   6.217   2.906   4.130
 6975WAT      O21166   3.191   5.053   3.038
 6975WAT     H121167   3.215   4.962   3.071
 6975WAT     H221168   3.243   5.074   2.956
 6976WAT      O21169   9.371   9.162   7.009
 6976WAT     H121170   9.438   9.224   7.049
 6976WAT     H221171   9.416   9.100   6.944
 6977WAT      O21172   4.457   9.355   0.560
 6977WAT     H121173   4.386   9.411   0.602
 6977WAT     H221174   4.476   9.388   0.468
 6978WAT      O21175   8.161   8.102   2.939
 6978WAT     H121176   8.259   8.085   2.950
 6978WAT     H221177   8.121   8.031   2.880
 6979WAT      O21178   5.542   6.451   0.353
 6979WAT     H121179   5.511   6.387   0.424
 6979WAT     H221180   5.642   6.449   0.349
 6980WAT      O21181   7.878   1.387   7.231
 6980WAT     H121182   7.958   1.447   7.243
 6980WAT     H221183   7.839   1.366   7.320
 6981WAT      O21184   0.696   3.812   3.375
 6981WAT     H121185   0.735   3.721   3.358
 6981WAT     H221186   0.659   3.849   3.290
 6982WAT      O21187   2.950   1.279   5.878
 6982WAT     H121188   3.005   1.195   5.877
 6982WAT     H221189   2.971   1.332   5.960
 6983WAT      O21190   8.298   0.376   0.009
 6983WAT     H121191   8.328   0.410  -0.080
 6983WAT     H221192   8.254   0.287  -0.002
 6984WAT      O21193   8.430   9.238   0.313
 6984WAT     H121194   8.362   9.300   0.353
 6984WAT     H221195   8.442   9.260   0.216
 6985WAT      O21196   0.030   8.777   2.236
 6985WAT     H121197  -0.026   8.839   2.291
 6985WAT     H221198  -0.016   8.758   2.149
 6986WAT      O21199   9.433   0.200   8.001
 6986WAT     H121200   9.365   0.243   7.941
 6986WAT     H221201   9.508   0.264   8.018
 6987WAT      O21202   9.483   2.096   6.829
 6987WAT     H121203   9.491   2.189   6.793
 6987WAT     H221204   9.390   2.063   6.813
 6988WAT      O21205   0.119   6.057   9.066
 6988WAT     H121206   0.024   6.036   9.089
 6988WAT     H221207   0.177   5.978   9.088
 6989WAT      O21208   9.670   8.157   8.576
 6989WAT     H121209   9.764   8.185   8.558
 6989WAT     H221210   9.625   8.228   8.631
 6990WAT      O21211   0.238   0.120   9.720
 6990WAT     H121212   0.225   0.113   9.621
 6990WAT     H221213   0.277   0.035   9.755
 6991WAT      O21214   1.452   6.016   6.825
 6991WAT     H121215   1.520   6.046   6.758
 6991WAT     H221216   1.498   5.974   6.903
 6992WAT      O21217   1.730   2.526   5.174
 6992WAT     H121218   1.802   2.549   5.108
 6992WAT     H221219   1.674   2.607   5.190
 6993WAT      O21220   4.282   2.131   2.760
 6993WAT     H121221   4.369   2.134   2.712
 6993WAT     H221222   4.296   2.094   2.852
 6994WAT      O21223   9.274   4.996   4.371
 6994WAT     H121224   9.325   5.001   4.285
 6994WAT     H221225   9.320   4.931   4.432
 6995WAT      O21226   4.668   2.994   9.492
 6995WAT     H121227   4.654   2.946   9.405
 6995WAT     H221228   4.720   2.935   9.554
 6996WAT      O21229   3.316   5.947   7.829
 6996WAT     H121230   3.280   5.857   7.807
 6996WAT     H221231   3.325   5.956   7.928
 6997WAT      O21232   3.114   1.400   4.271
 6997WAT     H121233   3.060   1.329   4.315
 6997WAT     H221234   3.093   1.489   4.313
 6998WAT      O21235   1.515   9.789   5.236
 6998WAT     H121236   1.525   9.712   5.173
 6998WAT     H221237   1.582   9.781   5.310
 6999WAT      O21238   6.398   6.273   9.637
 6999WAT     H121239   6.421   6.182   9.670
 6999WAT     H221240   6.447   6.290   9.551
 7000WAT      O21241   2.109   0.647   3.702
 7000WAT     H121242   2.200   0.606   3.704
 7000WAT     H221243   2.042   0.581   3.737
 7001WAT      O21244   4.616   0.735   7.528
 7001WAT     H121245   4.602   0.831   7.504
 7001WAT     H221246   4.563   0.676   7.467
 7002WAT      O21247   5.980   6.739   6.806
 7002WAT     H121248   5.910   6.797   6.848
 7002WAT     H221249   5.994   6.658   6.862
 7003WAT      O21250   9.208   3.233   0.068
 7003WAT     H121251   9.282   3.228   0.135
 7003WAT     H221252   9.226   3.309   0.005
 7004WAT      O21253   3.216   9.318   1.560
 7004WAT     H121254   3.180   9.292   1.650
 7004WAT     H221255   3.274   9.245   1.525
 7005WAT      O21256   6.738   5.599   9.441
 7005WAT     H121257   6.800   5.671   9.472
 7005WAT     H221258   6.733   5.601   9.341
 7006WAT      O21259   0.546   5.961   7.717
 7006WAT     H121260   0.587   5.905   7.644
 7006WAT     H221261   0.618   6.005   7.770
 7007WAT      O21262   6.747   2.777   6.066
 7007WAT     H121263   6.679   2.843   6.035
 7007WAT     H221264   6.728   2.687   6.025
 7008WAT      O21265   5.560   1.514   2.355
 7008WAT     H121266   5.654   1.547   2.355
 7008WAT     H221267   5.518   1.534   2.444
 7009WAT      O21268   8.284   1.333   9.549
 7009WAT     H121269   8.281   1.423   9.593
 7009WAT     H221270   8.200   1.283   9.569
 7010WAT      O21271   4.451   5.156   3.813
 7010WAT     H121272   4.528   5.220   3.820
 7010WAT     H221273   4.420   5.131   3.905
 7011WAT      O21274   0.318   0.773   3.274
 7011WAT     H121275   0.409   0.742   3.245
 7011WAT     H221276   0.286   0.716   3.349
 7012WAT      O21277   5.912   5.508   3.087
 7012WAT     H121278   5.895   5.511   2.989
 7012WAT     H221279   6.010   5.519   3.104
 7013WAT      O21280   3.523   7.506   8.123
 7013WAT     H121281   3.552   7.592   8.083
 7013WAT     H221282   3.439   7.475   8.077
 7014WAT      O21283   3.528   9.161   6.003
 7014WAT     H121284   3.500   9.247   6.045
 7014WAT     H221285   3.447   9.106   5.982
 7015WAT      O21286   3.266   2.497   4.727
 7015WAT     H121287   3.224   2.492   4.636
 7015WAT     H221288   3.198   2.477   4.797
 7016WAT      O21289   8.939   2.308   7.836
 7016WAT     H121290   8.942   2.373   7.760
 7016WAT     H221291   8.901   2.354   7.917
 7017WAT      O21292   7.949   7.607   6.906
 7017WAT     H121293   7.991   7.516   6.905
 7017WAT     H221294   7.984   7.660   6.829
 7018WAT      O21295   0.111   6.164   8.378
 7018WAT     H121296   0.032   6.116   8.340
 7018WAT     H221297   0.113   6.257   8.343
 7019WAT      O21298   5.325   8.619   3.306
 7019WAT     H121299   5.392   8.549   3.279
 7019WAT     H221300   5.327   8.631   3.405
 7020WAT      O21301   3.387   2.274   0.599
 7020WAT     H121302   3.433   2.185   0.599
 7020WAT     H221303   3.451   2.344   0.631
 7021WAT      O21304   8.960   9.272   3.512
 7021WAT     H121305   8.954   9.313   3.604
 7021WAT     H221306   8.882   9.302   3.458
 7022WAT      O21307   8.994   6.607   9.454
 7022WAT     H121308   9.015   6.699   9.488
 7022WAT     H221309   9.077   6.564   9.421
 7023WAT      O21310   4.705   3.806   8.097
 7023WAT     H121311   4.617   3.793   8.142
 7023WAT     H221312   4.779   3.793   8.163
 7024WAT      O21313   2.709   9.735   8.532
 7024WAT     H121314   2.705   9.675   8.452
 7024WAT     H221315   2.658   9.819   8.513
 7025WAT      O21316   9.097   4.364   8.668
 7025WAT     H121317   9.186   4.379   8.709
 7025WAT     H221318   9.107   4.356   8.569
 7026WAT      O21319   6.558   1.977   5.423
 7026WAT     H121320   6.629   2.018   5.365
 7026WAT     H221321   6.570   1.877   5.423
 7027WAT      O21322   1.627   7.754   6.899
 7027WAT     H121323   1.723   7.752   6.869
 7027WAT     H221324   1.576   7.818   6.843
 7028WAT      O21325   2.171   4.860   2.987
 7028WAT     H121326   2.198   4.785   3.048
 7028WAT     H221327   2.101   4.827   2.924
 7029WAT      O21328   4.411   3.731   5.732
 7029WAT     H121329   4.330   3.780   5.699
 7029WAT     H221330   4.449   3.677   5.657
 7030WAT      O21331   0.413   4.902   4.503
 7030WAT     H121332   0.440   4.814   4.542
 7030WAT     H221333   0.391   4.966   4.577
 7031WAT      O21334   6.066   3.212   3.710
 7031WAT     H121335   6.096   3.191   3.617
 7031WAT     H221336   6.144   3.207   3.772
 7032WAT      O21337   6.709   0.758   7.203
 7032WAT     H121338   6.701   0.659   7.192
 7032WAT     H221339   6.679   0.804   7.119
 7033WAT      O21340   1.090   4.053   3.456
 7033WAT     H121341   1.117   4.129   3.515
 7033WAT     H221342   1.004   4.014   3.490
 7034WAT      O21343   5.634   4.994   3.318
 7034WAT     H121344   5.715   4.988   3.376
 7034WAT     H221345   5.570   5.059   3.358
 7035WAT      O21346   5.667   2.358   4.161
 7035WAT     H121347   5.653   2.335   4.065
 7035WAT     H221348   5.752   2.409   4.172
 7036WAT      O21349   0.730   9.483   0.891
 7036WAT     H121350   0.736   9.430   0.806
 7036WAT     H221351   0.820   9.519   0.915
 7037WAT      O21352   7.810   0.872   8.375
 7037WAT     H121353   7.905   0.851   8.399
 7037WAT     H221354   7.787   0.826   8.289
 7038WAT      O21355   9.323   7.553   2.080
 7038WAT     H121356   9.281   7.625   2.025
 7038WAT     H221357   9.421   7.547   2.058
 7039WAT      O21358   8.513   0.959   2.201
 7039WAT     H121359   8.607   0.977   2.171
 7039WAT     H221360   8.513   0.932   2.297
 7040WAT      O21361   4.083   1.228   7.094
 7040WAT     H121362   4.062   1.324   7.078
 7040WAT     H221363   4.002   1.181   7.129
 7041WAT      O21364   7.737   5.316   6.070
 7041WAT     H121365   7.714   5.399   6.121
 7041WAT     H221366   7.714   5.329   5.973
 7042WAT      O21367   2.567   6.116   8.453
 7042WAT     H121368   2.653   6.096   8.500
 7042WAT     H221369   2.492   6.068   8.498
 7043WAT      O21370   9.268   9.690   7.160
 7043WAT     H121371   9.332   9.645   7.097
 7043WAT     H221372   9.317   9.755   7.218
 7044WAT      O21373   4.396   4.584   9.101
 7044WAT     H121374   4.299   4.606   9.085
 7044WAT     H221375   4.423   4.617   9.191
 7045WAT      O21376   5.279   3.688   0.625
 7045WAT     H121377   5.189   3.728   0.607
 7045WAT     H221378   5.338   3.702   0.546
 7046WAT      O21379   5.566   9.218   5.117
 7046WAT     H121380   5.587   9.144   5.053
 7046WAT     H221381   5.595   9.192   5.209
 7047WAT      O21382   0.083   9.534   2.828
 7047WAT     H121383   0.067   9.548   2.730
 7047WAT     H221384   0.098   9.622   2.872
 7048WAT      O21385   3.542   7.405   6.168
 7048WAT     H121386   3.450   7.438   6.184
 7048WAT     H221387   3.587   7.386   6.255
 7049WAT      O21388   1.046   7.039   6.359
 7049WAT     H121389   1.092   6.966   6.309
 7049WAT     H221390   0.960   7.061   6.313
 7050WAT      O21391   7.761   5.207   4.900
 7050WAT     H121392   7.819   5.263   4.960
 7050WAT     H221393   7.719   5.266   4.831
 7051WAT      O21394   6.315   6.498   6.581
 7051WAT     H121395   6.388   6.562   6.605
 7051WAT     H221396   6.285   6.515   6.487
 7052WAT      O21397   2.138   2.654   3.916
 7052WAT     H121398   2.223   2.648   3.864
 7052WAT     H221399   2.118   2.750   3.935
 7053WAT      O21400   8.366   0.752   4.478
 7053WAT     H121401   8.425   0.791   4.408
 7053WAT     H221402   8.405   0.769   4.569
 7054WAT      O21403   4.928   3.450   9.644
 7054WAT     H121404   4.992   3.475   9.716
 7054WAT     H221405   4.910   3.352   9.648
 7055WAT      O21406   0.193   2.382   3.047
 7055WAT     H121407   0.275   2.437   3.064
 7055WAT     H221408   0.203   2.332   2.962
 7056WAT      O21409   2.875   0.702   4.131
 7056WAT     H121410   2.931   0.760   4.072
 7056WAT     H221411   2.908   0.708   4.225
 7057WAT      O21412   8.215   7.275   0.846
 7057WAT     H121413   8.227   7.284   0.945
 7057WAT     H221414   8.271   7.342   0.799
 7058WAT      O21415   1.360   2.743   4.580
 7058WAT     H121416   1.433   2.675   4.569
 7058WAT     H221417   1.271   2.700   4.565
 7059WAT      O21418   6.483   3.725   7.891
 7059WAT     H121419   6.537   3.680   7.820
 7059WAT     H221420   6.416   3.660   7.928
 7060WAT      O21421   1.984   6.965   2.920
 7060WAT     H121422   2.026   6.949   2.832
 7060WAT     H221423   1.982   7.064   2.939
 7061WAT      O21424   2.058   0.759   7.910
 7061WAT     H121425   1.966   0.762   7.872
 7061WAT     H221426   2.125   0.786   7.840
 7062WAT      O21427   7.661   5.177   0.393
 7062WAT     H121428   7.578   5.233   0.406
 7062WAT     H221429   7.741   5.228   0.425
 7063WAT      O21430   0.681   9.265   9.695
 7063WAT     H121431   0.705   9.305   9.607
 7063WAT     H221432   0.684   9.165   9.689
 7064WAT      O21433   9.261   4.379   7.058
 7064WAT     H121434   9.227   4.324   7.134
 7064WAT     H221435   9.284   4.471   7.091
 7065WAT      O21436   6.354   8.414   1.777
 7065WAT     H121437   6.430   8.367   1.821
 7065WAT     H221438   6.379   8.509   1.760
 7066WAT      O21439   4.296   1.890   3.653
 7066WAT     H121440   4.253   1.944   3.725
 7066WAT     H221441   4.320   1.799   3.689
 7067WAT      O21442   8.729   4.362   8.493
 7067WAT     H121443   8.765   4.441   8.542
 7067WAT     H221444   8.737   4.378   8.394
 7068WAT      O21445   1.566   6.996   9.202
 7068WAT     H121446   1.586   6.920   9.263
 7068WAT     H221447   1.483   7.042   9.233
 7069WAT      O21448   4.723   6.696   0.598
 7069WAT     H121449   4.659   6.672   0.525
 7069WAT     H221450   4.674   6.704   0.684
 7070WAT      O21451   6.887   7.131   0.616
 7070WAT     H121452   6.975   7.083   0.606
 7070WAT     H221453   6.894   7.222   0.576
 7071WAT      O21454   0.522   2.434   5.630
 7071WAT     H121455   0.457   2.423   5.706
 7071WAT     H221456   0.475   2.416   5.544
 7072WAT      O21457   6.308   7.570   8.413
 7072WAT     H121458   6.231   7.509   8.434
 7072WAT     H221459   6.321   7.576   8.314
 7073WAT      O21460   2.561   7.374   6.490
 7073WAT     H121461   2.595   7.401   6.400
 7073WAT     H221462   2.638   7.360   6.552
 7074WAT      O21463   1.674   2.191   9.313
 7074WAT     H121464   1.658   2.115   9.249
 7074WAT     H221465   1.691   2.274   9.261
 7075WAT      O21466   3.689   6.327   3.298
 7075WAT     H121467   3.710   6.374   3.211
 7075WAT     H221468   3.692   6.228   3.284
 7076WAT      O21469   1.778   5.079   6.752
 7076WAT     H121470   1.797   5.027   6.669
 7076WAT     H221471   1.818   5.032   6.830
 7077WAT      O21472   4.044   1.980   0.378
 7077WAT     H121473   3.959   1.934   0.355
 7077WAT     H221474   4.112   1.964   0.306
 7078WAT      O21475   1.656   4.636   1.795
 7078WAT     H121476   1.619   4.610   1.884
 7078WAT     H221477   1.620   4.574   1.725
 7079WAT      O21478   8.756   1.882   1.812
 7079WAT     H121479   8.666   1.860   1.775
 7079WAT     H221480   8.772   1.827   1.894
 7080WAT      O21481   1.932   9.429   7.603
 7080WAT     H121482   1.948   9.378   7.519
 7080WAT     H221483   1.834   9.446   7.615
 7081WAT      O21484   1.671   8.588   7.839
 7081WAT     H121485   1.683   8.547   7.930
 7081WAT     H221486   1.684   8.687   7.845
 7082WAT      O21487   4.364   1.995   4.052
 7082WAT     H121488   4.316   1.997   3.964
 7082WAT     H221489   4.438   1.927   4.047
 7083WAT      O21490   6.547   1.184   7.077
 7083WAT     H121491   6.601   1.186   6.992
 7083WAT     H221492   6.457   1.145   7.058
 7084WAT      O21493   6.211   1.191   1.296
 7084WAT     H121494   6.172   1.107   1.334
 7084WAT     H221495   6.310   1.189   1.307
 7085WAT      O21496   8.040   4.844   8.030
 7085WAT     H121497   7.988   4.930   8.035
 7085WAT     H221498   8.027   4.793   8.115
 7086WAT      O21499   8.244   1.492   6.584
 7086WAT     H121500   8.209   1.420   6.523
 7086WAT     H221501   8.311   1.547   6.535
 7087WAT      O21502   8.083   8.383   4.168
 7087WAT     H121503   8.136   8.322   4.110
 7087WAT     H221504   8.061   8.467   4.118
 7088WAT      O21505   3.378   9.517   1.822
 7088WAT     H121506   3.344   9.561   1.739
 7088WAT     H221507   3.369   9.417   1.812
 7089WAT      O21508   9.644   7.006   9.864
 7089WAT     H121509   9.607   7.098   9.851
 7089WAT     H221510   9.702   7.005   9.945
 7090WAT      O21511   2.713   8.218   0.376
 7090WAT     H121512   2.670   8.276   0.306
 7090WAT     H221513   2.687   8.122   0.360
 7091WAT      O21514   7.508   3.174   5.881
 7091WAT     H121515   7.413   3.203   5.880
 7091WAT     H221516   7.538   3.160   5.975
 7092WAT      O21517   4.342   5.910   0.913
 7092WAT     H121518   4.274   5.859   0.966
 7092WAT     H221519   4.362   5.997   0.959
 7093WAT      O21520   2.639   3.183   6.879
 7093WAT     H121521   2.551   3.159   6.920
 7093WAT     H221522   2.632   3.273   6.837
 7094WAT      O21523   4.578   1.107   6.713
 7094WAT     H121524   4.620   1.183   6.664
 7094WAT     H221525   4.645   1.064   6.773
 7095WAT      O21526   5.895   9.328   0.574
 7095WAT     H121527   5.891   9.332   0.674
 7095WAT     H221528   5.803   9.315   0.538
 7096WAT      O21529   7.999   6.223   5.060
 7096WAT     H121530   8.097   6.241   5.047
 7096WAT     H221531   7.984   6.182   5.150
 7097WAT      O21532   4.068   0.287   8.950
 7097WAT     H121533   4.124   0.235   8.885
 7097WAT     H221534   4.051   0.378   8.914
 7098WAT      O21535   7.692   2.565   0.145
 7098WAT     H121536   7.655   2.479   0.179
 7098WAT     H221537   7.618   2.631   0.131
 7099WAT      O21538   8.672   3.751   8.750
 7099WAT     H121539   8.693   3.656   8.774
 7099WAT     H221540   8.579   3.772   8.777
 7100WAT      O21541   6.964   9.115   2.147
 7100WAT     H121542   7.027   9.188   2.117
 7100WAT     H221543   6.871   9.138   2.120
 7101WAT      O21544   6.565   6.962   8.623
 7101WAT     H121545   6.536   6.966   8.719
 7101WAT     H221546   6.511   6.894   8.574
 7102WAT      O21547   0.818   9.022   0.108
 7102WAT     H121548   0.806   8.923   0.103
 7102WAT     H221549   0.856   9.056   0.021
 7103WAT      O21550   4.827   2.298   5.639
 7103WAT     H121551   4.735   2.265   5.658
 7103WAT     H221552   4.835   2.394   5.666
 7104WAT      O21553   5.435   6.684   7.871
 7104WAT     H121554   5.517   6.734   7.899
 7104WAT     H221555   5.379   6.742   7.811
 7105WAT      O21556   8.447   7.289   5.240
 7105WAT     H121557   8.408   7.288   5.148
 7105WAT     H221558   8.454   7.195   5.274
 7106WAT      O21559   2.032   8.062   3.625
 7106WAT     H121560   2.054   8.101   3.535
 7106WAT     H221561   2.053   7.964   3.625
 7107WAT      O21562   6.892   8.024   9.432
 7107WAT     H121563   6.892   7.962   9.354
 7107WAT     H221564   6.877   7.972   9.516
 7108WAT      O21565   7.976   0.423   3.686
 7108WAT     H121566   7.939   0.514   3.708
 7108WAT     H221567   8.076   0.427   3.688
 7109WAT      O21568   9.423   5.350   2.591
 7109WAT     H121569   9.504   5.359   2.533
 7109WAT     H221570   9.347   5.402   2.550
 7110WAT      O21571   2.432   0.071   2.645
 7110WAT     H121572   2.455   0.045   2.739
 7110WAT     H221573   2.513   0.060   2.586
 7111WAT      O21574   8.808   1.659   2.313
 7111WAT     H121575   8.776   1.639   2.405
 7111WAT     H221576   8.819   1.758   2.301
 7112WAT      O21577   5.853   7.925   0.927
 7112WAT     H121578   5.816   7.833   0.913
 7112WAT     H221579   5.784   7.993   0.904
 7113WAT      O21580   9.021   2.710   8.172
 7113WAT     H121581   8.953   2.739   8.240
 7113WAT     H221582   9.012   2.767   8.091
 7114WAT      O21583   3.498   2.199   7.865
 7114WAT     H121584   3.527   2.162   7.953
 7114WAT     H221585   3.461   2.291   7.878
 7115WAT      O21586   6.208   8.286   5.314
 7115WAT     H121587   6.221   8.225   5.236
 7115WAT     H221588   6.290   8.285   5.372
 7116WAT      O21589   6.143   5.573   0.832
 7116WAT     H121590   6.161   5.524   0.746
 7116WAT     H221591   6.047   5.560   0.857
 7117WAT      O21592   1.991   5.069   5.002
 7117WAT     H121593   1.947   5.055   4.913
 7117WAT     H221594   1.956   5.153   5.043
 7118WAT      O21595   4.479   3.782   9.103
 7118WAT     H121596   4.431   3.772   9.191
 7118WAT     H221597   4.451   3.867   9.059
 7119WAT      O21598   8.454   0.036   6.801
 7119WAT     H121599   8.409  -0.051   6.822
 7119WAT     H221600   8.398   0.112   6.836
 7120WAT      O21601   7.683   4.552   0.212
 7120WAT     H121602   7.691   4.457   0.181
 7120WAT     H221603   7.707   4.614   0.137
 7121WAT      O21604   1.119   5.002   6.778
 7121WAT     H121605   1.171   4.917   6.773
 7121WAT     H221606   1.027   4.987   6.743
 7122WAT      O21607   1.056   0.040   7.357
 7122WAT     H121608   1.059   0.137   7.330
 7122WAT     H221609   1.076   0.032   7.454
 7123WAT      O21610   1.842   6.770   2.351
 7123WAT     H121611   1.744   6.763   2.334
 7123WAT     H221612   1.871   6.697   2.413
 7124WAT      O21613   2.024   8.263   4.252
 7124WAT     H121614   2.060   8.173   4.228
 7124WAT     H221615   2.072   8.298   4.332
 7125WAT      O21616   8.818   6.874   1.060
 7125WAT     H121617   8.842   6.778   1.073
 7125WAT     H221618   8.743   6.898   1.121
 7126WAT      O21619   6.835   5.807   9.116
 7126WAT     H121620   6.859   5.794   9.212
 7126WAT     H221621   6.885   5.885   9.079
 7127WAT      O21622   3.333   6.407   0.851
 7127WAT     H121623   3.336   6.307   0.843
 7127WAT     H221624   3.304   6.447   0.764
 7128WAT      O21625   5.568   2.325   7.831
 7128WAT     H121626   5.564   2.355   7.926
 7128WAT     H221627   5.662   2.300   7.807
 7129WAT      O21628   6.328   9.761   2.595
 7129WAT     H121629   6.258   9.789   2.661
 7129WAT     H221630   6.384   9.688   2.635
 7130WAT      O21631   9.794   2.403   2.935
 7130WAT     H121632   9.880   2.453   2.920
 7130WAT     H221633   9.727   2.430   2.866
 7131WAT      O21634   4.949   9.461   9.242
 7131WAT     H121635   4.857   9.467   9.202
 7131WAT     H221636   5.017   9.452   9.170
 7132WAT      O21637   3.122   5.934   4.667
 7132WAT     H121638   3.061   6.000   4.712
 7132WAT     H221639   3.152   5.971   4.579
 7133WAT      O21640   8.150   4.639   4.967
 7133WAT     H121641   8.104   4.584   5.037
 7133WAT     H221642   8.134   4.736   4.985
 7134WAT      O21643   1.935   7.728   5.835
 7134WAT     H121644   1.912   7.667   5.910
 7134WAT     H221645   2.027   7.765   5.849
 7135WAT      O21646   2.685   8.068   4.965
 7135WAT     H121647   2.591   8.100   4.956
 7135WAT     H221648   2.736   8.130   5.025
 7136WAT      O21649   0.560   8.008   0.185
 7136WAT     H121650   0.497   8.022   0.262
 7136WAT     H221651   0.561   7.911   0.161
 7137WAT      O21652   2.278   3.338   9.762
 7137WAT     H121653   2.290   3.288   9.847
 7137WAT     H221654   2.275   3.436   9.781
 7138WAT      O21655   4.352   6.846   4.788
 7138WAT     H121656   4.306   6.763   4.819
 7138WAT     H221657   4.383   6.898   4.867
 7139WAT      O21658   6.084   2.016   3.289
 7139WAT     H121659   6.171   2.060   3.312
 7139WAT     H221660   6.099   1.951   3.214
 7140WAT      O21661   6.572   5.295   4.956
 7140WAT     H121662   6.523   5.263   4.875
 7140WAT     H221663   6.625   5.377   4.933
 7141WAT      O21664   2.104   2.026   1.901
 7141WAT     H121665   2.066   2.048   1.991
 7141WAT     H221666   2.061   2.084   1.832
 7142WAT      O21667   4.522   8.732   0.224
 7142WAT     H121668   4.453   8.796   0.256
 7142WAT     H221669   4.515   8.721   0.125
 7143WAT      O21670   8.703   2.112   5.694
 7143WAT     H121671   8.713   2.210   5.711
 7143WAT     H221672   8.777   2.062   5.737
 7144WAT      O21673   6.496   2.713   7.655
 7144WAT     H121674   6.499   2.637   7.720
 7144WAT     H221675   6.568   2.701   7.586
 7145WAT      O21676   3.422   8.322   0.539
 7145WAT     H121677   3.467   8.334   0.628
 7145WAT     H221678   3.330   8.286   0.554
 7146WAT      O21679   9.513   0.826   7.947
 7146WAT     H121680   9.479   0.786   7.862
 7146WAT     H221681   9.520   0.925   7.937
 7147WAT      O21682   4.272   5.408   0.383
 7147WAT     H121683   4.293   5.312   0.399
 7147WAT     H221684   4.346   5.465   0.418
 7148WAT      O21685   5.680   2.614   6.954
 7148WAT     H121686   5.646   2.668   6.878
 7148WAT     H221687   5.753   2.664   7.001
 7149WAT      O21688   6.585   0.842   4.064
 7149WAT     H121689   6.521   0.797   4.126
 7149WAT     H221690   6.679   0.821   4.091
 7150WAT      O21691   7.106   7.045   2.268
 7150WAT     H121692   7.020   7.013   2.308
 7150WAT     H221693   7.140   7.123   2.320
 7151WAT      O21694   4.711   7.046   1.152
 7151WAT     H121695   4.787   7.090   1.105
 7151WAT     H221696   4.654   6.998   1.086
 7152WAT      O21697   2.716   8.005   1.164
 7152WAT     H121698   2.709   8.050   1.253
 7152WAT     H221699   2.657   8.051   1.098
 7153WAT      O21700   3.847   8.838   5.188
 7153WAT     H121701   3.785   8.854   5.264
 7153WAT     H221702   3.798   8.792   5.114
 7154WAT      O21703   1.040   3.390   8.475
 7154WAT     H121704   1.075   3.476   8.438
 7154WAT     H221705   0.990   3.341   8.403
 7155WAT      O21706   2.179   8.730   9.429
 7155WAT     H121707   2.201   8.671   9.350
 7155WAT     H221708   2.258   8.786   9.450
 7156WAT      O21709   7.700   9.452   4.876
 7156WAT     H121710   7.641   9.463   4.956
 7156WAT     H221711   7.775   9.389   4.899
 7157WAT      O21712   1.602   6.633   0.359
 7157WAT     H121713   1.643   6.558   0.410
 7157WAT     H221714   1.521   6.666   0.408
 7158WAT      O21715   3.507   9.067   9.487
 7158WAT     H121716   3.479   9.163   9.481
 7158WAT     H221717   3.473   9.017   9.408
 7159WAT      O21718   5.256   9.328   4.291
 7159WAT     H121719   5.216   9.366   4.375
 7159WAT     H221720   5.195   9.258   4.254
 7160WAT      O21721   1.249   1.862   3.103
 7160WAT     H121722   1.239   1.763   3.118
 7160WAT     H221723   1.204   1.887   3.018
 7161WAT      O21724   5.293   9.841   2.652
 7161WAT     H121725   5.225   9.895   2.602
 7161WAT     H221726   5.246   9.772   2.707
 7162WAT      O21727   5.260   4.047   7.631
 7162WAT     H121728   5.211   4.111   7.690
 7162WAT     H221729   5.350   4.028   7.669
 7163WAT      O21730   8.841   7.737   8.375
 7163WAT     H121731   8.929   7.721   8.329
 7163WAT     H221732   8.852   7.724   8.473
 7164WAT      O21733   1.309   7.289   7.200
 7164WAT     H121734   1.407   7.303   7.215
 7164WAT     H221735   1.281   7.332   7.115
 7165WAT      O21736   9.350   9.084   8.391
 7165WAT     H121737   9.416   9.137   8.337
 7165WAT     H221738   9.323   9.136   8.471
 7166WAT      O21739   6.498   5.502   4.630
 7166WAT     H121740   6.467   5.597   4.623
 7166WAT     H221741   6.566   5.483   4.560
 7167WAT      O21742   5.498   7.278   1.421
 7167WAT     H121743   5.505   7.349   1.491
 7167WAT     H221744   5.431   7.305   1.352
 7168WAT      O21745   6.912   0.160   0.638
 7168WAT     H121746   6.841   0.105   0.682
 7168WAT     H221747   6.869   0.232   0.584
 7169WAT      O21748   8.386   3.787   4.608
 7169WAT     H121749   8.410   3.692   4.586
 7169WAT     H221750   8.307   3.815   4.553
 7170WAT      O21751   7.190   6.564   2.334
 7170WAT     H121752   7.220   6.571   2.239
 7170WAT     H221753   7.160   6.653   2.366
 7171WAT      O21754   9.496   4.023   3.169
 7171WAT     H121755   9.502   3.935   3.121
 7171WAT     H221756   9.558   4.088   3.125
 7172WAT      O21757   3.883   2.376   7.560
 7172WAT     H121758   3.835   2.388   7.647
 7172WAT     H221759   3.924   2.463   7.532
 7173WAT      O21760   8.231   9.682   5.605
 7173WAT     H121761   8.143   9.712   5.565
 7173WAT     H221762   8.264   9.753   5.667
 7174WAT      O21763   3.592   8.716   2.957
 7174WAT     H121764   3.557   8.685   3.045
 7174WAT     H221765   3.674   8.772   2.971
 7175WAT      O21766   5.538   3.209   4.349
 7175WAT     H121767   5.511   3.305   4.353
 7175WAT     H221768   5.515   3.164   4.435
 7176WAT      O21769   5.250   4.794   2.555
 7176WAT     H121770   5.332   4.850   2.565
 7176WAT     H221771   5.276   4.700   2.529
 7177WAT      O21772   9.669   3.670   8.472
 7177WAT     H121773   9.617   3.691   8.555
 7177WAT     H221774   9.715   3.753   8.440
 7178WAT      O21775   0.376   1.196   7.427
 7178WAT     H121776   0.422   1.107   7.430
 7178WAT     H221777   0.336   1.216   7.516
 7179WAT      O21778   6.705   4.552   9.843
 7179WAT     H121779   6.737   4.646   9.859
 7179WAT     H221780   6.772   4.488   9.881
 7180WAT      O21781   7.242   3.266   1.224
 7180WAT     H121782   7.231   3.359   1.187
 7180WAT     H221783   7.306   3.215   1.166
 7181WAT      O21784   4.990   1.312   7.697
 7181WAT     H121785   5.005   1.371   7.618
 7181WAT     H221786   5.069   1.319   7.759
 7182WAT      O21787   5.768   6.801   5.673
 7182WAT     H121788   5.858   6.832   5.642
 7182WAT     H221789   5.738   6.857   5.750
 7183WAT      O21790   3.507   8.647   7.814
 7183WAT     H121791   3.505   8.550   7.789
 7183WAT     H221792   3.582   8.663   7.877
 7184WAT      O21793   4.742   6.716   6.932
 7184WAT     H121794   4.768   6.633   6.883
 7184WAT     H221795   4.824   6.766   6.959
 7185WAT      O21796   6.420   6.388   3.547
 7185WAT     H121797   6.335   6.407   3.595
 7185WAT     H221798   6.400   6.353   3.455
 7186WAT      O21799   8.730   4.699   3.306
 7186WAT     H121800   8.824   4.669   3.318
 7186WAT     H221801   8.723   4.757   3.225
 7187WAT      O21802   8.270   0.560   3.474
 7187WAT     H121803   8.361   0.574   3.515
 7187WAT     H221804   8.230   0.649   3.452
 7188WAT      O21805   0.836   4.317   5.330
 7188WAT     H121806   0.934   4.332   5.343
 7188WAT     H221807   0.816   4.219   5.333
 7189WAT      O21808   5.700   2.124   5.541
 7189WAT     H121809   5.608   2.133   5.503
 7189WAT     H221810   5.696   2.072   5.626
 7190WAT      O21811   9.210   8.018   0.542
 7190WAT     H121812   9.241   8.026   0.447
 7190WAT     H221813   9.239   8.099   0.593
 7191WAT      O21814   4.207   8.283   9.611
 7191WAT     H121815   4.118   8.263   9.651
 7191WAT     H221816   4.270   8.209   9.632
 7192WAT      O21817   5.096   6.094   7.079
 7192WAT     H121818   5.003   6.099   7.043
 7192WAT     H221819   5.161   6.111   7.005
 7193WAT      O21820   4.531   5.367   7.824
 7193WAT     H121821   4.585   5.381   7.907
 7193WAT     H221822   4.435   5.388   7.843
 7194WAT      O21823   4.878   6.900   8.960
 7194WAT     H121824   4.971   6.869   8.939
 7194WAT     H221825   4.817   6.878   8.884
 7195WAT      O21826   7.696   6.114   6.951
 7195WAT     H121827   7.622   6.181   6.943
 7195WAT     H221828   7.720   6.102   7.047
 7196WAT      O21829   8.819   0.433   9.137
 7196WAT     H121830   8.824   0.508   9.071
 7196WAT     H221831   8.780   0.467   9.223
 7197WAT      O21832   9.705   7.914   9.105
 7197WAT     H121833   9.707   8.007   9.067
 7197WAT     H221834   9.788   7.865   9.078
 7198WAT      O21835   1.542   0.315   6.441
 7198WAT     H121836   1.629   0.354   6.413
 7198WAT     H221837   1.475   0.328   6.368
 7199WAT      O21838   2.393   0.829   4.874
 7199WAT     H121839   2.330   0.786   4.938
 7199WAT     H221840   2.342   0.861   4.794
 7200WAT      O21841   3.582   4.564   6.542
 7200WAT     H121842   3.545   4.651   6.574
 7200WAT     H221843   3.515   4.519   6.482
 7201WAT      O21844   9.816   3.495   6.944
 7201WAT     H121845   9.765   3.501   6.858
 7201WAT     H221846   9.910   3.524   6.929
 7202WAT      O21847   2.048   5.530   2.632
 7202WAT     H121848   2.137   5.494   2.659
 7202WAT     H221849   2.033   5.618   2.677
 7203WAT      O21850   3.842   1.971   9.644
 7203WAT     H121851   3.861   1.873   9.654
 7203WAT     H221852   3.748   1.983   9.613
 7204WAT      O21853   2.914   2.476   3.726
 7204WAT     H121854   2.914   2.385   3.767
 7204WAT     H221855   2.831   2.488   3.671
 7205WAT      O21856   7.952   3.347   1.273
 7205WAT     H121857   7.947   3.433   1.324
 7205WAT     H221858   8.009   3.282   1.322
 7206WAT      O21859   4.571   7.348   6.748
 7206WAT     H121860   4.549   7.398   6.832
 7206WAT     H221861   4.533   7.398   6.669
 7207WAT      O21862   9.804   3.810   2.336
 7207WAT     H121863   9.726   3.859   2.375
 7207WAT     H221864   9.778   3.771   2.248
 7208WAT      O21865   5.151   1.766   2.387
 7208WAT     H121866   5.203   1.681   2.384
 7208WAT     H221867   5.200   1.837   2.337
 7209WAT      O21868   0.895   5.084   2.114
 7209WAT     H121869   0.957   5.121   2.044
 7209WAT     H221870   0.941   5.085   2.203
 7210WAT      O21871   7.498   7.764   0.538
 7210WAT     H121872   7.463   7.769   0.444
 7210WAT     H221873   7.539   7.674   0.553
 7211WAT      O21874   2.440   2.484   8.527
 7211WAT     H121875   2.472   2.467   8.434
 7211WAT     H221876   2.392   2.572   8.530
 7212WAT      O21877   4.206   3.394   8.314
 7212WAT     H121878   4.212   3.356   8.222
 7212WAT     H221879   4.133   3.349   8.365
 7213WAT      O21880   8.036   3.055   0.696
 7213WAT     H121881   7.947   3.021   0.726
 7213WAT     H221882   8.024   3.126   0.627
 7214WAT      O21883   4.598   1.290   7.007
 7214WAT     H121884   4.694   1.309   6.983
 7214WAT     H221885   4.549   1.376   7.015
 7215WAT      O21886   5.864   3.626   4.826
 7215WAT     H121887   5.862   3.566   4.746
 7215WAT     H221888   5.878   3.720   4.796
 7216WAT      O21889   3.317   5.020   1.896
 7216WAT     H121890   3.364   5.007   1.809
 7216WAT     H221891   3.364   5.090   1.950
 7217WAT      O21892   8.997   2.986   7.522
 7217WAT     H121893   9.082   3.018   7.562
 7217WAT     H221894   9.012   2.962   7.426
 7218WAT      O21895   8.960   1.679   3.613
 7218WAT     H121896   8.868   1.719   3.611
 7218WAT     H221897   8.996   1.675   3.520
 7219WAT      O21898   5.118   5.770   0.904
 7219WAT     H121899   5.146   5.690   0.957
 7219WAT     H221900   5.200   5.814   0.866
 7220WAT      O21901   7.227   6.776   4.755
 7220WAT     H121902   7.315   6.823   4.749
 7220WAT     H221903   7.212   6.721   4.672
 7221WAT      O21904   7.348   5.243   8.416
 7221WAT     H121905   7.387   5.190   8.340
 7221WAT     H221906   7.419   5.299   8.458
 7222WAT      O21907   2.237   1.791   0.353
 7222WAT     H121908   2.241   1.726   0.428
 7222WAT     H221909   2.177   1.867   0.377
 7223WAT      O21910   2.745   1.377   6.825
 7223WAT     H121911   2.697   1.358   6.911
 7223WAT     H221912   2.718   1.466   6.790
 7224WAT      O21913   7.708   4.146   3.224
 7224WAT     H121914   7.693   4.131   3.126
 7224WAT     H221915   7.624   4.182   3.265
 7225WAT      O21916   9.722   6.064   2.550
 7225WAT     H121917   9.770   6.152   2.560
 7225WAT     H221918   9.744   6.025   2.461
 7226WAT      O21919   0.467   3.604   6.725
 7226WAT     H121920   0.397   3.647   6.782
 7226WAT     H221921   0.540   3.669   6.707
 7227WAT      O21922   3.313   3.662   9.583
 7227WAT     H121923   3.289   3.567   9.567
 7227WAT     H221924   3.276   3.719   9.509
 7228WAT      O21925   5.713   5.407   6.394
 7228WAT     H121926   5.666   5.325   6.361
 7228WAT     H221927   5.712   5.477   6.322
 7229WAT      O21928   3.228   3.810   8.218
 7229WAT     H121929   3.312   3.757   8.211
 7229WAT     H221930   3.245   3.892   8.272
 7230WAT      O21931   3.370   9.505   3.459
 7230WAT     H121932   3.427   9.481   3.380
 7230WAT     H221933   3.291   9.557   3.427
 7231WAT      O21934   8.599   2.408   9.084
 7231WAT     H121935   8.671   2.438   9.146
 7231WAT     H221936   8.521   2.374   9.137
 7232WAT      O21937   1.112   7.098   5.607
 7232WAT     H121938   1.086   7.138   5.695
 7232WAT     H221939   1.050   7.022   5.586
 7233WAT      O21940   9.631   3.827   4.875
 7233WAT     H121941   9.716   3.779   4.898
 7233WAT     H221942   9.632   3.853   4.778
 7234WAT      O21943   6.805   3.093   5.938
 7234WAT     H121944   6.882   3.060   5.883
 7234WAT     H221945   6.730   3.027   5.932
 7235WAT      O21946   8.695   7.024   4.823
 7235WAT     H121947   8.725   7.097   4.762
 7235WAT     H221948   8.601   6.998   4.801
 7236WAT      O21949   2.964   7.490   6.728
 7236WAT     H121950   3.032   7.453   6.664
 7236WAT     H221951   2.977   7.588   6.737
 7237WAT      O21952   6.439   1.340   7.280
 7237WAT     H121953   6.397   1.396   7.209
 7237WAT     H221954   6.509   1.281   7.238
 7238WAT      O21955   0.944   1.281   5.902
 7238WAT     H121956   0.912   1.372   5.875
 7238WAT     H221957   0.930   1.269   6.000
 7239WAT      O21958   4.066   7.238   6.995
 7239WAT     H121959   3.990   7.301   6.983
 7239WAT     H221960   4.092   7.233   7.091
 7240WAT      O21961   2.686   2.076   5.148
 7240WAT     H121962   2.660   2.155   5.204
 7240WAT     H221963   2.707   2.107   5.055
 7241WAT      O21964   1.366   4.609   2.979
 7241WAT     H121965   1.462   4.628   2.958
 7241WAT     H221966   1.356   4.595   3.078
 7242WAT      O21967   4.367   4.371   0.552
 7242WAT     H121968   4.440   4.306   0.534
 7242WAT     H221969   4.279   4.332   0.523
 7243WAT      O21970   6.238   2.905   1.758
 7243WAT     H121971   6.184   2.926   1.677
 7243WAT     H221972   6.334   2.924   1.741
 7244WAT      O21973   1.823   1.731   3.091
 7244WAT     H121974   1.861   1.645   3.124
 7244WAT     H221975   1.746   1.713   3.031
 7245WAT      O21976   8.103   6.018   3.926
 7245WAT     H121977   8.178   5.977   3.979
 7245WAT     H221978   8.042   6.067   3.988
 7246WAT      O21979   8.134   5.239   4.852
 7246WAT     H121980   8.076   5.302   4.801
 7246WAT     H221981   8.137   5.266   4.948
 7247WAT      O21982   3.112   9.364   7.048
 7247WAT     H121983   3.057   9.439   7.012
 7247WAT     H221984   3.100   9.358   7.148
 7248WAT      O21985   2.918   0.946   8.180
 7248WAT     H121986   2.942   0.962   8.276
 7248WAT     H221987   2.993   0.977   8.121
 7249WAT      O21988   8.174   2.170   0.748
 7249WAT     H121989   8.259   2.125   0.774
 7249WAT     H221990   8.121   2.190   0.831
 7250WAT      O21991   4.259   1.360   8.382
 7250WAT     H121992   4.303   1.342   8.294
 7250WAT     H221993   4.226   1.454   8.385
 7251WAT      O21994   5.002   4.318   1.321
 7251WAT     H121995   4.946   4.376   1.262
 7251WAT     H221996   5.088   4.365   1.341
 7252WAT      O21997   4.179   1.885   8.741
 7252WAT     H121998   4.265   1.835   8.727
 7252WAT     H221999   4.120   1.833   8.803
 7253WAT      O22000   0.125   1.017   7.080
 7253WAT     H122001   0.212   1.016   7.131
 7253WAT     H222002   0.132   0.957   7.001
 7254WAT      O22003   8.142   7.563   3.830
 7254WAT     H122004   8.221   7.528   3.780
 7254WAT     H222005   8.150   7.540   3.927
 7255WAT      O22006   6.355   1.592   6.025
 7255WAT     H122007   6.440   1.576   5.974
 7255WAT     H222008   6.344   1.520   6.093
 7256WAT      O22009   9.411   9.601   3.049
 7256WAT     H122010   9.363   9.587   3.135
 7256WAT     H222011   9.433   9.513   3.007
 7257WAT      O22012   6.152   8.465   6.608
 7257WAT     H122013   6.157   8.501   6.701
 7257WAT     H222014   6.226   8.400   6.593
 7258WAT      O22015   6.374   2.021   5.081
 7258WAT     H122016   6.361   2.105   5.134
 7258WAT     H222017   6.433   1.959   5.132
 7259WAT      O22018   6.042   2.173   1.589
 7259WAT     H122019   6.091   2.212   1.512
 7259WAT     H222020   6.027   2.244   1.659
 7260WAT      O22021   5.888   8.983   9.752
 7260WAT     H122022   5.818   8.943   9.694
 7260WAT     H222023   5.939   8.911   9.798
 7261WAT      O22024   8.151   3.243   6.653
 7261WAT     H122025   8.172   3.233   6.556
 7261WAT     H222026   8.210   3.313   6.694
 7262WAT      O22027   6.308   4.001   2.885
 7262WAT     H122028   6.245   4.060   2.935
 7262WAT     H222029   6.366   4.056   2.825
 7263WAT      O22030   7.245   6.047   7.759
 7263WAT     H122031   7.305   5.974   7.724
 7263WAT     H222032   7.297   6.103   7.824
 7264WAT      O22033   5.904   1.043   0.527
 7264WAT     H122034   5.916   0.954   0.484
 7264WAT     H222035   5.855   1.104   0.465
 7265WAT      O22036   0.002   0.115   1.431
 7265WAT     H122037  -0.007   0.058   1.512
 7265WAT     H222038   0.046   0.062   1.358
 7266WAT      O22039   9.744   8.222   5.784
 7266WAT     H122040   9.809   8.179   5.847
 7266WAT     H222041   9.746   8.321   5.795
 7267WAT      O22042   9.329   9.477   6.949
 7267WAT     H122043   9.409   9.435   6.993
 7267WAT     H222044   9.312   9.432   6.862
 7268WAT      O22045   4.193   7.769   2.075
 7268WAT     H122046   4.187   7.773   2.175
 7268WAT     H222047   4.253   7.842   2.042
 7269WAT      O22048   8.513   1.512   0.011
 7269WAT     H122049   8.506   1.422  -0.033
 7269WAT     H222050   8.564   1.575  -0.049
 7270WAT      O22051   8.079   6.681   6.874
 7270WAT     H122052   8.006   6.627   6.832
 7270WAT     H222053   8.039   6.743   6.942
 7271WAT      O22054   8.828   4.471   4.137
 7271WAT     H122055   8.826   4.545   4.070
 7271WAT     H222056   8.791   4.503   4.224
 7272WAT      O22057   0.968   8.728   3.489
 7272WAT     H122058   1.008   8.819   3.504
 7272WAT     H222059   0.882   8.737   3.440
 7273WAT      O22060   0.765   4.217   8.528
 7273WAT     H122061   0.696   4.271   8.577
 7273WAT     H222062   0.783   4.132   8.579
 7274WAT      O22063   1.751   2.651   2.179
 7274WAT     H122064   1.733   2.559   2.146
 7274WAT     H222065   1.714   2.718   2.114
 7275WAT      O22066   6.391   5.232   0.856
 7275WAT     H122067   6.443   5.200   0.934
 7275WAT     H222068   6.295   5.208   0.868
 7276WAT      O22069   1.735   6.799   0.670
 7276WAT     H122070   1.752   6.898   0.677
 7276WAT     H222071   1.642   6.779   0.702
 7277WAT      O22072   0.539   0.616   1.045
 7277WAT     H122073   0.570   0.564   1.125
 7277WAT     H222074   0.442   0.597   1.027
 7278WAT      O22075   5.750   1.977   4.517
 7278WAT     H122076   5.705   2.060   4.484
 7278WAT     H222077   5.849   1.988   4.511
 7279WAT      O22078   5.228   5.541   9.800
 7279WAT     H122079   5.157   5.472   9.818
 7279WAT     H222080   5.304   5.498   9.751
 7280WAT      O22081   1.137   4.112   0.893
 7280WAT     H122082   1.107   4.169   0.816
 7280WAT     H222083   1.056   4.079   0.943
 7281WAT      O22084   0.281   3.160   1.875
 7281WAT     H122085   0.367   3.133   1.832
 7281WAT     H222086   0.216   3.085   1.868
 7282WAT      O22087   6.267   1.726   7.040
 7282WAT     H122088   6.206   1.705   6.964
 7282WAT     H222089   6.281   1.825   7.046
 7283WAT      O22090   0.130   8.601   0.911
 7283WAT     H122091   0.130   8.601   0.811
 7283WAT     H222092   0.221   8.627   0.944
 7284WAT      O22093   8.237   3.193   2.593
 7284WAT     H122094   8.158   3.176   2.534
 7284WAT     H222095   8.213   3.171   2.688
 7285WAT      O22096   7.526   2.416   0.510
 7285WAT     H122097   7.524   2.515   0.520
 7285WAT     H222098   7.454   2.375   0.565
 7286WAT      O22099   8.301   7.309   5.020
 7286WAT     H122100   8.213   7.340   5.054
 7286WAT     H222101   8.308   7.210   5.032
 7287WAT      O22102   0.018   3.171   5.156
 7287WAT     H122103  -0.021   3.263   5.152
 7287WAT     H222104   0.065   3.150   5.070
 7288WAT      O22105   4.484   9.755   0.920
 7288WAT     H122106   4.418   9.680   0.926
 7288WAT     H222107   4.457   9.827   0.984
 7289WAT      O22108   3.811   7.346   7.088
 7289WAT     H122109   3.778   7.267   7.037
 7289WAT     H222110   3.752   7.363   7.167
 7290WAT      O22111   8.395   4.832   1.747
 7290WAT     H122112   8.408   4.919   1.795
 7290WAT     H222113   8.305   4.831   1.703
 7291WAT      O22114   8.968   2.541   8.940
 7291WAT     H122115   8.931   2.478   8.871
 7291WAT     H222116   9.048   2.501   8.982
 7292WAT      O22117   7.932   5.797   8.697
 7292WAT     H122118   7.918   5.873   8.633
 7292WAT     H222119   8.021   5.755   8.680
 7293WAT      O22120   8.479   6.681   7.529
 7293WAT     H122121   8.382   6.682   7.550
 7293WAT     H222122   8.524   6.608   7.581
 7294WAT      O22123   0.421   2.450   7.342
 7294WAT     H122124   0.347   2.453   7.409
 7294WAT     H222125   0.431   2.357   7.306
 7295WAT      O22126   6.241   3.558   1.375
 7295WAT     H122127   6.169   3.505   1.419
 7295WAT     H222128   6.285   3.617   1.442
 7296WAT      O22129   0.655   7.710   1.053
 7296WAT     H122130   0.612   7.730   0.965
 7296WAT     H222131   0.738   7.764   1.063
 7297WAT      O22132   0.194   8.879   9.481
 7297WAT     H122133   0.215   8.960   9.535
 7297WAT     H222134   0.104   8.844   9.506
 7298WAT      O22135   8.112   1.260   1.382
 7298WAT     H122136   8.134   1.269   1.480
 7298WAT     H222137   8.067   1.344   1.352
 7299WAT      O22138   5.877   5.377   6.833
 7299WAT     H122139   5.837   5.378   6.924
 7299WAT     H222140   5.816   5.426   6.769
 7300WAT      O22141   2.415   9.096   5.485
 7300WAT     H122142   2.438   8.999   5.484
 7300WAT     H222143   2.320   9.108   5.456
 7301WAT      O22144   5.275   5.475   8.640
 7301WAT     H122145   5.223   5.450   8.558
 7301WAT     H222146   5.251   5.414   8.715
 7302WAT      O22147   4.917   4.791   4.983
 7302WAT     H122148   4.940   4.800   4.886
 7302WAT     H222149   4.983   4.843   5.038
 7303WAT      O22150   6.918   9.426   7.828
 7303WAT     H122151   6.980   9.495   7.867
 7303WAT     H222152   6.969   9.368   7.765
 7304WAT      O22153   0.873   0.484   1.156
 7304WAT     H122154   0.818   0.508   1.236
 7304WAT     H222155   0.838   0.399   1.117
 7305WAT      O22156   5.538   4.268   1.748
 7305WAT     H122157   5.475   4.191   1.736
 7305WAT     H222158   5.545   4.289   1.846
 7306WAT      O22159   0.405   7.582   5.576
 7306WAT     H122160   0.381   7.528   5.495
 7306WAT     H222161   0.326   7.586   5.637
 7307WAT      O22162   4.380   3.524   9.350
 7307WAT     H122163   4.356   3.429   9.332
 7307WAT     H222164   4.309   3.584   9.312
 7308WAT      O22165   9.072   4.078   6.123
 7308WAT     H122166   9.010   4.156   6.134
 7308WAT     H222167   9.129   4.069   6.205
 7309WAT      O22168   5.684   6.937   9.084
 7309WAT     H122169   5.662   7.019   9.031
 7309WAT     H222170   5.600   6.888   9.107
 7310WAT      O22171   8.423   8.478   6.441
 7310WAT     H122172   8.457   8.505   6.531
 7310WAT     H222173   8.420   8.378   6.434
 7311WAT      O22174   4.574   9.047   6.454
 7311WAT     H122175   4.487   8.999   6.444
 7311WAT     H222176   4.640   9.009   6.389
 7312WAT      O22177   4.794   7.052   5.451
 7312WAT     H122178   4.884   7.065   5.408
 7312WAT     H222179   4.745   7.138   5.452
 7313WAT      O22180   6.593   3.337   5.338
 7313WAT     H122181   6.526   3.399   5.379
 7313WAT     H222182   6.684   3.361   5.372
 7314WAT      O22183   3.880   2.314   0.733
 7314WAT     H122184   3.834   2.321   0.645
 7314WAT     H222185   3.837   2.242   0.788
 7315WAT      O22186   7.015   2.579   7.895
 7315WAT     H122187   6.952   2.527   7.953
 7315WAT     H222188   7.105   2.581   7.939
 7316WAT      O22189   2.507   1.230   7.889
 7316WAT     H122190   2.585   1.293   7.886
 7316WAT     H222191   2.514   1.165   7.813
 7317WAT      O22192   2.911   7.686   8.183
 7317WAT     H122193   2.872   7.663   8.272
 7317WAT     H222194   2.839   7.686   8.114
 7318WAT      O22195   6.181   5.105   9.783
 7318WAT     H122196   6.219   5.118   9.691
 7318WAT     H222197   6.256   5.100   9.849
 7319WAT      O22198   1.324   6.520   2.364
 7319WAT     H122199   1.343   6.476   2.277
 7319WAT     H222200   1.351   6.460   2.439
 7320WAT      O22201   0.345   1.262   5.603
 7320WAT     H122202   0.266   1.201   5.602
 7320WAT     H222203   0.387   1.262   5.693
 7321WAT      O22204   1.586   1.378   3.447
 7321WAT     H122205   1.680   1.411   3.445
 7321WAT     H222206   1.569   1.331   3.533
 7322WAT      O22207   2.316   0.010   6.718
 7322WAT     H122208   2.369   0.086   6.755
 7322WAT     H222209   2.221   0.038   6.706
 7323WAT      O22210   4.397   5.789   2.980
 7323WAT     H122211   4.361   5.879   3.004
 7323WAT     H222212   4.395   5.730   3.061
 7324WAT      O22213   7.877   6.809   3.484
 7324WAT     H122214   7.902   6.736   3.547
 7324WAT     H222215   7.937   6.807   3.404
 7325WAT      O22216   5.087   7.394   0.748
 7325WAT     H122217   5.101   7.489   0.722
 7325WAT     H222218   5.009   7.388   0.811
 7326WAT      O22219   1.649   6.630   1.433
 7326WAT     H122220   1.672   6.704   1.497
 7326WAT     H222221   1.550   6.627   1.421
 7327WAT      O22222   3.669   1.005   9.532
 7327WAT     H122223   3.666   0.987   9.434
 7327WAT     H222224   3.576   1.006   9.569
 7328WAT      O22225   8.185   9.020   1.598
 7328WAT     H122226   8.191   8.931   1.642
 7328WAT     H222227   8.205   9.092   1.665
 7329WAT      O22228   4.399   0.003   8.606
 7329WAT     H122229   4.365   0.079   8.551
 7329WAT     H222230   4.333  -0.071   8.606
 7330WAT      O22231   2.365   8.927   9.456
 7330WAT     H122232   2.423   8.912   9.375
 7330WAT     H222233   2.417   8.905   9.538
 7331WAT      O22234   8.024   7.272   9.088
 7331WAT     H122235   8.051   7.288   9.183
 7331WAT     H222236   8.078   7.197   9.051
 7332WAT      O22237   0.109   1.646   9.242
 7332WAT     H122238   0.109   1.578   9.315
 7332WAT     H222239   0.200   1.688   9.235
 7333WAT      O22240   2.798   0.487   5.668
 7333WAT     H122241   2.845   0.573   5.689
 7333WAT     H222242   2.814   0.421   5.742
 7334WAT      O22243   4.099   5.783   8.081
 7334WAT     H122244   4.139   5.868   8.113
 7334WAT     H222245   4.164   5.708   8.096
 7335WAT      O22246   4.032   6.251   2.315
 7335WAT     H122247   4.025   6.156   2.346
 7335WAT     H222248   3.940   6.289   2.303
 7336WAT      O22249   8.784   8.014   5.851
 7336WAT     H122250   8.767   7.990   5.756
 7336WAT     H222251   8.818   7.933   5.900
 7337WAT      O22252   7.769   5.096   2.230
 7337WAT     H122253   7.766   5.004   2.268
 7337WAT     H222254   7.865   5.122   2.214
 7338WAT      O22255   8.838   6.820   7.084
 7338WAT     H122256   8.868   6.796   7.176
 7338WAT     H222257   8.885   6.763   7.017
 7339WAT      O22258   7.028   1.214   4.243
 7339WAT     H122259   6.957   1.156   4.281
 7339WAT     H222260   7.012   1.309   4.270
 7340WAT      O22261   6.117   3.598   2.386
 7340WAT     H122262   6.102   3.670   2.454
 7340WAT     H222263   6.037   3.592   2.327
 7341WAT      O22264   3.452   8.621   0.112
 7341WAT     H122265   3.363   8.656   0.083
 7341WAT     H222266   3.445   8.584   0.204
 7342WAT      O22267   5.122   7.616   2.638
 7342WAT     H122268   5.168   7.626   2.727
 7342WAT     H222269   5.058   7.692   2.625
 7343WAT      O22270   4.907   8.528   6.857
 7343WAT     H122271   4.879   8.478   6.939
 7343WAT     H222272   4.950   8.465   6.792
 7344WAT      O22273   9.835   7.504   0.482
 7344WAT     H122274   9.810   7.567   0.555
 7344WAT     H222275   9.753   7.480   0.429
 7345WAT      O22276   8.862   7.061   9.704
 7345WAT     H122277   8.827   7.088   9.793
 7345WAT     H222278   8.786   7.048   9.641
 7346WAT      O22279   7.047   5.853   8.265
 7346WAT     H122280   7.109   5.793   8.315
 7346WAT     H222281   7.066   5.948   8.289
 7347WAT      O22282   1.356   8.797   0.398
 7347WAT     H122283   1.400   8.714   0.364
 7347WAT     H222284   1.359   8.798   0.498
 7348WAT      O22285   2.949   5.116   2.650
 7348WAT     H122286   3.007   5.182   2.698
 7348WAT     H222287   2.989   5.024   2.659
 7349WAT      O22288   8.598   2.086   1.374
 7349WAT     H122289   8.668   2.032   1.327
 7349WAT     H222290   8.639   2.169   1.411
 7350WAT      O22291   7.314   1.227   6.828
 7350WAT     H122292   7.291   1.145   6.775
 7350WAT     H222293   7.242   1.242   6.897
 7351WAT      O22294   4.482   6.101   6.549
 7351WAT     H122295   4.421   6.093   6.470
 7351WAT     H222296   4.573   6.069   6.523
 7352WAT      O22297   6.669   5.709   2.919
 7352WAT     H122298   6.735   5.707   2.844
 7352WAT     H222299   6.578   5.688   2.884
 7353WAT      O22300   8.962   7.076   6.777
 7353WAT     H122301   9.055   7.084   6.741
 7353WAT     H222302   8.952   7.134   6.858
 7354WAT      O22303   5.704   6.619   0.983
 7354WAT     H122304   5.682   6.555   1.056
 7354WAT     H222305   5.743   6.702   1.022
 7355WAT      O22306   9.470   1.015   0.407
 7355WAT     H122307   9.378   1.055   0.411
 7355WAT     H222308   9.473   0.947   0.333
 7356WAT      O22309   8.835   1.964   9.348
 7356WAT     H122310   8.921   1.914   9.337
 7356WAT     H222311   8.805   1.958   9.443
 7357WAT      O22312   0.872   3.677   1.292
 7357WAT     H122313   0.856   3.596   1.349
 7357WAT     H222314   0.894   3.755   1.351
 7358WAT      O22315   0.747   4.160   3.456
 7358WAT     H122316   0.792   4.168   3.367
 7358WAT     H222317   0.775   4.075   3.501
 7359WAT      O22318   0.325   8.978   4.009
 7359WAT     H122319   0.277   8.913   4.067
 7359WAT     H222320   0.293   8.968   3.915
 7360WAT      O22321   1.064   0.705   1.383
 7360WAT     H122322   1.083   0.700   1.285
 7360WAT     H222323   1.030   0.616   1.415
 7361WAT      O22324   4.235   8.594   1.440
 7361WAT     H122325   4.237   8.511   1.386
 7361WAT     H222326   4.311   8.654   1.413
 7362WAT      O22327   1.752   5.027   5.570
 7362WAT     H122328   1.653   5.020   5.566
 7362WAT     H222329   1.779   5.121   5.547
 7363WAT      O22330   2.396   9.454   2.049
 7363WAT     H122331   2.356   9.471   2.139
 7363WAT     H222332   2.371   9.528   1.987
 7364WAT      O22333   5.326   1.316   2.942
 7364WAT     H122334   5.256   1.356   2.884
 7364WAT     H222335   5.357   1.229   2.903
 7365WAT      O22336   5.558   8.775   9.355
 7365WAT     H122337   5.530   8.739   9.444
 7365WAT     H222338   5.643   8.731   9.326
 7366WAT      O22339   1.635   2.087   1.419
 7366WAT     H122340   1.611   1.995   1.386
 7366WAT     H222341   1.564   2.119   1.481
 7367WAT      O22342   3.332   6.716   7.870
 7367WAT     H122343   3.385   6.771   7.806
 7367WAT     H222344   3.278   6.648   7.820
 7368WAT      O22345   3.691   9.698   5.305
 7368WAT     H122346   3.774   9.744   5.335
 7368WAT     H222347   3.715   9.626   5.239
 7369WAT      O22348   4.117   4.775   6.819
 7369WAT     H122349   4.024   4.742   6.800
 7369WAT     H222350   4.139   4.849   6.755
 7370WAT      O22351   7.919   1.356   5.997
 7370WAT     H122352   7.968   1.279   5.956
 7370WAT     H222353   7.908   1.428   5.928
 7371WAT      O22354   2.191   8.579   1.614
 7371WAT     H122355   2.231   8.669   1.632
 7371WAT     H222356   2.100   8.590   1.574
 7372WAT      O22357   8.915   5.781   6.386
 7372WAT     H122358   9.000   5.810   6.342
 7372WAT     H222359   8.931   5.770   6.485
 7373WAT      O22360   4.624   5.084   9.104
 7373WAT     H122361   4.576   5.031   9.034
 7373WAT     H222362   4.664   5.022   9.171
 7374WAT      O22363   5.648   2.129   4.886
 7374WAT     H122364   5.653   2.038   4.928
 7374WAT     H222365   5.737   2.154   4.849
 7375WAT      O22366   8.140   2.939   7.170
 7375WAT     H122367   8.193   2.898   7.095
 7375WAT     H222368   8.203   2.972   7.240
 7376WAT      O22369   1.530   7.170   2.979
 7376WAT     H122370   1.595   7.095   2.987
 7376WAT     H222371   1.507   7.184   2.882
 7377WAT      O22372   4.220   1.550   6.131
 7377WAT     H122373   4.149   1.620   6.121
 7377WAT     H222374   4.210   1.505   6.220
 7378WAT      O22375   2.997   9.655   1.914
 7378WAT     H122376   3.088   9.617   1.932
 7378WAT     H222377   2.959   9.690   2.000
 7379WAT      O22378   4.599   5.506   6.990
 7379WAT     H122379   4.558   5.551   6.911
 7379WAT     H222380   4.625   5.412   6.966
 7380WAT      O22381   3.966   3.423   2.595
 7380WAT     H122382   3.970   3.448   2.499
 7380WAT     H222383   3.870   3.411   2.622
 7381WAT      O22384   9.580   7.590   3.915
 7381WAT     H122385   9.653   7.641   3.870
 7381WAT     H222386   9.544   7.644   3.991
 7382WAT      O22387   6.189   0.761   5.210
 7382WAT     H122388   6.219   0.666   5.211
 7382WAT     H222389   6.239   0.811   5.139
 7383WAT      O22390   8.595   0.176   6.597
 7383WAT     H122391   8.519   0.199   6.536
 7383WAT     H222392   8.567   0.101   6.657
 7384WAT      O22393   6.273   2.167   8.948
 7384WAT     H122394   6.328   2.197   9.026
 7384WAT     H222395   6.283   2.068   8.937
 7385WAT      O22396   4.636   9.533   1.741
 7385WAT     H122397   4.655   9.574   1.830
 7385WAT     H222398   4.565   9.585   1.694
 7386WAT      O22399   5.708   2.240   4.465
 7386WAT     H122400   5.652   2.281   4.538
 7386WAT     H222401   5.673   2.270   4.376
 7387WAT      O22402   0.408   4.015   9.729
 7387WAT     H122403   0.319   4.057   9.711
 7387WAT     H222404   0.443   3.975   9.644
 7388WAT      O22405   3.109   4.567   5.307
 7388WAT     H122406   3.177   4.640   5.303
 7388WAT     H222407   3.022   4.605   5.337
 7389WAT      O22408   7.739   2.699   7.751
 7389WAT     H122409   7.746   2.623   7.816
 7389WAT     H222410   7.691   2.669   7.669
 7390WAT      O22411   5.527   6.115   3.526
 7390WAT     H122412   5.600   6.067   3.574
 7390WAT     H222413   5.477   6.172   3.591
 7391WAT      O22414   2.670   4.941   9.793
 7391WAT     H122415   2.667   5.002   9.714
 7391WAT     H222416   2.746   4.877   9.783
 7392WAT      O22417   3.427   6.504   6.418
 7392WAT     H122418   3.368   6.579   6.447
 7392WAT     H222419   3.388   6.461   6.337
 7393WAT      O22420   0.332   5.621   9.747
 7393WAT     H122421   0.419   5.601   9.793
 7393WAT     H222422   0.319   5.720   9.743
 7394WAT      O22423   3.521   4.235   5.129
 7394WAT     H122424   3.494   4.328   5.152
 7394WAT     H222425   3.609   4.214   5.172
 7395WAT      O22426   9.838   8.330   8.240
 7395WAT     H122427   9.748   8.372   8.238
 7395WAT     H222428   9.855   8.291   8.331
 7396WAT      O22429   3.519   5.970   4.871
 7396WAT     H122430   3.561   6.013   4.791
 7396WAT     H222431   3.444   5.910   4.842
 7397WAT      O22432   7.736   4.148   1.078
 7397WAT     H122433   7.799   4.138   1.002
 7397WAT     H222434   7.658   4.086   1.066
 7398WAT      O22435   1.337   9.152   7.419
 7398WAT     H122436   1.239   9.170   7.416
 7398WAT     H222437   1.375   9.189   7.504
 7399WAT      O22438   2.087   1.520   1.424
 7399WAT     H122439   2.143   1.535   1.505
 7399WAT     H222440   2.007   1.465   1.448
 7400WAT      O22441   6.926   5.646   3.038
 7400WAT     H122442   6.967   5.591   2.966
 7400WAT     H222443   6.860   5.710   2.998
 7401WAT      O22444   6.019   0.085   0.271
 7401WAT     H122445   6.034   0.146   0.349
 7401WAT     H222446   6.006   0.139   0.188
 7402WAT      O22447   3.951   4.118   5.764
 7402WAT     H122448   4.009   4.164   5.831
 7402WAT     H222449   3.858   4.110   5.800
 7403WAT      O22450   5.666   7.349   2.404
 7403WAT     H122451   5.638   7.444   2.391
 7403WAT     H222452   5.603   7.288   2.357
 7404WAT      O22453   5.255   2.966   5.915
 7404WAT     H122454   5.202   2.884   5.935
 7404WAT     H222455   5.352   2.948   5.929
 7405WAT      O22456   6.067   8.639   2.352
 7405WAT     H122457   6.012   8.659   2.271
 7405WAT     H222458   6.155   8.686   2.344
 7406WAT      O22459   1.111   4.987   1.790
 7406WAT     H122460   1.045   4.938   1.733
 7406WAT     H222461   1.188   4.926   1.812
 7407WAT      O22462   8.173   9.670   4.991
 7407WAT     H122463   8.266   9.706   4.988
 7407WAT     H222464   8.135   9.683   5.083
 7408WAT      O22465   2.186   0.416   5.050
 7408WAT     H122466   2.114   0.389   5.114
 7408WAT     H222467   2.271   0.369   5.073
 7409WAT      O22468   0.773   1.016   0.136
 7409WAT     H122469   0.857   1.041   0.185
 7409WAT     H222470   0.794   1.002   0.040
 7410WAT      O22471   2.887   0.444   1.603
 7410WAT     H122472   2.818   0.440   1.531
 7410WAT     H222473   2.978   0.433   1.562
 7411WAT      O22474   8.299   5.056   1.912
 7411WAT     H122475   8.261   5.014   1.995
 7411WAT     H222476   8.343   5.142   1.936
 7412WAT      O22477   8.424   9.252   8.923
 7412WAT     H122478   8.339   9.203   8.904
 7412WAT     H222479   8.438   9.323   8.855
 7413WAT      O22480   0.249   6.462   9.573
 7413WAT     H122481   0.265   6.561   9.564
 7413WAT     H222482   0.273   6.433   9.666
 7414WAT      O22483   7.894   6.672   2.390
 7414WAT     H122484   7.953   6.743   2.351
 7414WAT     H222485   7.949   6.591   2.411
 7415WAT      O22486   9.155   6.415   4.388
 7415WAT     H122487   9.069   6.387   4.430
 7415WAT     H222488   9.209   6.468   4.453
 7416WAT      O22489   4.476   5.128   1.416
 7416WAT     H122490   4.553   5.065   1.412
 7416WAT     H222491   4.482   5.193   1.340
 7417WAT      O22492   4.782   3.241   5.436
 7417WAT     H122493   4.730   3.198   5.363
 7417WAT     H222494   4.880   3.226   5.421
 7418WAT      O22495   1.181   2.782   6.000
 7418WAT     H122496   1.189   2.686   6.028
 7418WAT     H222497   1.135   2.787   5.912
 7419WAT      O22498   0.880   4.484   5.816
 7419WAT     H122499   0.811   4.425   5.774
 7419WAT     H222500   0.895   4.564   5.757
 7420WAT      O22501   0.662   7.673   4.247
 7420WAT     H122502   0.684   7.763   4.211
 7420WAT     H222503   0.587   7.633   4.194
 7421WAT      O22504   6.124   9.098   9.251
 7421WAT     H122505   6.124   9.190   9.291
 7421WAT     H222506   6.161   9.033   9.317
 7422WAT      O22507   5.458   5.140   4.398
 7422WAT     H122508   5.545   5.148   4.445
 7422WAT     H222509   5.383   5.150   4.464
 7423WAT      O22510   3.433   7.097   2.616
 7423WAT     H122511   3.380   7.169   2.659
 7423WAT     H222512   3.404   7.008   2.650
 7424WAT      O22513   6.409   6.093   3.108
 7424WAT     H122514   6.473   6.089   3.032
 7424WAT     H222515   6.392   6.001   3.142
 7425WAT      O22516   9.040   2.492   7.235
 7425WAT     H122517   9.007   2.461   7.146
 7425WAT     H222518   9.068   2.588   7.228
 7426WAT      O22519   0.053   9.008   1.911
 7426WAT     H122520   0.134   8.988   1.967
 7426WAT     H222521   0.004   9.086   1.950
 7427WAT      O22522   4.075   9.464   0.382
 7427WAT     H122523   4.060   9.475   0.480
 7427WAT     H222524   4.086   9.367   0.361
 7428WAT      O22525   2.305   6.419   3.634
 7428WAT     H122526   2.225   6.371   3.597
 7428WAT     H222527   2.278   6.471   3.715
 7429WAT      O22528   4.947   1.270   4.674
 7429WAT     H122529   4.872   1.277   4.608
 7429WAT     H222530   4.909   1.275   4.767
 7430WAT      O22531   1.758   4.623   5.464
 7430WAT     H122532   1.791   4.664   5.549
 7430WAT     H222533   1.696   4.547   5.485
 7431WAT      O22534   8.217   0.025   3.896
 7431WAT     H122535   8.216   0.123   3.878
 7431WAT     H222536   8.270  -0.022   3.825
 7432WAT      O22537   7.142   0.249   1.028
 7432WAT     H122538   7.147   0.196   1.112
 7432WAT     H222539   7.058   0.304   1.028
 7433WAT      O22540   0.131   8.094   7.783
 7433WAT     H122541   0.079   8.040   7.850
 7433WAT     H222542   0.134   8.189   7.812
 7434WAT      O22543   2.617   8.750   7.467
 7434WAT     H122544   2.596   8.846   7.447
 7434WAT     H222545   2.704   8.726   7.423
 7435WAT      O22546   1.613   1.147   4.716
 7435WAT     H122547   1.661   1.135   4.630
 7435WAT     H222548   1.635   1.071   4.778
 7436WAT      O22549   1.377   1.220   2.510
 7436WAT     H122550   1.401   1.129   2.477
 7436WAT     H222551   1.299   1.214   2.572
 7437WAT      O22552   6.433   9.784   7.411
 7437WAT     H122553   6.397   9.732   7.488
 7437WAT     H222554   6.366   9.786   7.337
 7438WAT      O22555   6.931   1.634   8.276
 7438WAT     H122556   6.917   1.582   8.360
 7438WAT     H222557   6.948   1.730   8.299
 7439WAT      O22558   7.626   2.106   9.739
 7439WAT     H122559   7.659   2.050   9.814
 7439WAT     H222560   7.575   2.049   9.674
 7440WAT      O22561   8.637   8.629   5.681
 7440WAT     H122562   8.547   8.591   5.658
 7440WAT     H222563   8.687   8.563   5.736
 7441WAT      O22564   7.447   7.934   0.078
 7441WAT     H122565   7.511   7.870   0.034
 7441WAT     H222566   7.446   8.020   0.026
 7442WAT      O22567   9.493   7.278   9.336
 7442WAT     H122568   9.591   7.288   9.352
 7442WAT     H222569   9.442   7.321   9.411
 7443WAT      O22570   6.729   2.789   7.119
 7443WAT     H122571   6.716   2.691   7.137
 7443WAT     H222572   6.823   2.815   7.141
 7444WAT      O22573   0.154   0.561   7.330
 7444WAT     H122574   0.225   0.632   7.330
 7444WAT     H222575   0.185   0.483   7.276
 7445WAT      O22576   3.465   9.518   0.054
 7445WAT     H122577   3.446   9.505   0.152
 7445WAT     H222578   3.461   9.429   0.008
 7446WAT      O22579   7.107   3.492   6.102
 7446WAT     H122580   7.118   3.551   6.021
 7446WAT     H222581   7.130   3.398   6.078
 7447WAT      O22582   1.580   2.066   3.228
 7447WAT     H122583   1.570   1.969   3.250
 7447WAT     H222584   1.534   2.086   3.142
 7448WAT      O22585   1.858   7.729   7.153
 7448WAT     H122586   1.883   7.738   7.057
 7448WAT     H222587   1.919   7.663   7.198
 7449WAT      O22588   9.196   3.937   9.296
 7449WAT     H122589   9.283   3.964   9.338
 7449WAT     H222590   9.122   3.947   9.362
 7450WAT      O22591   1.634   9.738   3.848
 7450WAT     H122592   1.576   9.815   3.874
 7450WAT     H222593   1.726   9.752   3.885
 7451WAT      O22594   3.181   2.297   2.368
 7451WAT     H122595   3.082   2.309   2.373
 7451WAT     H222596   3.209   2.293   2.272
 7452WAT      O22597   4.757   0.612   5.021
 7452WAT     H122598   4.832   0.549   5.005
 7452WAT     H222599   4.674   0.577   4.979
 7453WAT      O22600   3.667   6.367   9.213
 7453WAT     H122601   3.746   6.326   9.168
 7453WAT     H222602   3.616   6.296   9.261
 7454WAT      O22603   0.724   1.754   0.124
 7454WAT     H122604   0.794   1.819   0.153
 7454WAT     H222605   0.727   1.743   0.025
 7455WAT      O22606   8.795   2.090   2.531
 7455WAT     H122607   8.862   2.079   2.605
 7455WAT     H222608   8.740   2.006   2.523
 7456WAT      O22609   1.945   9.714   5.503
 7456WAT     H122610   1.987   9.695   5.592
 7456WAT     H222611   1.901   9.631   5.468
 7457WAT      O22612   6.815   5.195   0.714
 7457WAT     H122613   6.823   5.161   0.621
 7457WAT     H222614   6.877   5.272   0.728
 7458WAT      O22615   7.584   4.005   7.084
 7458WAT     H122616   7.578   3.949   7.002
 7458WAT     H222617   7.612   3.948   7.162
 7459WAT      O22618   1.044   6.321   8.823
 7459WAT     H122619   1.119   6.260   8.795
 7459WAT     H222620   1.021   6.382   8.747
 7460WAT      O22621   1.196   3.138   1.375
 7460WAT     H122622   1.250   3.063   1.338
 7460WAT     H222623   1.146   3.107   1.456
 7461WAT      O22624   1.288   7.408   6.102
 7461WAT     H122625   1.269   7.327   6.157
 7461WAT     H222626   1.231   7.407   6.020
 7462WAT      O22627   3.163   8.074   5.951
 7462WAT     H122628   3.086   8.037   5.899
 7462WAT     H222629   3.134   8.096   6.044
 7463WAT      O22630   4.713   5.864   5.044
 7463WAT     H122631   4.639   5.881   4.980
 7463WAT     H222632   4.736   5.767   5.044
 7464WAT      O22633   9.821   9.135   8.250
 7464WAT     H122634   9.860   9.148   8.341
 7464WAT     H222635   9.832   9.218   8.196
 7465WAT      O22636   5.464   7.423   0.376
 7465WAT     H122637   5.451   7.410   0.278
 7465WAT     H222638   5.376   7.439   0.420
 7466WAT      O22639   6.658   7.610   7.473
 7466WAT     H122640   6.676   7.638   7.379
 7466WAT     H222641   6.668   7.688   7.534
 7467WAT      O22642   9.414   3.202   0.243
 7467WAT     H122643   9.444   3.135   0.311
 7467WAT     H222644   9.478   3.279   0.242
 7468WAT      O22645   9.198   3.493   7.799
 7468WAT     H122646   9.170   3.588   7.788
 7468WAT     H222647   9.117   3.434   7.799
 7469WAT      O22648   4.693   1.351   4.186
 7469WAT     H122649   4.601   1.380   4.213
 7469WAT     H222650   4.699   1.252   4.190
 7470WAT      O22651   4.158   5.807   9.110
 7470WAT     H122652   4.179   5.862   9.030
 7470WAT     H222653   4.203   5.718   9.103
 7471WAT      O22654   2.383   9.411   4.113
 7471WAT     H122655   2.445   9.369   4.180
 7471WAT     H222656   2.362   9.344   4.041
 7472WAT      O22657   0.475   2.139   1.139
 7472WAT     H122658   0.537   2.105   1.069
 7472WAT     H222659   0.496   2.235   1.158
 7473WAT      O22660   9.245   5.803   4.518
 7473WAT     H122661   9.171   5.738   4.500
 7473WAT     H222662   9.279   5.790   4.611
 7474WAT      O22663   5.944   7.908   1.761
 7474WAT     H122664   6.012   7.979   1.781
 7474WAT     H222665   5.992   7.822   1.743
 7475WAT      O22666   8.666   1.563   1.081
 7475WAT     H122667   8.723   1.482   1.071
 7475WAT     H222668   8.668   1.594   1.177
 7476WAT      O22669   5.197   6.599   9.093
 7476WAT     H122670   5.146   6.515   9.109
 7476WAT     H222671   5.229   6.600   8.998
 7477WAT      O22672   5.598   6.017   8.172
 7477WAT     H122673   5.640   5.958   8.241
 7477WAT     H222674   5.641   6.107   8.175
 7478WAT      O22675   9.226   8.095   3.651
 7478WAT     H122676   9.245   8.017   3.709
 7478WAT     H222677   9.268   8.177   3.690
 7479WAT      O22678   3.650   9.091   3.604
 7479WAT     H122679   3.569   9.129   3.650
 7479WAT     H222680   3.717   9.163   3.589
 7480WAT      O22681   8.097   5.766   8.458
 7480WAT     H122682   8.104   5.866   8.465
 7480WAT     H222683   8.188   5.726   8.464
 7481WAT      O22684   0.104   1.452   2.962
 7481WAT     H122685   0.159   1.525   2.923
 7481WAT     H222686   0.164   1.387   3.009
 7482WAT      O22687   3.521   2.121   2.395
 7482WAT     H122688   3.534   2.171   2.309
 7482WAT     H222689   3.424   2.113   2.415
 7483WAT      O22690   5.301   1.147   0.500
 7483WAT     H122691   5.376   1.120   0.439
 7483WAT     H222692   5.327   1.129   0.595
 7484WAT      O22693   8.812   9.353   5.146
 7484WAT     H122694   8.834   9.261   5.178
 7484WAT     H222695   8.795   9.413   5.225
 7485WAT      O22696   7.014   8.352   1.508
 7485WAT     H122697   6.944   8.354   1.579
 7485WAT     H222698   6.986   8.289   1.436
 7486WAT      O22699   3.837   8.096   3.842
 7486WAT     H122700   3.789   8.102   3.755
 7486WAT     H222701   3.805   8.169   3.903
 7487WAT      O22702   1.823   9.066   0.234
 7487WAT     H122703   1.789   9.000   0.300
 7487WAT     H222704   1.760   9.143   0.228
 7488WAT      O22705   0.122   7.022   8.622
 7488WAT     H122706   0.154   6.938   8.580
 7488WAT     H222707   0.174   7.100   8.587
 7489WAT      O22708   3.696   3.642   7.044
 7489WAT     H122709   3.667   3.601   6.957
 7489WAT     H222710   3.627   3.623   7.114
 7490WAT      O22711   6.072   3.288   2.131
 7490WAT     H122712   6.031   3.301   2.221
 7490WAT     H222713   6.040   3.359   2.069
 7491WAT      O22714   9.302   2.776   1.679
 7491WAT     H122715   9.290   2.676   1.684
 7491WAT     H222716   9.226   2.816   1.628
 7492WAT      O22717   7.651   6.169   0.819
 7492WAT     H122718   7.583   6.116   0.870
 7492WAT     H222719   7.652   6.263   0.851
 7493WAT      O22720   7.273   6.856   6.708
 7493WAT     H122721   7.342   6.837   6.779
 7493WAT     H222722   7.199   6.910   6.748
 7494WAT      O22723   7.210   1.159   2.917
 7494WAT     H122724   7.145   1.234   2.922
 7494WAT     H222725   7.243   1.137   3.008
 7495WAT      O22726   7.339   0.730   8.433
 7495WAT     H122727   7.350   0.820   8.475
 7495WAT     H222728   7.428   0.695   8.405
 7496WAT      O22729   6.844   4.589   6.785
 7496WAT     H122730   6.943   4.599   6.787
 7496WAT     H222731   6.813   4.546   6.870
 7497WAT      O22732   3.165   4.253   1.081
 7497WAT     H122733   3.140   4.278   0.987
 7497WAT     H222734   3.146   4.330   1.142
 7498WAT      O22735   0.381   2.874   0.833
 7498WAT     H122736   0.428   2.921   0.908
 7498WAT     H222737   0.346   2.942   0.768
 7499WAT      O22738   3.825   5.128   0.994
 7499WAT     H122739   3.804   5.030   0.990
 7499WAT     H222740   3.901   5.143   1.057
 7500WAT      O22741   4.583   1.823   1.912
 7500WAT     H122742   4.490   1.844   1.943
 7500WAT     H222743   4.647   1.891   1.948
 7501WAT      O22744   8.920   0.637   8.924
 7501WAT     H122745   8.895   0.710   8.988
 7501WAT     H222746   9.009   0.600   8.950
 7502WAT      O22747   8.340   0.878   4.786
 7502WAT     H122748   8.256   0.930   4.802
 7502WAT     H222749   8.403   0.932   4.730
 7503WAT      O22750   2.023   9.070   5.611
 7503WAT     H122751   1.987   8.977   5.618
 7503WAT     H222752   1.952   9.135   5.637
 7504WAT      O22753   2.820   6.532   3.901
 7504WAT     H122754   2.739   6.508   3.848
 7504WAT     H222755   2.873   6.450   3.921
 7505WAT      O22756   2.168   2.559   2.403
 7505WAT     H122757   2.266   2.567   2.423
 7505WAT     H222758   2.145   2.462   2.394
 7506WAT      O22759   1.974   0.797   6.352
 7506WAT     H122760   1.932   0.783   6.441
 7506WAT     H222761   1.980   0.894   6.332
 7507WAT      O22762   8.613   0.659   8.430
 7507WAT     H122763   8.699   0.677   8.381
 7507WAT     H222764   8.631   0.658   8.528
 7508WAT      O22765   2.069   3.138   3.186
 7508WAT     H122766   2.156   3.125   3.138
 7508WAT     H222767   1.995   3.148   3.120
 7509WAT      O22768   3.513   6.941   9.446
 7509WAT     H122769   3.572   6.934   9.527
 7509WAT     H222770   3.562   6.906   9.366
 7510WAT      O22771   8.604   4.637   6.760
 7510WAT     H122772   8.678   4.703   6.747
 7510WAT     H222773   8.629   4.571   6.830
 7511WAT      O22774   9.149   2.719   7.155
 7511WAT     H122775   9.147   2.702   7.056
 7511WAT     H222776   9.215   2.791   7.175
 7512WAT      O22777   2.498   6.771   7.419
 7512WAT     H122778   2.487   6.855   7.473
 7512WAT     H222779   2.456   6.695   7.468
 7513WAT      O22780   9.286   5.186   4.602
 7513WAT     H122781   9.295   5.126   4.522
 7513WAT     H222782   9.289   5.281   4.572
 7514WAT      O22783   5.385   6.447   7.568
 7514WAT     H122784   5.291   6.481   7.575
 7514WAT     H222785   5.421   6.470   7.477
 7515WAT      O22786   6.192   5.532   3.118
 7515WAT     H122787   6.261   5.569   3.181
 7515WAT     H222788   6.204   5.433   3.111
 7516WAT      O22789   4.820   8.451   9.621
 7516WAT     H122790   4.902   8.434   9.568
 7516WAT     H222791   4.739   8.441   9.562
 7517WAT      O22792   1.558   9.001   1.651
 7517WAT     H122793   1.576   9.056   1.733
 7517WAT     H222794   1.518   9.060   1.580
 7518WAT      O22795   6.386   5.446   1.136
 7518WAT     H122796   6.443   5.481   1.062
 7518WAT     H222797   6.431   5.463   1.224
 7519WAT      O22798   5.835   7.967   6.840
 7519WAT     H122799   5.914   8.007   6.887
 7519WAT     H222800   5.759   7.957   6.905
 7520WAT      O22801   2.152   0.735   0.459
 7520WAT     H122802   2.101   0.654   0.430
 7520WAT     H222803   2.232   0.746   0.400
 7521WAT      O22804   0.093   3.472   2.503
 7521WAT     H122805   0.085   3.568   2.529
 7521WAT     H222806   0.138   3.464   2.414
 7522WAT      O22807   6.166   8.190   3.919
 7522WAT     H122808   6.196   8.268   3.865
 7522WAT     H222809   6.066   8.185   3.918
 7523WAT      O22810   7.468   8.674   2.398
 7523WAT     H122811   7.459   8.639   2.491
 7523WAT     H222812   7.378   8.674   2.354
 7524WAT      O22813   4.392   6.524   1.410
 7524WAT     H122814   4.384   6.586   1.488
 7524WAT     H222815   4.455   6.562   1.343
 7525WAT      O22816   0.819   0.142   7.507
 7525WAT     H122817   0.745   0.101   7.454
 7525WAT     H222818   0.900   0.084   7.502
 7526WAT      O22819   0.693   9.009   6.343
 7526WAT     H122820   0.692   9.007   6.443
 7526WAT     H222821   0.714   8.917   6.308
 7527WAT      O22822   6.618   2.729   4.941
 7527WAT     H122823   6.659   2.738   5.032
 7527WAT     H222824   6.671   2.665   4.887
 7528WAT      O22825   5.876   7.357   5.164
 7528WAT     H122826   5.856   7.356   5.066
 7528WAT     H222827   5.801   7.403   5.212
 7529WAT      O22828   5.178   3.270   6.512
 7529WAT     H122829   5.183   3.267   6.612
 7529WAT     H222830   5.259   3.316   6.477
 7530WAT      O22831   7.034   9.635   1.769
 7530WAT     H122832   6.991   9.546   1.750
 7530WAT     H222833   7.052   9.644   1.867
 7531WAT      O22834   2.359   2.453   3.112
 7531WAT     H122835   2.418   2.393   3.060
 7531WAT     H222836   2.414   2.526   3.153
 7532WAT      O22837   4.668   8.572   4.810
 7532WAT     H122838   4.650   8.658   4.856
 7532WAT     H222839   4.742   8.523   4.858
 7533WAT      O22840   0.835   0.220   0.722
 7533WAT     H122841   0.779   0.138   0.734
 7533WAT     H222842   0.781   0.301   0.746
 7534WAT      O22843   5.356   3.361   5.877
 7534WAT     H122844   5.426   3.311   5.928
 7534WAT     H222845   5.383   3.368   5.781
 7535WAT      O22846   7.999   6.890   5.051
 7535WAT     H122847   7.965   6.828   4.980
 7535WAT     H222848   8.026   6.837   5.132
 7536WAT      O22849   7.525   7.328   7.989
 7536WAT     H122850   7.431   7.334   7.953
 7536WAT     H222851   7.526   7.355   8.085
 7537WAT      O22852   9.444   8.577   7.388
 7537WAT     H122853   9.487   8.652   7.339
 7537WAT     H222854   9.494   8.492   7.371
 7538WAT      O22855   9.720   2.202   4.925
 7538WAT     H122856   9.714   2.106   4.953
 7538WAT     H222857   9.769   2.209   4.838
 7539WAT      O22858   2.547   9.781   0.572
 7539WAT     H122859   2.465   9.833   0.596
 7539WAT     H222860   2.610   9.781   0.650
 7540WAT      O22861   8.755   4.231   3.744
 7540WAT     H122862   8.831   4.291   3.768
 7540WAT     H222863   8.739   4.234   3.645
 7541WAT      O22864   4.639   2.593   6.124
 7541WAT     H122865   4.646   2.600   6.025
 7541WAT     H222866   4.567   2.527   6.148
 7542WAT      O22867   5.562   2.876   9.458
 7542WAT     H122868   5.604   2.912   9.374
 7542WAT     H222869   5.535   2.781   9.443
 7543WAT      O22870   5.298   1.406   1.970
 7543WAT     H122871   5.219   1.467   1.965
 7543WAT     H222872   5.302   1.363   2.061
 7544WAT      O22873   3.772   8.596   7.040
 7544WAT     H122874   3.691   8.645   7.074
 7544WAT     H222875   3.770   8.502   7.072
 7545WAT      O22876   0.706   5.048   1.639
 7545WAT     H122877   0.686   5.143   1.660
 7545WAT     H222878   0.625   5.004   1.600
 7546WAT      O22879   7.342   5.695   8.986
 7546WAT     H122880   7.266   5.674   9.048
 7546WAT     H222881   7.339   5.634   8.907
 7547WAT      O22882   2.611   6.444   3.748
 7547WAT     H122883   2.645   6.358   3.711
 7547WAT     H222884   2.519   6.462   3.713
 7548WAT      O22885   9.693   7.320   9.061
 7548WAT     H122886   9.625   7.393   9.053
 7548WAT     H222887   9.730   7.298   8.971
 7549WAT      O22888   2.777   1.501   5.823
 7549WAT     H122889   2.827   1.416   5.840
 7549WAT     H222890   2.815   1.547   5.742
 7550WAT      O22891   6.489   5.232   1.480
 7550WAT     H122892   6.566   5.206   1.538
 7550WAT     H222893   6.508   5.321   1.437
 7551WAT      O22894   2.528   6.986   4.132
 7551WAT     H122895   2.493   7.058   4.073
 7551WAT     H222896   2.626   6.975   4.117
 7552WAT      O22897   7.636   0.149   5.510
 7552WAT     H122898   7.647   0.199   5.423
 7552WAT     H222899   7.587   0.207   5.575
 7553WAT      O22900   4.852   7.582   5.126
 7553WAT     H122901   4.930   7.524   5.149
 7553WAT     H222902   4.769   7.544   5.167
 7554WAT      O22903   8.576   3.129   0.343
 7554WAT     H122904   8.562   3.130   0.244
 7554WAT     H222905   8.673   3.144   0.363
 7555WAT      O22906   0.194   2.476   5.242
 7555WAT     H122907   0.131   2.420   5.187
 7555WAT     H222908   0.143   2.552   5.283
 7556WAT      O22909   0.690   8.133   1.848
 7556WAT     H122910   0.690   8.229   1.824
 7556WAT     H222911   0.596   8.099   1.847
 7557WAT      O22912   5.125   5.118   8.120
 7557WAT     H122913   5.162   5.073   8.038
 7557WAT     H222914   5.109   5.214   8.100
 7558WAT      O22915   7.530   4.620   1.651
 7558WAT     H122916   7.566   4.697   1.704
 7558WAT     H222917   7.542   4.535   1.702
 7559WAT      O22918   6.625   5.037   8.304
 7559WAT     H122919   6.553   5.038   8.235
 7559WAT     H222920   6.604   5.104   8.376
 7560WAT      O22921   1.669   4.550   0.890
 7560WAT     H122922   1.708   4.642   0.883
 7560WAT     H222923   1.652   4.513   0.799
 7561WAT      O22924   9.195   6.361   8.087
 7561WAT     H122925   9.248   6.409   8.157
 7561WAT     H222926   9.098   6.370   8.107
 7562WAT      O22927   6.862   8.881   2.441
 7562WAT     H122928   6.944   8.880   2.383
 7562WAT     H222929   6.846   8.789   2.477
 7563WAT      O22930   0.282   2.872   6.176
 7563WAT     H122931   0.291   2.967   6.145
 7563WAT     H222932   0.371   2.839   6.207
 7564WAT      O22933   7.915   9.191   8.799
 7564WAT     H122934   7.883   9.125   8.867
 7564WAT     H222935   7.918   9.147   8.709
 7565WAT      O22936   8.685   8.845   0.811
 7565WAT     H122937   8.603   8.900   0.791
 7565WAT     H222938   8.658   8.750   0.826
 7566WAT      O22939   3.020   9.477   3.204
 7566WAT     H122940   3.008   9.485   3.105
 7566WAT     H222941   3.067   9.392   3.225
 7567WAT      O22942   4.083   2.281   0.906
 7567WAT     H122943   4.178   2.271   0.875
 7567WAT     H222944   4.025   2.305   0.828
 7568WAT      O22945   1.790   9.146   0.520
 7568WAT     H122946   1.885   9.169   0.502
 7568WAT     H222947   1.735   9.160   0.438
 7569WAT      O22948   6.750   3.712   4.301
 7569WAT     H122949   6.781   3.784   4.363
 7569WAT     H222950   6.763   3.623   4.344
 7570WAT      O22951   6.511   4.313   4.719
 7570WAT     H122952   6.455   4.287   4.640
 7570WAT     H222953   6.521   4.234   4.779
 7571WAT      O22954   3.768   8.366   0.817
 7571WAT     H122955   3.766   8.282   0.764
 7571WAT     H222956   3.837   8.428   0.779
 7572WAT      O22957   1.089   5.971   0.266
 7572WAT     H122958   1.034   6.036   0.318
 7572WAT     H222959   1.030   5.917   0.207
 7573WAT      O22960   0.508   3.237   3.955
 7573WAT     H122961   0.410   3.220   3.941
 7573WAT     H222962   0.554   3.242   3.867
 7574WAT      O22963   0.218   4.080   3.286
 7574WAT     H122964   0.289   4.082   3.356
 7574WAT     H222965   0.129   4.062   3.329
 7575WAT      O22966   3.891   0.572   4.083
 7575WAT     H122967   3.898   0.661   4.037
 7575WAT     H222968   3.960   0.510   4.046
 7576WAT      O22969   0.169   0.266   2.795
 7576WAT     H122970   0.266   0.261   2.769
 7576WAT     H222971   0.162   0.296   2.890
 7577WAT      O22972   0.245   2.046   2.613
 7577WAT     H122973   0.232   1.949   2.634
 7577WAT     H222974   0.340   2.072   2.632
 7578WAT      O22975   3.319   5.150   9.465
 7578WAT     H122976   3.366   5.156   9.553
 7578WAT     H222977   3.228   5.112   9.479
 7579WAT      O22978   7.667   3.132   9.212
 7579WAT     H122979   7.693   3.190   9.134
 7579WAT     H222980   7.638   3.190   9.288
 7580WAT      O22981   0.316   5.533   1.491
 7580WAT     H122982   0.222   5.498   1.490
 7580WAT     H222983   0.315   5.630   1.515
 7581WAT      O22984   5.134   1.219   4.952
 7581WAT     H122985   5.199   1.250   4.883
 7581WAT     H222986   5.053   1.180   4.907
 7582WAT      O22987   5.026   3.006   6.321
 7582WAT     H122988   5.039   3.094   6.275
 7582WAT     H222989   4.945   2.961   6.285
 7583WAT      O22990   0.369   9.773   9.081
 7583WAT     H122991   0.407   9.837   9.147
 7583WAT     H222992   0.439   9.705   9.056
 7584WAT      O22993   3.071   0.081   0.567
 7584WAT     H122994   3.046  -0.012   0.537
 7584WAT     H222995   3.171   0.086   0.578
 7585WAT      O22996   9.625   0.373   2.336
 7585WAT     H122997   9.575   0.314   2.400
 7585WAT     H222998   9.601   0.349   2.242
 7586WAT      O22999   6.665   4.079   5.316
 7586WAT     H123000   6.686   4.142   5.240
 7586WAT     H223001   6.588   4.116   5.368
 7587WAT      O23002   7.353   4.878   3.591
 7587WAT     H123003   7.404   4.962   3.614
 7587WAT     H223004   7.396   4.800   3.635
 7588WAT      O23005   4.961   7.638   7.073
 7588WAT     H123006   4.935   7.735   7.075
 7588WAT     H223007   4.974   7.609   6.978
 7589WAT      O23008   6.449   9.462   6.067
 7589WAT     H123009   6.539   9.425   6.041
 7589WAT     H223010   6.441   9.460   6.167
 7590WAT      O23011   4.848   7.120   2.724
 7590WAT     H123012   4.924   7.155   2.668
 7590WAT     H223013   4.813   7.194   2.782
 7591WAT      O23014   1.375   7.088   1.601
 7591WAT     H123015   1.406   7.048   1.688
 7591WAT     H223016   1.389   7.187   1.603
 7592WAT      O23017   8.096   4.825   8.576
 7592WAT     H123018   8.012   4.781   8.544
 7592WAT     H223019   8.175   4.779   8.536
 7593WAT      O23020   9.710   2.654   2.376
 7593WAT     H123021   9.710   2.745   2.335
 7593WAT     H223022   9.706   2.585   2.303
 7594WAT      O23023   1.016   8.875   0.473
 7594WAT     H123024   0.929   8.872   0.522
 7594WAT     H223025   1.022   8.797   0.411
 7595WAT      O23026   8.221   7.911   7.390
 7595WAT     H123027   8.300   7.929   7.448
 7595WAT     H223028   8.155   7.986   7.400
 7596WAT      O23029   0.140   9.834   3.358
 7596WAT     H123030   0.194   9.919   3.358
 7596WAT     H223031   0.193   9.762   3.315
 7597WAT      O23032   3.948   5.185   2.397
 7597WAT     H123033   3.887   5.161   2.322
 7597WAT     H223034   3.901   5.171   2.484
 7598WAT      O23035   8.162   4.803   6.973
 7598WAT     H123036   8.196   4.807   6.879
 7598WAT     H223037   8.175   4.712   7.010
 7599WAT      O23038   4.575   6.177   2.200
 7599WAT     H123039   4.602   6.174   2.104
 7599WAT     H223040   4.638   6.122   2.255
 7600WAT      O23041   8.757   0.293   6.780
 7600WAT     H123042   8.709   0.256   6.701
 7600WAT     H223043   8.712   0.263   6.864
 7601WAT      O23044   3.417   4.090   3.338
 7601WAT     H123045   3.513   4.118   3.342
 7601WAT     H223046   3.373   4.131   3.258
 7602WAT      O23047   1.343   3.784   3.222
 7602WAT     H123048   1.332   3.686   3.206
 7602WAT     H223049   1.415   3.820   3.163
 7603WAT      O23050   2.566   9.276   2.197
 7603WAT     H123051   2.657   9.317   2.195
 7603WAT     H223052   2.508   9.318   2.128
 7604WAT      O23053   8.316   4.281   4.045
 7604WAT     H123054   8.223   4.308   4.069
 7604WAT     H223055   8.381   4.336   4.097
 7605WAT      O23056   5.544   1.062   3.815
 7605WAT     H123057   5.631   1.051   3.863
 7605WAT     H223058   5.476   1.103   3.877
 7606WAT      O23059   8.620   5.123   4.371
 7606WAT     H123060   8.574   5.084   4.291
 7606WAT     H223061   8.706   5.166   4.343
 7607WAT      O23062   9.783   3.457   1.160
 7607WAT     H123063   9.864   3.447   1.217
 7607WAT     H223064   9.701   3.442   1.215
 7608WAT      O23065   5.992   2.905   5.214
 7608WAT     H123066   6.048   2.980   5.250
 7608WAT     H223067   5.963   2.846   5.290
 7609WAT      O23068   7.900   1.195   3.818
 7609WAT     H123069   7.952   1.227   3.897
 7609WAT     H223070   7.841   1.120   3.845
 7610WAT      O23071   3.230   6.732   8.560
 7610WAT     H123072   3.302   6.801   8.559
 7610WAT     H223073   3.169   6.747   8.482
 7611WAT      O23074   3.088   0.807   5.360
 7611WAT     H123075   3.118   0.719   5.323
 7611WAT     H223076   2.992   0.801   5.388
 7612WAT      O23077   0.955   2.527   8.740
 7612WAT     H123078   0.979   2.621   8.764
 7612WAT     H223079   0.925   2.524   8.645
 7613WAT      O23080   3.051   7.410   4.305
 7613WAT     H123081   2.954   7.404   4.329
 7613WAT     H223082   3.092   7.486   4.356
 7614WAT      O23083   3.547   7.830   9.596
 7614WAT     H123084   3.528   7.808   9.501
 7614WAT     H223085   3.627   7.778   9.626
 7615WAT      O23086   6.666   9.053   1.624
 7615WAT     H123087   6.727   8.975   1.613
 7615WAT     H223088   6.595   9.050   1.554
 7616WAT      O23089   6.500   9.231   5.264
 7616WAT     H123090   6.515   9.307   5.327
 7616WAT     H223091   6.522   9.260   5.171
 7617WAT      O23092   0.637   2.335   3.369
 7617WAT     H123093   0.721   2.282   3.362
 7617WAT     H223094   0.595   2.319   3.459
 7618WAT      O23095   2.032   6.237   1.983
 7618WAT     H123096   2.056   6.331   2.007
 7618WAT     H223097   1.943   6.236   1.937
 7619WAT      O23098   6.947   3.402   9.461
 7619WAT     H123099   6.941   3.471   9.390
 7619WAT     H223100   6.991   3.320   9.425
 7620WAT      O23101   2.710   3.282   9.261
 7620WAT     H123102   2.730   3.379   9.251
 7620WAT     H223103   2.732   3.235   9.175
 7621WAT      O23104   2.418   3.968   7.594
 7621WAT     H123105   2.369   4.026   7.658
 7621WAT     H223106   2.515   3.964   7.620
 7622WAT      O23107   5.225   1.915   9.083
 7622WAT     H123108   5.307   1.932   9.138
 7622WAT     H223109   5.207   1.994   9.025
 7623WAT      O23110   6.424   9.593   2.096
 7623WAT     H123111   6.398   9.536   2.174
 7623WAT     H223112   6.500   9.549   2.047
 7624WAT      O23113   1.273   3.320   6.688
 7624WAT     H123114   1.190   3.289   6.735
 7624WAT     H223115   1.310   3.244   6.634
 7625WAT      O23116   3.355   4.470   0.372
 7625WAT     H123117   3.351   4.383   0.323
 7625WAT     H223118   3.344   4.545   0.306
 7626WAT      O23119   0.658   4.687   3.131
 7626WAT     H123120   0.614   4.746   3.064
 7626WAT     H223121   0.751   4.665   3.101
 7627WAT      O23122   4.742   4.457   4.028
 7627WAT     H123123   4.763   4.383   3.964
 7627WAT     H223124   4.825   4.509   4.048
 7628WAT      O23125   2.175   8.329   6.061
 7628WAT     H123126   2.267   8.290   6.065
 7628WAT     H223127   2.149   8.343   5.965
 7629WAT      O23128   4.983   2.027   0.651
 7629WAT     H123129   5.048   1.958   0.618
 7629WAT     H223130   5.012   2.118   0.622
 7630WAT      O23131   5.850   2.725   1.997
 7630WAT     H123132   5.933   2.723   2.051
 7630WAT     H223133   5.777   2.677   2.046
 7631WAT      O23134   7.052   7.824   6.374
 7631WAT     H123135   7.078   7.872   6.290
 7631WAT     H223136   7.126   7.764   6.403
 7632WAT      O23137   9.387   4.011   3.418
 7632WAT     H123138   9.411   4.101   3.453
 7632WAT     H223139   9.430   3.997   3.329
 7633WAT      O23140   5.456   3.379   2.480
 7633WAT     H123141   5.529   3.412   2.540
 7633WAT     H223142   5.396   3.317   2.531
 7634WAT      O23143   5.176   5.751   6.858
 7634WAT     H123144   5.136   5.698   6.782
 7634WAT     H223145   5.253   5.701   6.896
 7635WAT      O23146   7.562   5.059   7.898
 7635WAT     H123147   7.571   5.157   7.884
 7635WAT     H223148   7.596   5.010   7.817
 7636WAT      O23149   5.960   3.152   5.392
 7636WAT     H123150   6.017   3.157   5.310
 7636WAT     H223151   5.930   3.244   5.417
 7637WAT      O23152   6.120   0.334   8.880
 7637WAT     H123153   6.196   0.331   8.814
 7637WAT     H223154   6.123   0.253   8.938
 7638WAT      O23155   3.228   1.032   6.462
 7638WAT     H123156   3.215   0.985   6.549
 7638WAT     H223157   3.238   1.130   6.478
 7639WAT      O23158   0.454   0.252   4.229
 7639WAT     H123159   0.399   0.186   4.178
 7639WAT     H223160   0.540   0.209   4.256
 7640WAT      O23161   0.132   0.794   0.280
 7640WAT     H123162   0.058   0.814   0.345
 7640WAT     H223163   0.093   0.756   0.197
 7641WAT      O23164   7.873   3.623   0.782
 7641WAT     H123165   7.787   3.616   0.833
 7641WAT     H223166   7.921   3.706   0.810
 7642WAT      O23167   0.383   0.221   4.535
 7642WAT     H123168   0.474   0.245   4.501
 7642WAT     H223169   0.329   0.183   4.460
 7643WAT      O23170   7.974   1.903   2.549
 7643WAT     H123171   8.057   1.949   2.517
 7643WAT     H223172   8.000   1.827   2.609
 7644WAT      O23173   1.705   0.129   0.291
 7644WAT     H123174   1.615   0.170   0.306
 7644WAT     H223175   1.704   0.077   0.206
 7645WAT      O23176   5.784   7.255   6.511
 7645WAT     H123177   5.783   7.161   6.544
 7645WAT     H223178   5.787   7.318   6.589
 7646WAT      O23179   8.643   2.782   0.479
 7646WAT     H123180   8.657   2.872   0.520
 7646WAT     H223181   8.605   2.719   0.546
 7647WAT      O23182   9.710   3.386   7.857
 7647WAT     H123183   9.708   3.390   7.757
 7647WAT     H223184   9.636   3.441   7.895
 7648WAT      O23185   0.565   2.078   6.431
 7648WAT     H123186   0.618   2.116   6.355
 7648WAT     H223187   0.593   2.122   6.516
 7649WAT      O23188   1.637   9.724   4.859
 7649WAT     H123189   1.583   9.805   4.881
 7649WAT     H223190   1.649   9.717   4.760
 7650WAT      O23191   2.278   4.530   7.084
 7650WAT     H123192   2.232   4.448   7.118
 7650WAT     H223193   2.211   4.592   7.045
 7651WAT      O23194   8.312   4.391   2.249
 7651WAT     H123195   8.304   4.310   2.190
 7651WAT     H223196   8.395   4.384   2.305
 7652WAT      O23197   6.890   1.863   3.242
 7652WAT     H123198   6.860   1.948   3.199
 7652WAT     H223199   6.818   1.794   3.233
 7653WAT      O23200   2.692   7.387   6.256
 7653WAT     H123201   2.790   7.397   6.275
 7653WAT     H223202   2.676   7.392   6.158
 7654WAT      O23203   8.024   2.981   5.442
 7654WAT     H123204   8.054   3.054   5.504
 7654WAT     H223205   7.944   2.935   5.480
 7655WAT      O23206   4.675   9.124   4.593
 7655WAT     H123207   4.648   9.124   4.497
 7655WAT     H223208   4.740   9.198   4.610
 7656WAT      O23209   9.673   0.120   3.797
 7656WAT     H123210   9.638   0.027   3.786
 7656WAT     H223211   9.735   0.124   3.874
 7657WAT      O23212   1.757   0.397   3.240
 7657WAT     H123213   1.808   0.333   3.297
 7657WAT     H223214   1.684   0.439   3.294
 7658WAT      O23215   7.880   1.191   6.793
 7658WAT     H123216   7.834   1.115   6.748
 7658WAT     H223217   7.975   1.195   6.764
 7659WAT      O23218   2.374   4.142   4.033
 7659WAT     H123219   2.444   4.084   3.991
 7659WAT     H223220   2.412   4.233   4.050
 7660WAT      O23221   1.904   5.613   1.254
 7660WAT     H123222   1.915   5.536   1.191
 7660WAT     H223223   1.909   5.699   1.202
 7661WAT      O23224   1.317   7.388   5.751
 7661WAT     H123225   1.305   7.468   5.691
 7661WAT     H223226   1.228   7.345   5.766
 7662WAT      O23227   3.752   6.732   8.205
 7662WAT     H123228   3.847   6.757   8.223
 7662WAT     H223229   3.719   6.780   8.124
 7663WAT      O23230   2.578   4.501   3.490
 7663WAT     H123231   2.540   4.583   3.532
 7663WAT     H223232   2.631   4.450   3.558
 7664WAT      O23233   8.719   5.438   1.178
 7664WAT     H123234   8.800   5.494   1.190
 7664WAT     H223235   8.739   5.344   1.205
 7665WAT      O23236   7.085   3.553   6.388
 7665WAT     H123237   7.099   3.534   6.291
 7665WAT     H223238   7.020   3.628   6.399
 7666WAT      O23239   0.652   0.261   8.144
 7666WAT     H123240   0.718   0.336   8.141
 7666WAT     H223241   0.609   0.258   8.234
 7667WAT      O23242   2.327   4.629   4.366
 7667WAT     H123243   2.408   4.653   4.419
 7667WAT     H223244   2.317   4.529   4.364
 7668WAT      O23245   7.692   9.155   5.776
 7668WAT     H123246   7.704   9.056   5.789
 7668WAT     H223247   7.595   9.176   5.773
 7669WAT      O23248   8.546   8.733   8.342
 7669WAT     H123249   8.533   8.656   8.404
 7669WAT     H223250   8.501   8.715   8.255
 7670WAT      O23251   2.239   5.576   2.397
 7670WAT     H123252   2.240   5.505   2.468
 7670WAT     H223253   2.333   5.597   2.370
 7671WAT      O23254   3.229   3.144   0.093
 7671WAT     H123255   3.218   3.109   0.001
 7671WAT     H223256   3.282   3.229   0.091
 7672WAT      O23257   8.770   5.758   6.047
 7672WAT     H123258   8.868   5.777   6.038
 7672WAT     H223259   8.719   5.844   6.044
 7673WAT      O23260   2.899   1.383   5.331
 7673WAT     H123261   2.930   1.353   5.422
 7673WAT     H223262   2.978   1.390   5.270
 7674WAT      O23263   7.458   3.741   9.868
 7674WAT     H123264   7.425   3.811   9.804
 7674WAT     H223265   7.558   3.735   9.861
 7675WAT      O23266   5.714   1.763   0.619
 7675WAT     H123267   5.647   1.723   0.681
 7675WAT     H223268   5.667   1.812   0.546
 7676WAT      O23269   6.410   8.832   3.898
 7676WAT     H123270   6.369   8.862   3.812
 7676WAT     H223271   6.482   8.896   3.925
 7677WAT      O23272   2.205   1.844   9.415
 7677WAT     H123273   2.164   1.868   9.503
 7677WAT     H223274   2.166   1.901   9.343
 7678WAT      O23275   3.253   9.807   3.178
 7678WAT     H123276   3.250   9.720   3.129
 7678WAT     H223277   3.325   9.866   3.140
 7679WAT      O23278   6.394   3.438   1.726
 7679WAT     H123279   6.327   3.364   1.710
 7679WAT     H223280   6.426   3.433   1.820
 7680WAT      O23281   3.941   7.169   6.610
 7680WAT     H123282   3.957   7.110   6.530
 7680WAT     H223283   4.017   7.159   6.674
 7681WAT      O23284   5.668   0.919   3.553
 7681WAT     H123285   5.735   0.982   3.514
 7681WAT     H223286   5.650   0.944   3.648
 7682WAT      O23287   6.447   2.518   6.299
 7682WAT     H123288   6.393   2.539   6.217
 7682WAT     H223289   6.519   2.453   6.275
 7683WAT      O23290   4.831   7.596   6.607
 7683WAT     H123291   4.897   7.652   6.557
 7683WAT     H223292   4.811   7.513   6.556
 7684WAT      O23293   4.078   2.349   4.022
 7684WAT     H123294   3.992   2.393   3.996
 7684WAT     H223295   4.151   2.416   4.021
 7685WAT      O23296   2.930   8.355   2.912
 7685WAT     H123297   2.894   8.410   2.987
 7685WAT     H223298   2.881   8.268   2.907
 7686WAT      O23299   0.648   4.971   3.701
 7686WAT     H123300   0.610   5.052   3.657
 7686WAT     H223301   0.595   4.890   3.672
 7687WAT      O23302   4.454   3.162   3.946
 7687WAT     H123303   4.382   3.212   3.993
 7687WAT     H223304   4.536   3.220   3.939
 7688WAT      O23305   9.399   0.071   6.945
 7688WAT     H123306   9.338   0.108   7.015
 7688WAT     H223307   9.493   0.074   6.979
 7689WAT      O23308   6.575   1.793   9.661
 7689WAT     H123309   6.531   1.878   9.632
 7689WAT     H223310   6.591   1.735   9.582
 7690WAT      O23311   3.003   4.413   3.024
 7690WAT     H123312   2.970   4.421   2.930
 7690WAT     H223313   2.932   4.441   3.088
 7691WAT      O23314   7.650   0.398   4.792
 7691WAT     H123315   7.673   0.492   4.767
 7691WAT     H223316   7.632   0.345   4.709
 7692WAT      O23317   5.050   8.430   1.639
 7692WAT     H123318   5.017   8.497   1.705
 7692WAT     H223319   5.007   8.341   1.657
 7693WAT      O23320   7.134   0.792   8.941
 7693WAT     H123321   7.168   0.699   8.925
 7693WAT     H223322   7.170   0.853   8.871
 7694WAT      O23323   7.699   8.399   4.374
 7694WAT     H123324   7.608   8.408   4.416
 7694WAT     H223325   7.754   8.479   4.396
 7695WAT      O23326   6.685   6.414   5.721
 7695WAT     H123327   6.740   6.375   5.647
 7695WAT     H223328   6.663   6.343   5.787
 7696WAT      O23329   7.472   6.046   1.712
 7696WAT     H123330   7.397   6.017   1.653
 7696WAT     H223331   7.436   6.106   1.784
 7697WAT      O23332   6.859   8.648   0.646
 7697WAT     H123333   6.881   8.595   0.563
 7697WAT     H223334   6.762   8.674   0.643
 7698WAT      O23335   9.249   1.585   1.585
 7698WAT     H123336   9.198   1.670   1.593
 7698WAT     H223337   9.314   1.593   1.509
 7699WAT      O23338   1.031   2.625   9.516
 7699WAT     H123339   0.933   2.638   9.534
 7699WAT     H223340   1.083   2.697   9.561
 7700WAT      O23341   8.254   2.809   1.590
 7700WAT     H123342   8.294   2.737   1.647
 7700WAT     H223343   8.193   2.866   1.645
 7701WAT      O23344   8.511   5.967   5.989
 7701WAT     H123345   8.471   5.927   6.071
 7701WAT     H223346   8.441   5.973   5.917
 7702WAT      O23347   7.108   3.911   0.044
 7702WAT     H123348   7.177   3.863   0.099
 7702WAT     H223349   7.018   3.873   0.064
 7703WAT      O23350   4.630   2.669   7.828
 7703WAT     H123351   4.649   2.666   7.730
 7703WAT     H223352   4.535   2.698   7.842
 7704WAT      O23353   3.714   0.387   4.693
 7704WAT     H123354   3.728   0.302   4.643
 7704WAT     H223355   3.788   0.451   4.671
 7705WAT      O23356   2.729   7.164   0.229
 7705WAT     H123357   2.799   7.214   0.280
 7705WAT     H223358   2.655   7.138   0.291
 7706WAT      O23359   5.999   1.750   0.468
 7706WAT     H123360   5.993   1.775   0.565
 7706WAT     H223361   6.094   1.728   0.445
 7707WAT      O23362   4.669   8.385   1.855
 7707WAT     H123363   4.760   8.422   1.870
 7707WAT     H223364   4.609   8.412   1.930
 7708WAT      O23365   2.227   4.547   8.676
 7708WAT     H123366   2.235   4.639   8.715
 7708WAT     H223367   2.142   4.541   8.624
 7709WAT      O23368   3.888   8.001   6.264
 7709WAT     H123369   3.874   7.945   6.345
 7709WAT     H223370   3.806   8.001   6.208
 7710WAT      O23371   0.032   5.078   2.163
 7710WAT     H123372   0.001   5.041   2.251
 7710WAT     H223373   0.099   5.016   2.122
 7711WAT      O23374   4.616   8.517   1.607
 7711WAT     H123375   4.632   8.471   1.694
 7711WAT     H223376   4.541   8.471   1.559
 7712WAT      O23377   0.004   9.664   3.522
 7712WAT     H123378  -0.065   9.634   3.456
 7712WAT     H223379   0.075   9.717   3.474
 7713WAT      O23380   1.978   2.406   0.280
 7713WAT     H123381   1.990   2.307   0.283
 7713WAT     H223382   1.950   2.433   0.188
 7714WAT      O23383   3.176   8.720   0.487
 7714WAT     H123384   3.153   8.696   0.393
 7714WAT     H223385   3.155   8.817   0.503
 7715WAT      O23386   5.110   0.655   2.069
 7715WAT     H123387   5.112   0.754   2.059
 7715WAT     H223388   5.092   0.631   2.164
 7716WAT      O23389   3.942   4.699   8.393
 7716WAT     H123390   4.019   4.650   8.353
 7716WAT     H223391   3.878   4.727   8.321
 7717WAT      O23392   4.792   7.285   8.823
 7717WAT     H123393   4.694   7.284   8.842
 7717WAT     H223394   4.818   7.200   8.778
 7718WAT      O23395   1.770   5.981   8.712
 7718WAT     H123396   1.701   5.950   8.777
 7718WAT     H223397   1.767   5.925   8.630
 7719WAT      O23398   1.505   3.167   3.897
 7719WAT     H123399   1.557   3.095   3.942
 7719WAT     H223400   1.528   3.171   3.800
 7720WAT      O23401   8.998   2.365   1.374
 7720WAT     H123402   8.914   2.410   1.404
 7720WAT     H223403   9.075   2.397   1.428
 7721WAT      O23404   6.228   2.437   4.445
 7721WAT     H123405   6.236   2.482   4.534
 7721WAT     H223406   6.286   2.356   4.443
 7722WAT      O23407   2.350   3.926   8.108
 7722WAT     H123408   2.365   3.979   8.025
 7722WAT     H223409   2.261   3.879   8.102
 7723WAT      O23410   6.571   1.123   2.686
 7723WAT     H123411   6.660   1.082   2.668
 7723WAT     H223412   6.539   1.172   2.604
 7724WAT      O23413   5.827   8.445   5.133
 7724WAT     H123414   5.837   8.349   5.161
 7724WAT     H223415   5.737   8.458   5.092
 7725WAT      O23416   2.597   6.174   9.155
 7725WAT     H123417   2.583   6.237   9.231
 7725WAT     H223418   2.528   6.191   9.084
 7726WAT      O23419   4.776   7.559   1.656
 7726WAT     H123420   4.715   7.577   1.733
 7726WAT     H223421   4.796   7.644   1.608
 7727WAT      O23422   6.035   2.982   3.191
 7727WAT     H123423   5.941   3.013   3.204
 7727WAT     H223424   6.076   2.962   3.281
 7728WAT      O23425   8.975   7.832   7.408
 7728WAT     H123426   8.971   7.840   7.507
 7728WAT     H223427   9.038   7.900   7.371
 7729WAT      O23428   0.906   4.586   3.040
 7729WAT     H123429   0.923   4.503   3.093
 7729WAT     H223430   0.994   4.630   3.019
 7730WAT      O23431   3.067   7.946   7.821
 7730WAT     H123432   3.152   7.917   7.777
 7730WAT     H223433   3.078   7.944   7.920
 7731WAT      O23434   9.317   4.463   2.542
 7731WAT     H123435   9.355   4.433   2.630
 7731WAT     H223436   9.252   4.538   2.558
 7732WAT      O23437   2.740   7.839   6.672
 7732WAT     H123438   2.836   7.814   6.679
 7732WAT     H223439   2.683   7.758   6.682
 7733WAT      O23440   0.923   8.971   8.022
 7733WAT     H123441   0.937   8.960   8.120
 7733WAT     H223442   0.847   8.914   7.992
 7734WAT      O23443   3.385   4.518   2.956
 7734WAT     H123444   3.347   4.548   3.044
 7734WAT     H223445   3.313   4.521   2.886
 7735WAT      O23446   1.158   7.611   9.625
 7735WAT     H123447   1.083   7.677   9.619
 7735WAT     H223448   1.141   7.547   9.699
 7736WAT      O23449   2.993   3.105   5.172
 7736WAT     H123450   3.084   3.089   5.133
 7736WAT     H223451   2.999   3.181   5.238
 7737WAT      O23452   5.091   2.596   6.697
 7737WAT     H123453   5.004   2.606   6.746
 7737WAT     H223454   5.095   2.662   6.622
 7738WAT      O23455   7.971   6.181   2.485
 7738WAT     H123456   7.970   6.187   2.585
 7738WAT     H223457   7.899   6.118   2.456
 7739WAT      O23458   3.526   3.551   4.845
 7739WAT     H123459   3.486   3.463   4.823
 7739WAT     H223460   3.622   3.538   4.872
 7740WAT      O23461   6.574   1.737   1.198
 7740WAT     H123462   6.575   1.762   1.101
 7740WAT     H223463   6.485   1.697   1.221
 7741WAT      O23464   2.161   6.430   5.300
 7741WAT     H123465   2.161   6.504   5.368
 7741WAT     H223466   2.106   6.354   5.333
 7742WAT      O23467   6.503   6.125   8.933
 7742WAT     H123468   6.590   6.088   8.900
 7742WAT     H223469   6.451   6.052   8.977
 7743WAT      O23470   4.133   3.479   7.366
 7743WAT     H123471   4.054   3.467   7.305
 7743WAT     H223472   4.217   3.479   7.312
 7744WAT      O23473   2.437   0.748   2.092
 7744WAT     H123474   2.463   0.822   2.155
 7744WAT     H223475   2.347   0.769   2.052
 7745WAT      O23476   4.331   8.581   0.412
 7745WAT     H123477   4.385   8.575   0.328
 7745WAT     H223478   4.386   8.620   0.485
 7746WAT      O23479   1.413   2.176   3.006
 7746WAT     H123480   1.364   2.138   2.927
 7746WAT     H223481   1.355   2.243   3.051
 7747WAT      O23482   8.527   1.255   3.608
 7747WAT     H123483   8.555   1.198   3.531
 7747WAT     H223484   8.575   1.343   3.604
 7748WAT      O23485   5.342   9.702   9.677
 7748WAT     H123486   5.367   9.799   9.675
 7748WAT     H223487   5.253   9.690   9.720
 7749WAT      O23488   2.959   7.203   8.981
 7749WAT     H123489   2.947   7.144   8.901
 7749WAT     H223490   2.966   7.147   9.063
 7750WAT      O23491   0.288   4.362   8.726
 7750WAT     H123492   0.282   4.461   8.727
 7750WAT     H223493   0.220   4.324   8.790
 7751WAT      O23494   0.579   1.108   1.223
 7751WAT     H123495   0.515   1.123   1.298
 7751WAT     H223496   0.544   1.035   1.164
 7752WAT      O23497   2.228   3.934   3.032
 7752WAT     H123498   2.277   3.909   3.115
 7752WAT     H223499   2.264   4.021   2.997
 7753WAT      O23500   6.639   4.471   1.135
 7753WAT     H123501   6.677   4.380   1.148
 7753WAT     H223502   6.687   4.516   1.059
 7754WAT      O23503   8.413   7.107   4.129
 7754WAT     H123504   8.355   7.072   4.056
 7754WAT     H223505   8.496   7.147   4.089
 7755WAT      O23506   7.221   0.492   0.923
 7755WAT     H123507   7.187   0.407   0.963
 7755WAT     H223508   7.151   0.531   0.864
 7756WAT      O23509   9.253   9.156   7.236
 7756WAT     H123510   9.304   9.162   7.150
 7756WAT     H223511   9.301   9.096   7.300
 7757WAT      O23512   2.008   0.968   0.993
 7757WAT     H123513   1.957   1.005   0.915
 7757WAT     H223514   2.027   0.871   0.976
 7758WAT      O23515   1.073   8.849   6.251
 7758WAT     H123516   1.122   8.864   6.165
 7758WAT     H223517   1.120   8.896   6.325
 7759WAT      O23518   6.561   9.357   3.638
 7759WAT     H123519   6.478   9.320   3.681
 7759WAT     H223520   6.639   9.340   3.698
 7760WAT      O23521   6.630   4.902   6.776
 7760WAT     H123522   6.608   4.909   6.679
 7760WAT     H223523   6.595   4.982   6.824
 7761WAT      O23524   8.503   5.217   8.663
 7761WAT     H123525   8.522   5.254   8.754
 7761WAT     H223526   8.561   5.262   8.595
 7762WAT      O23527   5.976   5.877   9.639
 7762WAT     H123528   6.042   5.951   9.652
 7762WAT     H223529   5.944   5.877   9.544
 7763WAT      O23530   1.815   0.602   5.266
 7763WAT     H123531   1.748   0.593   5.193
 7763WAT     H223532   1.771   0.584   5.354
 7764WAT      O23533   4.227   7.124   1.598
 7764WAT     H123534   4.214   7.217   1.563
 7764WAT     H223535   4.235   7.061   1.521
 7765WAT      O23536   6.685   8.126   6.795
 7765WAT     H123537   6.605   8.186   6.789
 7765WAT     H223538   6.753   8.167   6.856
 7766WAT      O23539   8.647   4.174   4.346
 7766WAT     H123540   8.679   4.229   4.423
 7766WAT     H223541   8.714   4.179   4.271
 7767WAT      O23542   4.411   3.925   1.042
 7767WAT     H123543   4.370   3.846   0.997
 7767WAT     H223544   4.446   3.898   1.132
 7768WAT      O23545   4.762   4.626   9.684
 7768WAT     H123546   4.794   4.620   9.779
 7768WAT     H223547   4.812   4.698   9.636
 7769WAT      O23548   1.221   8.551   9.750
 7769WAT     H123549   1.188   8.519   9.839
 7769WAT     H223550   1.311   8.511   9.732
 7770WAT      O23551   7.985   8.078   8.462
 7770WAT     H123552   7.977   8.154   8.525
 7770WAT     H223553   7.923   8.004   8.490
 7771WAT      O23554   1.108   3.338   5.911
 7771WAT     H123555   1.196   3.296   5.930
 7771WAT     H223556   1.083   3.400   5.986
 7772WAT      O23557   8.099   5.473   9.346
 7772WAT     H123558   8.060   5.421   9.422
 7772WAT     H223559   8.152   5.411   9.287
 7773WAT      O23560   9.216   2.404   5.993
 7773WAT     H123561   9.246   2.413   5.898
 7773WAT     H223562   9.121   2.435   6.002
 7774WAT      O23563   5.906   5.732   7.481
 7774WAT     H123564   5.882   5.670   7.556
 7774WAT     H223565   6.006   5.734   7.471
 7775WAT      O23566   8.486   4.303   0.897
 7775WAT     H123567   8.412   4.364   0.871
 7775WAT     H223568   8.563   4.356   0.932
 7776WAT      O23569   5.056   3.895   9.471
 7776WAT     H123570   4.997   3.902   9.390
 7776WAT     H223571   5.003   3.854   9.546
 7777WAT      O23572   4.705   0.452   0.753
 7777WAT     H123573   4.619   0.482   0.710
 7777WAT     H223574   4.690   0.441   0.851
 7778WAT      O23575   1.397   3.707   1.491
 7778WAT     H123576   1.437   3.615   1.490
 7778WAT     H223577   1.310   3.706   1.442
 7779WAT      O23578   1.094   0.773   8.154
 7779WAT     H123579   1.062   0.761   8.248
 7779WAT     H223580   1.072   0.690   8.101
 7780WAT      O23581   8.575   3.380   9.618
 7780WAT     H123582   8.532   3.298   9.656
 7780WAT     H223583   8.610   3.359   9.527
 7781WAT      O23584   2.475   7.955   1.353
 7781WAT     H123585   2.510   7.885   1.291
 7781WAT     H223586   2.436   7.910   1.434
 7782WAT      O23587   0.419   1.748   5.403
 7782WAT     H123588   0.476   1.776   5.326
 7782WAT     H223589   0.463   1.673   5.452
 7783WAT      O23590   6.475   0.303   3.196
 7783WAT     H123591   6.471   0.372   3.268
 7783WAT     H223592   6.542   0.330   3.128
 7784WAT      O23593   7.392   7.427   6.403
 7784WAT     H123594   7.473   7.411   6.346
 7784WAT     H223595   7.405   7.384   6.492
 7785WAT      O23596   2.643   4.108   0.514
 7785WAT     H123597   2.590   4.125   0.432
 7785WAT     H223598   2.739   4.092   0.489
 7786WAT      O23599   9.842   0.343   5.138
 7786WAT     H123600   9.916   0.412   5.139
 7786WAT     H223601   9.832   0.307   5.046
 7787WAT      O23602   6.232   0.220   1.461
 7787WAT     H123603   6.236   0.212   1.561
 7787WAT     H223604   6.296   0.155   1.420
 7788WAT      O23605   2.737   2.953   0.505
 7788WAT     H123606   2.711   3.034   0.557
 7788WAT     H223607   2.688   2.874   0.540
 7789WAT      O23608   1.793   8.429   3.932
 7789WAT     H123609   1.809   8.342   3.884
 7789WAT     H223610   1.711   8.422   3.988
 7790WAT      O23611   1.469   4.635   3.640
 7790WAT     H123612   1.561   4.597   3.648
 7790WAT     H223613   1.462   4.690   3.557
 7791WAT      O23614   7.525   0.583   9.126
 7791WAT     H123615   7.509   0.620   9.034
 7791WAT     H223616   7.471   0.500   9.139
 7792WAT      O23617   1.400   6.098   2.852
 7792WAT     H123618   1.477   6.068   2.796
 7792WAT     H223619   1.338   6.155   2.797
 7793WAT      O23620   7.211   7.577   1.070
 7793WAT     H123621   7.262   7.651   1.024
 7793WAT     H223622   7.166   7.613   1.151
 7794WAT      O23623   5.561   0.819   4.042
 7794WAT     H123624   5.579   0.720   4.042
 7794WAT     H223625   5.631   0.866   3.988
 7795WAT      O23626   6.387   7.014   2.795
 7795WAT     H123627   6.330   7.095   2.806
 7795WAT     H223628   6.424   6.987   2.884
 7796WAT      O23629   7.462   3.441   4.255
 7796WAT     H123630   7.445   3.480   4.345
 7796WAT     H223631   7.401   3.363   4.240
 7797WAT      O23632   1.101   9.758   6.809
 7797WAT     H123633   1.039   9.704   6.866
 7797WAT     H223634   1.191   9.715   6.808
 7798WAT      O23635   1.315   9.388   3.624
 7798WAT     H123636   1.377   9.375   3.547
 7798WAT     H223637   1.303   9.301   3.672
 7799WAT      O23638   4.940   2.602   2.211
 7799WAT     H123639   4.972   2.523   2.264
 7799WAT     H223640   4.895   2.570   2.127
 7800WAT      O23641   1.087   2.863   1.237
 7800WAT     H123642   1.064   2.829   1.328
 7800WAT     H223643   1.181   2.897   1.236
 7801WAT      O23644   8.228   6.329   8.232
 7801WAT     H123645   8.150   6.390   8.239
 7801WAT     H223646   8.211   6.247   8.286
 7802WAT      O23647   6.273   2.652   1.879
 7802WAT     H123648   6.254   2.745   1.848
 7802WAT     H223649   6.273   2.590   1.801
 7803WAT      O23650   5.978   4.296   5.597
 7803WAT     H123651   5.974   4.377   5.655
 7803WAT     H223652   5.917   4.225   5.634
 7804WAT      O23653   1.911   6.742   8.960
 7804WAT     H123654   1.811   6.739   8.964
 7804WAT     H223655   1.949   6.694   9.039
 7805WAT      O23656   5.229   8.547   3.775
 7805WAT     H123657   5.198   8.499   3.693
 7805WAT     H223658   5.224   8.485   3.854
 7806WAT      O23659   7.503   5.975   0.149
 7806WAT     H123660   7.442   6.052   0.136
 7806WAT     H223661   7.450   5.895   0.177
 7807WAT      O23662   1.662   7.164   4.564
 7807WAT     H123663   1.760   7.180   4.573
 7807WAT     H223664   1.627   7.121   4.647
 7808WAT      O23665   5.441   9.086   6.582
 7808WAT     H123666   5.526   9.083   6.635
 7808WAT     H223667   5.364   9.072   6.643
 7809WAT      O23668   1.976   8.959   2.702
 7809WAT     H123669   2.034   9.034   2.669
 7809WAT     H223670   1.962   8.969   2.800
 7810WAT      O23671   1.309   0.027   2.573
 7810WAT     H123672   1.297  -0.071   2.588
 7810WAT     H223673   1.320   0.045   2.475
 7811WAT      O23674   0.642   7.231   3.663
 7811WAT     H123675   0.696   7.237   3.579
 7811WAT     H223676   0.698   7.190   3.735
 7812WAT      O23677   4.533   8.631   9.465
 7812WAT     H123678   4.464   8.623   9.393
 7812WAT     H223679   4.579   8.719   9.458
 7813WAT      O23680   5.517   6.820   0.924
 7813WAT     H123681   5.459   6.894   0.891
 7813WAT     H223682   5.612   6.852   0.928
 7814WAT      O23683   4.479   7.746   0.341
 7814WAT     H123684   4.541   7.824   0.333
 7814WAT     H223685   4.516   7.680   0.406
 7815WAT      O23686   0.988   0.059   3.476
 7815WAT     H123687   1.080   0.054   3.437
 7815WAT     H223688   0.931   0.118   3.419
 7816WAT      O23689   0.658   3.499   8.420
 7816WAT     H123690   0.681   3.589   8.457
 7816WAT     H223691   0.559   3.484   8.428
 7817WAT      O23692   3.730   6.615   9.096
 7817WAT     H123693   3.730   6.531   9.151
 7817WAT     H223694   3.715   6.592   9.000
 7818WAT      O23695   9.754   1.279   2.195
 7818WAT     H123696   9.658   1.262   2.217
 7818WAT     H223697   9.806   1.288   2.280
 7819WAT      O23698   2.973   0.858   8.848
 7819WAT     H123699   3.042   0.822   8.784
 7819WAT     H223700   3.009   0.853   8.941
 7820WAT      O23701   4.279   7.708   5.976
 7820WAT     H123702   4.326   7.727   5.889
 7820WAT     H223703   4.180   7.706   5.961
 7821WAT      O23704   6.366   8.124   5.666
 7821WAT     H123705   6.321   8.179   5.737
 7821WAT     H223706   6.362   8.028   5.692
 7822WAT      O23707   7.611   8.203   8.482
 7822WAT     H123708   7.522   8.249   8.485
 7822WAT     H223709   7.676   8.253   8.538
 7823WAT      O23710   3.928   4.907   8.544
 7823WAT     H123711   3.964   4.819   8.512
 7823WAT     H223712   3.926   4.972   8.467
 7824WAT      O23713   6.752   4.410   7.954
 7824WAT     H123714   6.779   4.446   8.043
 7824WAT     H223715   6.723   4.315   7.963
 7825WAT      O23716   1.263   0.226   0.171
 7825WAT     H123717   1.177   0.226   0.222
 7825WAT     H223718   1.258   0.295   0.098
 7826WAT      O23719   1.492   8.681   6.434
 7826WAT     H123720   1.484   8.603   6.372
 7826WAT     H223721   1.460   8.764   6.389
 7827WAT      O23722   9.153   7.015   1.706
 7827WAT     H123723   9.109   6.950   1.645
 7827WAT     H223724   9.190   7.091   1.653
 7828WAT      O23725   8.911   1.197   1.985
 7828WAT     H123726   8.913   1.280   2.040
 7828WAT     H223727   8.953   1.215   1.895
 7829WAT      O23728   9.018   5.345   4.730
 7829WAT     H123729   8.991   5.250   4.716
 7829WAT     H223730   9.039   5.387   4.641
 7830WAT      O23731   9.097   4.601   9.181
 7830WAT     H123732   9.081   4.698   9.203
 7830WAT     H223733   9.155   4.595   9.101
 7831WAT      O23734   2.413   0.207   6.517
 7831WAT     H123735   2.431   0.111   6.492
 7831WAT     H223736   2.478   0.236   6.587
 7832WAT      O23737   3.516   2.238   8.497
 7832WAT     H123738   3.542   2.334   8.488
 7832WAT     H223739   3.491   2.203   8.407
 7833WAT      O23740   1.179   6.964   7.384
 7833WAT     H123741   1.238   6.919   7.318
 7833WAT     H223742   1.174   6.909   7.468
 7834WAT      O23743   7.282   4.500   1.120
 7834WAT     H123744   7.365   4.445   1.115
 7834WAT     H223745   7.203   4.442   1.100
 7835WAT      O23746   7.697   7.664   6.828
 7835WAT     H123747   7.782   7.614   6.842
 7835WAT     H223748   7.668   7.655   6.733
 7836WAT      O23749   4.538   6.659   1.221
 7836WAT     H123750   4.469   6.731   1.220
 7836WAT     H223751   4.586   6.658   1.133
 7837WAT      O23752   8.627   3.326   3.160
 7837WAT     H123753   8.662   3.367   3.244
 7837WAT     H223754   8.531   3.353   3.146
 7838WAT      O23755   4.444   7.438   5.035
 7838WAT     H123756   4.501   7.406   4.960
 7838WAT     H223757   4.415   7.360   5.091
 7839WAT      O23758   0.393   6.555   0.133
 7839WAT     H123759   0.385   6.580   0.230
 7839WAT     H223760   0.459   6.617   0.089
 7840WAT      O23761   1.456   4.970   7.303
 7840WAT     H123762   1.528   4.937   7.241
 7840WAT     H223763   1.367   4.957   7.259
 7841WAT      O23764   2.338   0.255   8.605
 7841WAT     H123765   2.255   0.231   8.654
 7841WAT     H223766   2.335   0.351   8.578
 7842WAT      O23767   7.488   9.790   8.214
 7842WAT     H123768   7.538   9.747   8.289
 7842WAT     H223769   7.548   9.799   8.135
 7843WAT      O23770   7.773   9.124   4.833
 7843WAT     H123771   7.829   9.077   4.902
 7843WAT     H223772   7.681   9.137   4.868
 7844WAT      O23773   8.371   4.288   7.694
 7844WAT     H123774   8.275   4.304   7.672
 7844WAT     H223775   8.384   4.191   7.717
 7845WAT      O23776   0.822   3.196   6.965
 7845WAT     H123777   0.753   3.268   6.974
 7845WAT     H223778   0.814   3.132   7.041
 7846WAT      O23779   6.579   5.863   4.994
 7846WAT     H123780   6.602   5.954   5.029
 7846WAT     H223781   6.648   5.797   5.025
 7847WAT      O23782   1.124   3.766   0.988
 7847WAT     H123783   1.147   3.805   0.899
 7847WAT     H223784   1.181   3.685   1.005
 7848WAT      O23785   8.405   7.222   4.563
 7848WAT     H123786   8.461   7.302   4.586
 7848WAT     H223787   8.405   7.157   4.639
 7849WAT      O23788   8.081   3.444   8.622
 7849WAT     H123789   8.036   3.392   8.694
 7849WAT     H223790   8.033   3.530   8.606
 7850WAT      O23791   3.746   5.325   8.032
 7850WAT     H123792   3.834   5.373   8.037
 7850WAT     H223793   3.721   5.311   7.937
 7851WAT      O23794   0.760   2.358   2.158
 7851WAT     H123795   0.748   2.456   2.143
 7851WAT     H223796   0.714   2.331   2.242
 7852WAT      O23797   8.254   4.573   1.332
 7852WAT     H123798   8.285   4.479   1.349
 7852WAT     H223799   8.313   4.637   1.381
 7853WAT      O23800   9.541   3.971   1.508
 7853WAT     H123801   9.451   3.928   1.514
 7853WAT     H223802   9.550   4.020   1.421
 7854WAT      O23803   6.276   9.720   6.689
 7854WAT     H123804   6.258   9.682   6.779
 7854WAT     H223805   6.309   9.814   6.698
 7855WAT      O23806   1.925   8.801   9.445
 7855WAT     H123807   1.886   8.777   9.356
 7855WAT     H223808   2.022   8.774   9.447
 7856WAT      O23809   7.690   4.386   2.626
 7856WAT     H123810   7.786   4.402   2.604
 7856WAT     H223811   7.665   4.292   2.605
 7857WAT      O23812   9.782   4.997   5.203
 7857WAT     H123813   9.688   5.021   5.228
 7857WAT     H223814   9.781   4.940   5.122
 7858WAT      O23815   9.303   6.395   1.917
 7858WAT     H123816   9.246   6.424   1.994
 7858WAT     H223817   9.330   6.475   1.863
 7859WAT      O23818   0.128   7.537   6.530
 7859WAT     H123819   0.130   7.553   6.432
 7859WAT     H223820   0.139   7.624   6.579
 7860WAT      O23821   0.830   5.238   1.260
 7860WAT     H123822   0.922   5.274   1.273
 7860WAT     H223823   0.833   5.138   1.262
 7861WAT      O23824   7.254   5.455   9.799
 7861WAT     H123825   7.316   5.477   9.874
 7861WAT     H223826   7.293   5.487   9.713
 7862WAT      O23827   2.388   1.104   9.322
 7862WAT     H123828   2.413   1.055   9.238
 7862WAT     H223829   2.311   1.165   9.303
 7863WAT      O23830   3.230   5.840   0.298
 7863WAT     H123831   3.209   5.758   0.245
 7863WAT     H223832   3.161   5.852   0.370
 7864WAT      O23833   0.949   3.362   3.510
 7864WAT     H123834   0.911   3.430   3.448
 7864WAT     H223835   0.902   3.366   3.598
 7865WAT      O23836   0.777   2.141   0.340
 7865WAT     H123837   0.710   2.078   0.379
 7865WAT     H223838   0.763   2.147   0.241
 7866WAT      O23839   9.410   1.965   4.632
 7866WAT     H123840   9.486   1.958   4.568
 7866WAT     H223841   9.328   1.924   4.592
 7867WAT      O23842   7.469   3.007   4.106
 7867WAT     H123843   7.447   2.973   4.015
 7867WAT     H223844   7.567   3.027   4.112
 7868WAT      O23845   1.227   6.434   5.264
 7868WAT     H123846   1.186   6.391   5.183
 7868WAT     H223847   1.302   6.377   5.298
 7869WAT      O23848   4.751   4.990   3.560
 7869WAT     H123849   4.753   5.047   3.478
 7869WAT     H223850   4.661   4.994   3.602
 7870WAT      O23851   2.868   3.602   1.233
 7870WAT     H123852   2.775   3.609   1.270
 7870WAT     H223853   2.932   3.583   1.307
 7871WAT      O23854   4.787   2.880   6.283
 7871WAT     H123855   4.697   2.898   6.244
 7871WAT     H223856   4.777   2.818   6.362
 7872WAT      O23857   5.054   1.376   0.302
 7872WAT     H123858   5.139   1.408   0.345
 7872WAT     H223859   5.021   1.446   0.239
 7873WAT      O23860   5.519   0.364   2.470
 7873WAT     H123861   5.427   0.377   2.434
 7873WAT     H223862   5.526   0.274   2.513
 7874WAT      O23863   1.424   8.708   0.649
 7874WAT     H123864   1.403   8.764   0.730
 7874WAT     H223865   1.523   8.700   0.640
 7875WAT      O23866   9.722   3.063   6.857
 7875WAT     H123867   9.801   3.001   6.859
 7875WAT     H223868   9.713   3.103   6.766
 7876WAT      O23869   3.718   1.157   7.870
 7876WAT     H123870   3.779   1.106   7.931
 7876WAT     H223871   3.772   1.203   7.800
 7877WAT      O23872   6.171   3.588   1.721
 7877WAT     H123873   6.202   3.683   1.708
 7877WAT     H223874   6.250   3.530   1.740
 7878WAT      O23875   8.702   9.785   4.786
 7878WAT     H123876   8.644   9.861   4.815
 7878WAT     H223877   8.661   9.740   4.706
 7879WAT      O23878   0.714   2.291   1.836
 7879WAT     H123879   0.632   2.262   1.885
 7879WAT     H223880   0.728   2.389   1.850
 7880WAT      O23881   4.182   9.288   5.116
 7880WAT     H123882   4.205   9.206   5.169
 7880WAT     H223883   4.142   9.356   5.178
 7881WAT      O23884   9.221   6.021   1.117
 7881WAT     H123885   9.236   6.054   1.210
 7881WAT     H223886   9.299   6.046   1.060
 7882WAT      O23887   2.657   4.578   8.030
 7882WAT     H123888   2.577   4.614   7.982
 7882WAT     H223889   2.723   4.543   7.963
 7883WAT      O23890   0.217   7.329   4.751
 7883WAT     H123891   0.263   7.402   4.701
 7883WAT     H223892   0.275   7.300   4.828
 7884WAT      O23893   2.418   0.224   6.119
 7884WAT     H123894   2.367   0.149   6.075
 7884WAT     H223895   2.354   0.285   6.165
 7885WAT      O23896   9.055   2.227   8.366
 7885WAT     H123897   9.143   2.219   8.413
 7885WAT     H223898   9.047   2.318   8.325
 7886WAT      O23899   3.737   4.399   4.056
 7886WAT     H123900   3.704   4.416   3.963
 7886WAT     H223901   3.828   4.359   4.052
 7887WAT      O23902   6.314   8.808   7.065
 7887WAT     H123903   6.241   8.874   7.047
 7887WAT     H223904   6.395   8.855   7.098
 7888WAT      O23905   7.184   4.044   8.025
 7888WAT     H123906   7.159   4.005   8.114
 7888WAT     H223907   7.116   4.113   7.999
 7889WAT      O23908   3.141   0.423   3.239
 7889WAT     H123909   3.078   0.434   3.316
 7889WAT     H223910   3.229   0.463   3.263
 7890WAT      O23911   3.594   3.186   0.205
 7890WAT     H123912   3.620   3.145   0.117
 7890WAT     H223913   3.602   3.117   0.277
 7891WAT      O23914   0.153   6.174   5.891
 7891WAT     H123915   0.232   6.217   5.847
 7891WAT     H223916   0.125   6.094   5.837
 7892WAT      O23917   0.826   1.820   6.723
 7892WAT     H123918   0.806   1.863   6.635
 7892WAT     H223919   0.913   1.770   6.717
 7893WAT      O23920   2.832   2.660   1.451
 7893WAT     H123921   2.910   2.597   1.459
 7893WAT     H223922   2.800   2.685   1.542
 7894WAT      O23923   4.564   7.956   5.926
 7894WAT     H123924   4.489   8.007   5.970
 7894WAT     H223925   4.624   8.019   5.878
 7895WAT      O23926   3.214   9.243   0.836
 7895WAT     H123927   3.235   9.256   0.933
 7895WAT     H223928   3.157   9.161   0.825
 7896WAT      O23929   0.702   5.785   9.369
 7896WAT     H123930   0.695   5.876   9.410
 7896WAT     H223931   0.677   5.716   9.437
 7897WAT      O23932   1.149   1.819   5.099
 7897WAT     H123933   1.235   1.774   5.076
 7897WAT     H223934   1.162   1.877   5.180
 7898WAT      O23935   5.372   5.676   6.439
 7898WAT     H123936   5.352   5.590   6.485
 7898WAT     H223937   5.367   5.663   6.340
 7899WAT      O23938   3.360   1.030   2.641
 7899WAT     H123939   3.305   0.948   2.621
 7899WAT     H223940   3.304   1.111   2.630
 7900WAT      O23941   2.869   7.720   5.631
 7900WAT     H123942   2.968   7.706   5.634
 7900WAT     H223943   2.849   7.817   5.617
 7901WAT      O23944   4.399   7.645   0.097
 7901WAT     H123945   4.420   7.669   0.192
 7901WAT     H223946   4.477   7.597   0.057
 7902WAT      O23947   5.299   0.443   2.330
 7902WAT     H123948   5.334   0.463   2.239
 7902WAT     H223949   5.217   0.498   2.347
 7903WAT      O23950   0.029   4.245   5.706
 7903WAT     H123951   0.048   4.221   5.610
 7903WAT     H223952   0.069   4.333   5.727
 7904WAT      O23953   1.793   4.826   0.354
 7904WAT     H123954   1.756   4.793   0.267
 7904WAT     H223955   1.812   4.924   0.347
 7905WAT      O23956   7.163   6.361   8.003
 7905WAT     H123957   7.236   6.293   8.005
 7905WAT     H223958   7.178   6.424   7.927
 7906WAT      O23959   9.112   7.633   8.253
 7906WAT     H123960   9.136   7.587   8.168
 7906WAT     H223961   9.162   7.719   8.261
 7907WAT      O23962   5.067   5.973   4.528
 7907WAT     H123963   5.029   5.917   4.602
 7907WAT     H223964   5.160   6.002   4.553
 7908WAT      O23965   9.807   6.093   6.931
 7908WAT     H123966   9.845   6.011   6.972
 7908WAT     H223967   9.722   6.071   6.883
 7909WAT      O23968   9.448   8.658   7.012
 7909WAT     H123969   9.430   8.560   7.017
 7909WAT     H223970   9.484   8.690   7.100
 7910WAT      O23971   9.493   7.752   6.387
 7910WAT     H123972   9.519   7.818   6.457
 7910WAT     H223973   9.552   7.763   6.307
 7911WAT      O23974   0.381   1.196   3.968
 7911WAT     H123975   0.468   1.221   4.009
 7911WAT     H223976   0.337   1.125   4.023
 7912WAT      O23977   3.435   2.894   0.652
 7912WAT     H123978   3.495   2.815   0.647
 7912WAT     H223979   3.482   2.976   0.619
 7913WAT      O23980   4.180   4.038   7.437
 7913WAT     H123981   4.230   4.047   7.523
 7913WAT     H223982   4.245   4.027   7.362
 7914WAT      O23983   8.664   2.458   0.938
 7914WAT     H123984   8.583   2.477   0.994
 7914WAT     H223985   8.727   2.536   0.942
 7915WAT      O23986   0.907   2.852   8.001
 7915WAT     H123987   0.879   2.943   8.033
 7915WAT     H223988   0.851   2.782   8.046
 7916WAT      O23989   8.913   3.119   1.439
 7916WAT     H123990   8.859   3.064   1.502
 7916WAT     H223991   8.871   3.209   1.430
 7917WAT      O23992   1.627   1.022   4.104
 7917WAT     H123993   1.636   1.119   4.084
 7917WAT     H223994   1.704   0.973   4.063
 7918WAT      O23995   7.443   3.466   3.113
 7918WAT     H123996   7.377   3.410   3.064
 7918WAT     H223997   7.405   3.492   3.202
 7919WAT      O23998   3.212   0.427   0.749
 7919WAT     H123999   3.307   0.398   0.753
 7919WAT     H224000   3.187   0.446   0.654
 7920WAT      O24001   5.005   5.268   8.476
 7920WAT     H124002   4.978   5.192   8.417
 7920WAT     H224003   4.995   5.242   8.572
 7921WAT      O24004   7.711   4.268   0.140
 7921WAT     H124005   7.640   4.200   0.122
 7921WAT     H224006   7.782   4.227   0.198
 7922WAT      O24007   9.534   3.501   0.483
 7922WAT     H124008   9.517   3.546   0.395
 7922WAT     H224009   9.555   3.569   0.552
 7923WAT      O24010   6.715   3.816   1.760
 7923WAT     H124011   6.666   3.871   1.693
 7923WAT     H224012   6.750   3.875   1.833
 7924WAT      O24013   7.016   2.735   4.731
 7924WAT     H124014   6.931   2.684   4.740
 7924WAT     H224015   7.058   2.748   4.821
 7925WAT      O24016   0.584   3.054   5.526
 7925WAT     H124017   0.515   3.108   5.478
 7925WAT     H224018   0.540   2.998   5.596
 7926WAT      O24019   2.875   6.762   0.766
 7926WAT     H124020   2.952   6.812   0.806
 7926WAT     H224021   2.814   6.827   0.720
 7927WAT      O24022   3.812   0.159   8.101
 7927WAT     H124023   3.836   0.254   8.121
 7927WAT     H224024   3.790   0.111   8.187
 7928WAT      O24025   7.737   2.491   5.996
 7928WAT     H124026   7.649   2.444   5.998
 7928WAT     H224027   7.724   2.582   5.956
 7929WAT      O24028   5.607   8.348   2.903
 7929WAT     H124029   5.685   8.401   2.869
 7929WAT     H224030   5.551   8.406   2.961
 7930WAT      O24031   4.621   5.427   9.886
 7930WAT     H124032   4.671   5.499   9.837
 7930WAT     H224033   4.529   5.418   9.847
 7931WAT      O24034   8.723   9.281   0.397
 7931WAT     H124035   8.775   9.202   0.366
 7931WAT     H224036   8.634   9.282   0.351
 7932WAT      O24037   2.808   7.001   9.723
 7932WAT     H124038   2.760   6.932   9.669
 7932WAT     H224039   2.794   6.984   9.820
 7933WAT      O24040   7.472   8.913   3.378
 7933WAT     H124041   7.535   8.945   3.307
 7933WAT     H224042   7.477   8.814   3.385
 7934WAT      O24043   6.183   3.274   6.890
 7934WAT     H124044   6.236   3.339   6.945
 7934WAT     H224045   6.089   3.307   6.881
 7935WAT      O24046   3.130   5.082   3.542
 7935WAT     H124047   3.214   5.129   3.568
 7935WAT     H224048   3.152   5.007   3.480
 7936WAT      O24049   3.684   0.173   0.891
 7936WAT     H124050   3.605   0.234   0.891
 7936WAT     H224051   3.680   0.112   0.812
 7937WAT      O24052   7.862   0.613   0.318
 7937WAT     H124053   7.944   0.561   0.293
 7937WAT     H224054   7.780   0.562   0.292
 7938WAT      O24055   3.963   1.673   6.494
 7938WAT     H124056   4.003   1.600   6.548
 7938WAT     H224057   4.035   1.735   6.463
 7939WAT      O24058   8.758   5.959   9.645
 7939WAT     H124059   8.728   5.890   9.710
 7939WAT     H224060   8.855   5.946   9.623
 7940WAT      O24061   6.113   5.928   0.451
 7940WAT     H124062   6.185   5.983   0.492
 7940WAT     H224063   6.140   5.832   0.452
 7941WAT      O24064   0.441   4.314   9.100
 7941WAT     H124065   0.412   4.253   9.026
 7941WAT     H224066   0.382   4.395   9.102
 7942WAT      O24067   3.826   4.586   7.647
 7942WAT     H124068   3.785   4.594   7.556
 7942WAT     H224069   3.871   4.671   7.671
 7943WAT      O24070   7.189   9.814   9.552
 7943WAT     H124071   7.287   9.820   9.538
 7943WAT     H224072   7.170   9.769   9.639
 7944WAT      O24073   4.019   5.480   2.585
 7944WAT     H124074   4.095   5.432   2.630
 7944WAT     H224075   3.936   5.471   2.640
 7945WAT      O24076   7.117   5.541   6.027
 7945WAT     H124077   7.126   5.639   6.043
 7945WAT     H224078   7.101   5.494   6.113
 7946WAT      O24079   5.984   2.116   4.542
 7946WAT     H124080   5.944   2.183   4.479
 7946WAT     H224081   6.083   2.131   4.549
 7947WAT      O24082   5.981   2.284   4.150
 7947WAT     H124083   6.069   2.316   4.113
 7947WAT     H224084   5.980   2.184   4.151
 7948WAT      O24085   1.340   9.673   0.694
 7948WAT     H124086   1.304   9.761   0.725
 7948WAT     H224087   1.269   9.625   0.642
 7949WAT      O24088   3.797   8.675   3.386
 7949WAT     H124089   3.741   8.746   3.345
 7949WAT     H224090   3.796   8.685   3.486
 7950WAT      O24091   7.434   8.474   9.707
 7950WAT     H124092   7.506   8.421   9.663
 7950WAT     H224093   7.449   8.572   9.692
 7951WAT      O24094   2.762   7.745   5.339
 7951WAT     H124095   2.691   7.763   5.271
 7951WAT     H224096   2.769   7.822   5.401
 7952WAT      O24097   7.273   5.217   1.096
 7952WAT     H124098   7.244   5.295   1.152
 7952WAT     H224099   7.205   5.202   1.024
 7953WAT      O24100   3.662   9.768   2.783
 7953WAT     H124101   3.666   9.760   2.684
 7953WAT     H224102   3.696   9.858   2.811
 7954WAT      O24103   1.879   8.424   1.156
 7954WAT     H124104   1.838   8.393   1.071
 7954WAT     H224105   1.954   8.487   1.135
 7955WAT      O24106   6.328   5.831   3.557
 7955WAT     H124107   6.406   5.769   3.567
 7955WAT     H224108   6.247   5.790   3.599
 7956WAT      O24109   7.851   5.883   9.372
 7956WAT     H124110   7.754   5.863   9.358
 7956WAT     H224111   7.897   5.891   9.283
 7957WAT      O24112   3.428   6.203   5.235
 7957WAT     H124113   3.510   6.249   5.269
 7957WAT     H224114   3.434   6.195   5.135
 7958WAT      O24115   4.970   2.300   3.874
 7958WAT     H124116   4.993   2.343   3.962
 7958WAT     H224117   4.873   2.315   3.855
 7959WAT      O24118   1.981   4.600   5.298
 7959WAT     H124119   1.899   4.586   5.354
 7959WAT     H224120   1.965   4.673   5.232
 7960WAT      O24121   2.201   1.168   1.572
 7960WAT     H124122   2.279   1.117   1.535
 7960WAT     H224123   2.120   1.148   1.517
 7961WAT      O24124   1.957   1.435   8.275
 7961WAT     H124125   2.007   1.520   8.259
 7961WAT     H224126   1.887   1.423   8.204
 7962WAT      O24127   9.799   4.153   1.018
 7962WAT     H124128   9.802   4.210   0.936
 7962WAT     H224129   9.888   4.110   1.032
 7963WAT      O24130   4.106   4.111   4.859
 7963WAT     H124131   4.090   4.165   4.776
 7963WAT     H224132   4.100   4.170   4.939
 7964WAT      O24133   5.907   7.663   6.900
 7964WAT     H124134   5.913   7.604   6.820
 7964WAT     H224135   5.812   7.691   6.915
 7965WAT      O24136   6.017   2.967   0.263
 7965WAT     H124137   5.944   2.929   0.319
 7965WAT     H224138   5.980   3.042   0.208
 7966WAT      O24139   8.093   3.441   7.788
 7966WAT     H124140   7.997   3.447   7.814
 7966WAT     H224141   8.125   3.530   7.755
 7967WAT      O24142   5.581   7.347   7.296
 7967WAT     H124143   5.514   7.312   7.361
 7967WAT     H224144   5.597   7.444   7.315
 7968WAT      O24145   2.717   4.509   4.954
 7968WAT     H124146   2.678   4.535   5.042
 7968WAT     H224147   2.653   4.450   4.905
 7969WAT      O24148   4.616   1.533   3.352
 7969WAT     H124149   4.652   1.525   3.259
 7969WAT     H224150   4.589   1.628   3.369
 7970WAT      O24151   5.810   8.516   3.496
 7970WAT     H124152   5.847   8.511   3.404
 7970WAT     H224153   5.743   8.443   3.509
 7971WAT      O24154   7.407   9.270   0.158
 7971WAT     H124155   7.478   9.322   0.205
 7971WAT     H224156   7.369   9.201   0.219
 7972WAT      O24157   0.376   1.181   6.393
 7972WAT     H124158   0.291   1.132   6.411
 7972WAT     H224159   0.405   1.229   6.475
 7973WAT      O24160   1.795   7.426   5.135
 7973WAT     H124161   1.726   7.487   5.173
 7973WAT     H224162   1.750   7.350   5.088
 7974WAT      O24163   5.489   8.998   1.746
 7974WAT     H124164   5.574   8.954   1.774
 7974WAT     H224165   5.428   8.929   1.707
 7975WAT      O24166   6.080   1.705   6.854
 7975WAT     H124167   5.985   1.712   6.883
 7975WAT     H224168   6.084   1.667   6.762
 7976WAT      O24169   9.591   8.198   0.025
 7976WAT     H124170   9.527   8.137  -0.023
 7976WAT     H224171   9.546   8.235   0.106
 7977WAT      O24172   9.803   9.114   2.251
 7977WAT     H124173   9.796   9.023   2.290
 7977WAT     H224174   9.736   9.174   2.293
 7978WAT      O24175   7.092   4.690   2.505
 7978WAT     H124176   7.129   4.713   2.595
 7978WAT     H224177   7.112   4.594   2.485
 7979WAT      O24178   9.550   6.765   3.519
 7979WAT     H124179   9.625   6.810   3.470
 7979WAT     H224180   9.474   6.749   3.456
 7980WAT      O24181   5.575   8.208   4.766
 7980WAT     H124182   5.663   8.254   4.753
 7980WAT     H224183   5.510   8.272   4.807
 7981WAT      O24184   7.171   1.055   3.767
 7981WAT     H124185   7.088   1.059   3.822
 7981WAT     H224186   7.251   1.052   3.827
 7982WAT      O24187   0.032   3.828   1.349
 7982WAT     H124188   0.094   3.750   1.344
 7982WAT     H224189  -0.049   3.803   1.401
 7983WAT      O24190   5.158   6.426   5.151
 7983WAT     H124191   5.059   6.418   5.138
 7983WAT     H224192   5.178   6.457   5.244
 7984WAT      O24193   6.507   8.323   6.806
 7984WAT     H124194   6.567   8.399   6.781
 7984WAT     H224195   6.451   8.297   6.727
 7985WAT      O24196   0.636   8.317   8.801
 7985WAT     H124197   0.607   8.254   8.873
 7985WAT     H224198   0.564   8.385   8.785
 7986WAT      O24199   2.752   8.349   1.621
 7986WAT     H124200   2.733   8.291   1.700
 7986WAT     H224201   2.833   8.405   1.640
 7987WAT      O24202   2.062   4.264   5.466
 7987WAT     H124203   2.067   4.348   5.520
 7987WAT     H224204   2.080   4.285   5.370
 7988WAT      O24205   4.881   7.370   4.560
 7988WAT     H124206   4.849   7.276   4.560
 7988WAT     H224207   4.891   7.402   4.655
 7989WAT      O24208   7.104   0.007   1.201
 7989WAT     H124209   7.196   0.023   1.238
 7989WAT     H224210   7.076  -0.087   1.221
 7990WAT      O24211   5.635   9.145   9.607
 7990WAT     H124212   5.637   9.229   9.551
 7990WAT     H224213   5.709   9.085   9.577
 7991WAT      O24214   7.009   7.397   3.937
 7991WAT     H124215   7.006   7.495   3.958
 7991WAT     H224216   7.031   7.385   3.840
 7992WAT      O24217   6.197   1.049   3.000
 7992WAT     H124218   6.161   1.116   2.935
 7992WAT     H224219   6.295   1.038   2.985
 7993WAT      O24220   0.478   5.564   2.966
 7993WAT     H124221   0.549   5.493   2.963
 7993WAT     H224222   0.389   5.521   2.983
 7994WAT      O24223   5.179   8.300   4.985
 7994WAT     H124224   5.173   8.366   5.060
 7994WAT     H224225   5.116   8.224   5.003
 7995WAT      O24226   0.094   3.062   4.941
 7995WAT     H124227   0.106   2.975   4.988
 7995WAT     H224228   0.056   3.046   4.849
 7996WAT      O24229   8.240   7.518   6.636
 7996WAT     H124230   8.272   7.539   6.544
 7996WAT     H224231   8.317   7.524   6.700
 7997WAT      O24232   7.875   0.569   5.743
 7997WAT     H124233   7.944   0.539   5.676
 7997WAT     H224234   7.894   0.664   5.770
 7998WAT      O24235   6.785   4.339   4.358
 7998WAT     H124236   6.847   4.344   4.436
 7998WAT     H224237   6.699   4.385   4.381
 7999WAT      O24238   8.073   2.405   8.081
 7999WAT     H124239   8.128   2.485   8.053
 7999WAT     H224240   8.064   2.404   8.180
 8000WAT      O24241   0.690   4.209   4.831
 8000WAT     H124242   0.695   4.277   4.904
 8000WAT     H224243   0.777   4.207   4.782
 8001WAT      O24244   4.912   8.208   7.840
 8001WAT     H124245   4.890   8.110   7.834
 8001WAT     H224246   4.859   8.258   7.772
 8002WAT      O24247   1.400   4.135   3.129
 8002WAT     H124248   1.421   4.038   3.134
 8002WAT     H224249   1.430   4.172   3.041
 8003WAT      O24250   9.191   2.454   5.070
 8003WAT     H124251   9.151   2.546   5.062
 8003WAT     H224252   9.279   2.452   5.023
 8004WAT      O24253   3.032   7.024   5.744
 8004WAT     H124254   3.021   6.948   5.681
 8004WAT     H224255   2.989   7.106   5.705
 8005WAT      O24256   4.616   6.991   9.320
 8005WAT     H124257   4.648   7.069   9.266
 8005WAT     H224258   4.520   6.972   9.298
 8006WAT      O24259   1.065   0.575   0.996
 8006WAT     H124260   0.995   0.544   1.060
 8006WAT     H224261   1.024   0.595   0.908
 8007WAT      O24262   9.332   1.894   0.289
 8007WAT     H124263   9.240   1.931   0.276
 8007WAT     H224264   9.327   1.797   0.312
 8008WAT      O24265   5.530   1.921   5.041
 8008WAT     H124266   5.492   1.894   5.129
 8008WAT     H224267   5.521   1.846   4.976
 8009WAT      O24268   9.491   1.550   1.234
 8009WAT     H124269   9.438   1.627   1.271
 8009WAT     H224270   9.433   1.496   1.173
 8010WAT      O24271   4.456   6.628   5.079
 8010WAT     H124272   4.395   6.553   5.054
 8010WAT     H224273   4.403   6.712   5.087
 8011WAT      O24274   9.656   6.761   2.599
 8011WAT     H124275   9.706   6.719   2.674
 8011WAT     H224276   9.558   6.751   2.615
 8012WAT      O24277   4.892   2.987   2.171
 8012WAT     H124278   4.844   2.959   2.088
 8012WAT     H224279   4.974   2.933   2.182
 8013WAT      O24280   2.273   8.894   5.838
 8013WAT     H124281   2.192   8.888   5.897
 8013WAT     H224282   2.252   8.855   5.748
 8014WAT      O24283   4.988   7.313   9.682
 8014WAT     H124284   4.915   7.245   9.684
 8014WAT     H224285   5.056   7.286   9.613
 8015WAT      O24286   2.103   1.178   4.280
 8015WAT     H124287   2.095   1.120   4.199
 8015WAT     H224288   2.153   1.262   4.255
 8016WAT      O24289   6.764   4.833   9.859
 8016WAT     H124290   6.837   4.885   9.902
 8016WAT     H224291   6.753   4.862   9.764
 8017WAT      O24292   7.391   8.557   1.317
 8017WAT     H124293   7.380   8.499   1.236
 8017WAT     H224294   7.302   8.588   1.349
 8018WAT      O24295   5.709   4.211   6.544
 8018WAT     H124296   5.780   4.157   6.498
 8018WAT     H224297   5.620   4.165   6.534
 8019WAT      O24298   2.544   2.854   2.323
 8019WAT     H124299   2.532   2.846   2.225
 8019WAT     H224300   2.619   2.917   2.343
 8020WAT      O24301   0.873   4.476   6.469
 8020WAT     H124302   0.854   4.560   6.519
 8020WAT     H224303   0.972   4.461   6.465
 8021WAT      O24304   4.671   8.152   5.772
 8021WAT     H124305   4.618   8.219   5.720
 8021WAT     H224306   4.708   8.195   5.855
 8022WAT      O24307   6.877   9.460   7.032
 8022WAT     H124308   6.867   9.541   6.975
 8022WAT     H224309   6.973   9.431   7.033
 8023WAT      O24310   2.659   9.364   8.817
 8023WAT     H124311   2.732   9.420   8.858
 8023WAT     H224312   2.578   9.368   8.875
 8024WAT      O24313   9.289   6.309   7.823
 8024WAT     H124314   9.288   6.210   7.814
 8024WAT     H224315   9.279   6.333   7.920
 8025WAT      O24316   0.151   5.781   6.388
 8025WAT     H124317   0.246   5.768   6.417
 8025WAT     H224318   0.097   5.810   6.466
 8026WAT      O24319   7.860   1.170   0.816
 8026WAT     H124320   7.767   1.162   0.779
 8026WAT     H224321   7.926   1.140   0.747
 8027WAT      O24322   5.484   8.488   1.743
 8027WAT     H124323   5.581   8.473   1.759
 8027WAT     H224324   5.470   8.582   1.710
 8028WAT      O24325   6.151   2.126   1.990
 8028WAT     H124326   6.143   2.224   2.011
 8028WAT     H224327   6.247   2.100   1.985
 8029WAT      O24328   0.619   6.550   8.437
 8029WAT     H124329   0.552   6.490   8.393
 8029WAT     H224330   0.578   6.593   8.518
 8030WAT      O24331   1.006   7.562   0.915
 8030WAT     H124332   1.105   7.562   0.900
 8030WAT     H224333   0.959   7.599   0.835
 8031WAT      O24334   5.544   3.201   6.611
 8031WAT     H124335   5.485   3.122   6.596
 8031WAT     H224336   5.632   3.187   6.566
 8032WAT      O24337   9.846   4.583   0.915
 8032WAT     H124338   9.834   4.651   0.843
 8032WAT     H224339   9.840   4.491   0.876
 8033WAT      O24340   7.936   7.787   6.245
 8033WAT     H124341   7.972   7.723   6.177
 8033WAT     H224342   7.889   7.862   6.198
 8034WAT      O24343   7.858   2.577   5.360
 8034WAT     H124344   7.853   2.527   5.273
 8034WAT     H224345   7.947   2.621   5.368
 8035WAT      O24346   8.256   9.384   4.979
 8035WAT     H124347   8.317   9.379   5.057
 8035WAT     H224348   8.221   9.477   4.969
 8036WAT      O24349   2.786   7.793   9.829
 8036WAT     H124350   2.791   7.717   9.895
 8036WAT     H224351   2.870   7.847   9.835
 8037WAT      O24352   0.063   8.674   1.729
 8037WAT     H124353   0.076   8.598   1.665
 8037WAT     H224354   0.078   8.761   1.682
 8038WAT      O24355   8.422   1.033   1.060
 8038WAT     H124356   8.425   1.014   0.962
 8038WAT     H224357   8.334   1.004   1.097
 8039WAT      O24358   3.160   8.395   7.189
 8039WAT     H124359   3.247   8.364   7.152
 8039WAT     H224360   3.176   8.455   7.268
 8040WAT      O24361   4.729   6.945   4.203
 8040WAT     H124362   4.637   6.905   4.204
 8040WAT     H224363   4.764   6.949   4.296
 8041WAT      O24364   6.531   6.043   9.237
 8041WAT     H124365   6.608   6.041   9.173
 8041WAT     H224366   6.524   5.956   9.285
 8042WAT      O24367   3.933   4.492   8.741
 8042WAT     H124368   3.949   4.423   8.811
 8042WAT     H224369   3.866   4.558   8.774
 8043WAT      O24370   6.151   6.866   1.315
 8043WAT     H124371   6.051   6.865   1.304
 8043WAT     H224372   6.174   6.919   1.397
 8044WAT      O24373   7.799   0.648   2.694
 8044WAT     H124374   7.897   0.633   2.690
 8044WAT     H224375   7.775   0.732   2.645
 8045WAT      O24376   9.374   7.058   0.407
 8045WAT     H124377   9.472   7.037   0.407
 8045WAT     H224378   9.327   6.996   0.469
 8046WAT      O24379   2.550   7.189   3.549
 8046WAT     H124380   2.592   7.135   3.622
 8046WAT     H224381   2.574   7.286   3.561
 8047WAT      O24382   5.183   6.100   3.806
 8047WAT     H124383   5.181   6.006   3.839
 8047WAT     H224384   5.108   6.152   3.848
 8048WAT      O24385   9.139   8.696  -0.001
 8048WAT     H124386   9.098   8.754   0.070
 8048WAT     H224387   9.227   8.662   0.031
 8049WAT      O24388   8.417   2.462   1.236
 8049WAT     H124389   8.406   2.536   1.170
 8049WAT     H224390   8.506   2.470   1.281
 8050WAT      O24391   0.544   1.827   5.190
 8050WAT     H124392   0.618   1.761   5.180
 8050WAT     H224393   0.503   1.845   5.101
 8051WAT      O24394   9.845   8.108   9.817
 8051WAT     H124395   9.757   8.142   9.850
 8051WAT     H224396   9.832   8.059   9.731
 8052WAT      O24397   4.276   3.775   6.401
 8052WAT     H124398   4.206   3.842   6.427
 8052WAT     H224399   4.282   3.704   6.471
 8053WAT      O24400   2.950   1.505   9.753
 8053WAT     H124401   3.003   1.511   9.837
 8053WAT     H224402   2.954   1.593   9.704
 8054WAT      O24403   4.177   6.036   7.433
 8054WAT     H124404   4.209   5.948   7.398
 8054WAT     H224405   4.077   6.038   7.430
 8055WAT      O24406   8.490   7.867   5.858
 8055WAT     H124407   8.534   7.926   5.925
 8055WAT     H224408   8.554   7.797   5.827
 8056WAT      O24409   2.904   7.116   2.527
 8056WAT     H124410   2.971   7.152   2.462
 8056WAT     H224411   2.870   7.028   2.494
 8057WAT      O24412   3.921   7.588   6.123
 8057WAT     H124413   3.974   7.551   6.047
 8057WAT     H224414   3.965   7.671   6.157
 8058WAT      O24415   5.024   0.945   4.390
 8058WAT     H124416   5.090   1.019   4.395
 8058WAT     H224417   5.049   0.883   4.316
 8059WAT      O24418   0.247   8.891   8.780
 8059WAT     H124419   0.341   8.924   8.782
 8059WAT     H224420   0.211   8.897   8.687
 8060WAT      O24421   9.285   1.824   7.951
 8060WAT     H124422   9.227   1.824   7.870
 8060WAT     H224423   9.239   1.873   8.025
 8061WAT      O24424   3.280   4.940   1.599
 8061WAT     H124425   3.257   4.845   1.577
 8061WAT     H224426   3.298   4.990   1.514
 8062WAT      O24427   9.070   9.095   1.752
 8062WAT     H124428   8.982   9.126   1.716
 8062WAT     H224429   9.060   9.073   1.849
 8063WAT      O24430   2.003   5.376   2.243
 8063WAT     H124431   2.103   5.377   2.243
 8063WAT     H224432   1.969   5.435   2.316
 8064WAT      O24433   2.434   5.892   9.404
 8064WAT     H124434   2.514   5.913   9.348
 8064WAT     H224435   2.386   5.813   9.366
 8065WAT      O24436   3.770   1.586   2.522
 8065WAT     H124437   3.684   1.626   2.554
 8065WAT     H224438   3.843   1.608   2.587
 8066WAT      O24439   0.003   2.352   7.874
 8066WAT     H124440  -0.069   2.317   7.934
 8066WAT     H224441   0.082   2.290   7.876
 8067WAT      O24442   3.901   3.197   9.749
 8067WAT     H124443   3.917   3.296   9.760
 8067WAT     H224444   3.920   3.170   9.655
 8068WAT      O24445   1.520   5.587   4.464
 8068WAT     H124446   1.558   5.648   4.394
 8068WAT     H224447   1.428   5.618   4.489
 8069WAT      O24448   7.183   8.618   3.115
 8069WAT     H124449   7.171   8.702   3.062
 8069WAT     H224450   7.135   8.627   3.202
 8070WAT      O24451   5.339   6.754   9.538
 8070WAT     H124452   5.363   6.734   9.443
 8070WAT     H224453   5.392   6.695   9.600
 8071WAT      O24454   8.726   8.193   5.382
 8071WAT     H124455   8.638   8.166   5.342
 8071WAT     H224456   8.712   8.274   5.440
 8072WAT      O24457   0.929   0.520   5.055
 8072WAT     H124458   1.004   0.535   4.991
 8072WAT     H224459   0.959   0.543   5.147
 8073WAT      O24460   4.576   7.423   8.436
 8073WAT     H124461   4.489   7.469   8.417
 8073WAT     H224462   4.576   7.391   8.531
 8074WAT      O24463   6.604   5.570   7.017
 8074WAT     H124464   6.573   5.599   7.107
 8074WAT     H224465   6.704   5.576   7.012
 8075WAT      O24466   8.550   3.928   6.755
 8075WAT     H124467   8.482   3.936   6.829
 8075WAT     H224468   8.627   3.874   6.787
 8076WAT      O24469   4.760   8.803   0.401
 8076WAT     H124470   4.688   8.785   0.334
 8076WAT     H224471   4.791   8.717   0.440
 8077WAT      O24472   6.896   6.917   2.420
 8077WAT     H124473   6.843   6.837   2.392
 8077WAT     H224474   6.860   6.952   2.507
 8078WAT      O24475   7.077   5.664   9.650
 8078WAT     H124476   7.093   5.738   9.715
 8078WAT     H224477   7.094   5.576   9.696
 8079WAT      O24478   3.438   6.802   9.052
 8079WAT     H124479   3.405   6.758   8.969
 8079WAT     H224480   3.504   6.873   9.028
 8080WAT      O24481   5.838   1.077   3.388
 8080WAT     H124482   5.865   1.024   3.308
 8080WAT     H224483   5.801   1.165   3.359
 8081WAT      O24484   4.181   8.321   3.643
 8081WAT     H124485   4.164   8.339   3.740
 8081WAT     H224486   4.278   8.338   3.623
 8082WAT      O24487   6.084   1.043   7.367
 8082WAT     H124488   6.003   0.988   7.387
 8082WAT     H224489   6.166   0.995   7.399
 8083WAT      O24490   7.001   2.203   4.797
 8083WAT     H124491   6.917   2.150   4.787
 8083WAT     H224492   7.061   2.157   4.863
 8084WAT      O24493   0.852   1.082   5.730
 8084WAT     H124494   0.907   1.000   5.710
 8084WAT     H224495   0.896   1.134   5.803
 8085WAT      O24496   5.108   9.479   4.495
 8085WAT     H124497   5.147   9.498   4.585
 8085WAT     H224498   5.034   9.412   4.504
 8086WAT      O24499   9.626   7.057   6.958
 8086WAT     H124500   9.662   6.965   6.973
 8086WAT     H224501   9.573   7.059   6.873
 8087WAT      O24502   2.555   7.688   2.006
 8087WAT     H124503   2.637   7.746   2.006
 8087WAT     H224504   2.581   7.593   1.988
 8088WAT      O24505   7.584   4.429   8.097
 8088WAT     H124506   7.506   4.483   8.064
 8088WAT     H224507   7.556   4.334   8.107
 8089WAT      O24508   6.221   0.379   3.981
 8089WAT     H124509   6.224   0.282   4.002
 8089WAT     H224510   6.295   0.402   3.918
 8090WAT      O24511   4.214   0.919   9.426
 8090WAT     H124512   4.201   0.852   9.500
 8090WAT     H224513   4.303   0.963   9.436
 8091WAT      O24514   2.670   6.822   1.007
 8091WAT     H124515   2.735   6.759   1.051
 8091WAT     H224516   2.718   6.903   0.975
 8092WAT      O24517   7.632   0.498   4.429
 8092WAT     H124518   7.573   0.417   4.424
 8092WAT     H224519   7.577   0.577   4.456
 8093WAT      O24520   9.874   9.499   0.531
 8093WAT     H124521   9.794   9.444   0.508
 8093WAT     H224522   9.901   9.480   0.625
 8094WAT      O24523   8.289   6.338   3.146
 8094WAT     H124524   8.321   6.267   3.210
 8094WAT     H224525   8.199   6.313   3.111
 8095WAT      O24526   4.473   0.934   2.257
 8095WAT     H124527   4.414   0.892   2.188
 8095WAT     H224528   4.545   0.986   2.212
 8096WAT      O24529   6.973   6.041   1.429
 8096WAT     H124530   6.922   5.967   1.472
 8096WAT     H224531   6.943   6.129   1.466
 8097WAT      O24532   3.436   0.240   0.985
 8097WAT     H124533   3.353   0.256   1.038
 8097WAT     H224534   3.446   0.142   0.968
 8098WAT      O24535   3.246   3.314   2.504
 8098WAT     H124536   3.152   3.292   2.479
 8098WAT     H224537   3.258   3.413   2.505
 8099WAT      O24538   7.241   7.248   7.910
 8099WAT     H124539   7.219   7.345   7.904
 8099WAT     H224540   7.208   7.211   7.997
 8100WAT      O24541   0.419   3.656   5.989
 8100WAT     H124542   0.451   3.751   5.986
 8100WAT     H224543   0.468   3.603   5.920
 8101WAT      O24544   3.975   8.945   2.320
 8101WAT     H124545   4.007   9.012   2.388
 8101WAT     H224546   3.963   8.856   2.363
 8102WAT      O24547   4.390   7.704   3.234
 8102WAT     H124548   4.369   7.708   3.136
 8102WAT     H224549   4.305   7.686   3.285
 8103WAT      O24550   9.750   2.662   3.613
 8103WAT     H124551   9.709   2.604   3.542
 8103WAT     H224552   9.834   2.703   3.578
 8104WAT      O24553   0.678   0.699   7.215
 8104WAT     H124554   0.721   0.613   7.188
 8104WAT     H224555   0.741   0.750   7.274
 8105WAT      O24556   3.574   7.905   2.587
 8105WAT     H124557   3.619   7.857   2.662
 8105WAT     H224558   3.591   8.003   2.595
 8106WAT      O24559   6.944   8.417   4.231
 8106WAT     H124560   6.908   8.382   4.144
 8106WAT     H224561   6.905   8.365   4.306
 8107WAT      O24562   5.643   9.580   4.952
 8107WAT     H124563   5.626   9.651   5.021
 8107WAT     H224564   5.577   9.506   4.965
 8108WAT      O24565   0.141   3.084   0.898
 8108WAT     H124566   0.093   3.023   0.835
 8108WAT     H224567   0.217   3.128   0.851
 8109WAT      O24568   7.366   8.175   6.664
 8109WAT     H124569   7.446   8.118   6.683
 8109WAT     H224570   7.288   8.117   6.640
 8110WAT      O24571   3.166   3.800   9.079
 8110WAT     H124572   3.191   3.880   9.133
 8110WAT     H224573   3.173   3.822   8.981
 8111WAT      O24574   7.784   7.365   4.693
 8111WAT     H124575   7.852   7.311   4.644
 8111WAT     H224576   7.798   7.462   4.672
 8112WAT      O24577   2.556   4.048   5.658
 8112WAT     H124578   2.512   3.974   5.709
 8112WAT     H224579   2.497   4.077   5.582
 8113WAT      O24580   4.660   3.867   9.743
 8113WAT     H124581   4.614   3.883   9.655
 8113WAT     H224582   4.644   3.945   9.804
 8114WAT      O24583   9.310   1.867   5.321
 8114WAT     H124584   9.358   1.827   5.399
 8114WAT     H224585   9.284   1.962   5.343
 8115WAT      O24586   7.659   6.609   8.343
 8115WAT     H124587   7.609   6.548   8.405
 8115WAT     H224588   7.704   6.681   8.395
 8116WAT      O24589   2.883   3.710   6.318
 8116WAT     H124590   2.935   3.660   6.388
 8116WAT     H224591   2.929   3.796   6.298
 8117WAT      O24592   9.496   5.472   0.894
 8117WAT     H124593   9.552   5.521   0.960
 8117WAT     H224594   9.527   5.377   0.888
 8118WAT      O24595   4.230   4.643   2.427
 8118WAT     H124596   4.288   4.561   2.431
 8118WAT     H224597   4.162   4.632   2.354
 8119WAT      O24598   3.745   1.937   3.240
 8119WAT     H124599   3.687   1.889   3.305
 8119WAT     H224600   3.710   2.029   3.226
 8120WAT      O24601   9.297   8.173   1.349
 8120WAT     H124602   9.306   8.137   1.442
 8120WAT     H224603   9.381   8.221   1.325
 8121WAT      O24604   4.472   8.253   3.247
 8121WAT     H124605   4.467   8.206   3.335
 8121WAT     H224606   4.553   8.221   3.197
 8122WAT      O24607   9.416   5.816   1.088
 8122WAT     H124608   9.319   5.793   1.094
 8122WAT     H224609   9.452   5.786   0.999
 8123WAT      O24610   2.030   4.267   4.484
 8123WAT     H124611   2.096   4.226   4.422
 8123WAT     H224612   1.939   4.233   4.464
 8124WAT      O24613   8.942   1.619   8.797
 8124WAT     H124614   8.873   1.546   8.791
 8124WAT     H224615   9.022   1.593   8.742
 8125WAT      O24616   2.727   7.650   4.094
 8125WAT     H124617   2.672   7.670   4.175
 8125WAT     H224618   2.724   7.729   4.033
 8126WAT      O24619   5.873   0.684   3.006
 8126WAT     H124620   5.854   0.781   2.992
 8126WAT     H224621   5.873   0.637   2.918
 8127WAT      O24622   7.929   3.376   8.261
 8127WAT     H124623   7.875   3.412   8.337
 8127WAT     H224624   7.903   3.281   8.243
 8128WAT      O24625   8.390   5.310   1.898
 8128WAT     H124626   8.420   5.387   1.955
 8128WAT     H224627   8.451   5.302   1.819
 8129WAT      O24628   0.025   7.294   1.939
 8129WAT     H124629  -0.057   7.342   1.909
 8129WAT     H224630   0.018   7.275   2.037
 8130WAT      O24631   5.511   7.185   1.838
 8130WAT     H124632   5.595   7.233   1.862
 8130WAT     H224633   5.487   7.122   1.911
 8131WAT      O24634   8.775   2.098   6.979
 8131WAT     H124635   8.809   2.116   6.887
 8131WAT     H224636   8.842   2.129   7.046
 8132WAT      O24637   6.570   4.501   4.457
 8132WAT     H124638   6.532   4.593   4.466
 8132WAT     H224639   6.505   4.443   4.407
 8133WAT      O24640   0.580   9.342   0.041
 8133WAT     H124641   0.630   9.304  -0.037
 8133WAT     H224642   0.630   9.420   0.078
 8134WAT      O24643   7.302   2.693   0.994
 8134WAT     H124644   7.392   2.664   0.960
 8134WAT     H224645   7.244   2.718   0.917
 8135WAT      O24646   2.502   7.994   4.181
 8135WAT     H124647   2.457   8.072   4.137
 8135WAT     H224648   2.586   8.025   4.226
 8136WAT      O24649   9.646   6.124   4.253
 8136WAT     H124650   9.705   6.079   4.186
 8136WAT     H224651   9.685   6.213   4.277
 8137WAT      O24652   8.267   1.133   9.067
 8137WAT     H124653   8.317   1.164   9.148
 8137WAT     H224654   8.188   1.193   9.052
 8138WAT      O24655   1.743   0.212   2.636
 8138WAT     H124656   1.693   0.140   2.587
 8138WAT     H224657   1.829   0.230   2.589
 8139WAT      O24658   6.205   0.234   7.821
 8139WAT     H124659   6.275   0.213   7.752
 8139WAT     H224660   6.173   0.150   7.862
 8140WAT      O24661   9.696   8.217   5.505
 8140WAT     H124662   9.717   8.222   5.603
 8140WAT     H224663   9.602   8.186   5.492
 8141WAT      O24664   6.743   6.193   1.847
 8141WAT     H124665   6.759   6.292   1.845
 8141WAT     H224666   6.714   6.166   1.939
 8142WAT      O24667   6.961   0.447   4.712
 8142WAT     H124668   6.990   0.510   4.784
 8142WAT     H224669   7.014   0.362   4.720
 8143WAT      O24670   2.143   9.750   3.896
 8143WAT     H124671   2.158   9.691   3.817
 8143WAT     H224672   2.228   9.799   3.917
 8144WAT      O24673   2.829   8.417   7.487
 8144WAT     H124674   2.853   8.329   7.447
 8144WAT     H224675   2.787   8.403   7.577
 8145WAT      O24676   4.326   0.533   1.754
 8145WAT     H124677   4.388   0.589   1.699
 8145WAT     H224678   4.373   0.450   1.784
 8146WAT      O24679   5.431   5.972   5.980
 8146WAT     H124680   5.465   6.056   5.938
 8146WAT     H224681   5.380   5.919   5.912
 8147WAT      O24682   4.175   6.077   5.357
 8147WAT     H124683   4.252   6.069   5.420
 8147WAT     H224684   4.207   6.112   5.269
 8148WAT      O24685   0.368   3.932   1.611
 8148WAT     H124686   0.461   3.897   1.612
 8148WAT     H224687   0.352   3.983   1.527
 8149WAT      O24688   1.300   4.375   4.460
 8149WAT     H124689   1.364   4.441   4.421
 8149WAT     H224690   1.236   4.423   4.521
 8150WAT      O24691   7.929   1.678   5.160
 8150WAT     H124692   7.839   1.675   5.204
 8150WAT     H224693   7.957   1.773   5.146
 8151WAT      O24694   1.083   1.260   0.700
 8151WAT     H124695   1.039   1.335   0.650
 8151WAT     H224696   1.057   1.265   0.796
 8152WAT      O24697   3.229   9.047   8.944
 8152WAT     H124698   3.197   9.115   8.879
 8152WAT     H224699   3.152   9.013   8.999
 8153WAT      O24700   8.620   4.801   3.861
 8153WAT     H124701   8.635   4.766   3.769
 8153WAT     H224702   8.522   4.814   3.876
 8154WAT      O24703   5.572   9.745   0.252
 8154WAT     H124704   5.646   9.678   0.257
 8154WAT     H224705   5.484   9.698   0.245
 8155WAT      O24706   2.120   9.318   1.665
 8155WAT     H124707   2.106   9.219   1.673
 8155WAT     H224708   2.179   9.336   1.586
 8156WAT      O24709   1.268   6.853   6.500
 8156WAT     H124710   1.305   6.946   6.501
 8156WAT     H224711   1.320   6.796   6.564
 8157WAT      O24712   2.681   0.523   3.983
 8157WAT     H124713   2.762   0.566   4.024
 8157WAT     H224714   2.632   0.471   4.053
 8158WAT      O24715   8.186   8.295   1.841
 8158WAT     H124716   8.204   8.306   1.939
 8158WAT     H224717   8.237   8.364   1.790
 8159WAT      O24718   3.286   4.622   2.140
 8159WAT     H124719   3.299   4.648   2.236
 8159WAT     H224720   3.247   4.530   2.135
 8160WAT      O24721   5.965   4.081   5.990
 8160WAT     H124722   6.056   4.053   5.960
 8160WAT     H224723   5.907   4.000   6.000
 8161WAT      O24724   9.360   1.840   9.555
 8161WAT     H124725   9.355   1.740   9.549
 8161WAT     H224726   9.271   1.879   9.530
 8162WAT      O24727   9.102   5.349   2.858
 8162WAT     H124728   9.130   5.442   2.831
 8162WAT     H224729   9.042   5.354   2.938
 8163WAT      O24730   4.487   4.396   3.321
 8163WAT     H124731   4.551   4.472   3.313
 8163WAT     H224732   4.411   4.423   3.380
 8164WAT      O24733   3.304   4.631   0.963
 8164WAT     H124734   3.228   4.656   0.903
 8164WAT     H224735   3.391   4.645   0.915
 8165WAT      O24736   2.044   6.002   7.055
 8165WAT     H124737   2.080   6.082   7.104
 8165WAT     H224738   1.955   6.024   7.016
 8166WAT      O24739   2.049   3.402   1.058
 8166WAT     H124740   2.053   3.330   1.128
 8166WAT     H224741   1.963   3.395   1.007
 8167WAT      O24742   3.526   2.402   5.478
 8167WAT     H124743   3.499   2.317   5.523
 8167WAT     H224744   3.573   2.380   5.393
 8168WAT      O24745   8.427   8.525   8.453
 8168WAT     H124746   8.404   8.583   8.532
 8168WAT     H224747   8.383   8.436   8.464
 8169WAT      O24748   9.022   0.157   8.662
 8169WAT     H124749   8.954   0.137   8.732
 8169WAT     H224750   9.004   0.100   8.581
 8170WAT      O24751   3.704   1.274   4.362
 8170WAT     H124752   3.690   1.373   4.362
 8170WAT     H224753   3.687   1.238   4.270
 8171WAT      O24754   4.706   8.220   9.467
 8171WAT     H124755   4.632   8.273   9.509
 8171WAT     H224756   4.696   8.124   9.493
 8172WAT      O24757   6.570   6.961   7.746
 8172WAT     H124758   6.666   6.977   7.770
 8172WAT     H224759   6.513   6.972   7.828
 8173WAT      O24760   3.120   8.053   7.491
 8173WAT     H124761   3.188   8.126   7.488
 8173WAT     H224762   3.149   7.977   7.433
 8174WAT      O24763   1.886   2.114   1.330
 8174WAT     H124764   1.790   2.103   1.354
 8174WAT     H224765   1.923   2.195   1.376
 8175WAT      O24766   3.321   0.826   7.799
 8175WAT     H124767   3.399   0.886   7.783
 8175WAT     H224768   3.353   0.732   7.812
 8176WAT      O24769   7.330   1.905   0.210
 8176WAT     H124770   7.268   1.944   0.142
 8176WAT     H224771   7.288   1.824   0.252
 8177WAT      O24772   2.241   5.347   6.896
 8177WAT     H124773   2.276   5.253   6.893
 8177WAT     H224774   2.231   5.382   6.803
 8178WAT      O24775   0.856   5.500   2.012
 8178WAT     H124776   0.845   5.457   1.922
 8178WAT     H224777   0.927   5.571   2.005
 8179WAT      O24778   6.068   2.958   1.993
 8179WAT     H124779   6.075   2.881   2.057
 8179WAT     H224780   6.081   2.924   1.900
 8180WAT      O24781   4.509   9.246   8.070
 8180WAT     H124782   4.600   9.288   8.061
 8180WAT     H224783   4.482   9.248   8.166
 8181WAT      O24784   1.163   6.321   0.401
 8181WAT     H124785   1.178   6.335   0.303
 8181WAT     H224786   1.074   6.278   0.416
 8182WAT      O24787   0.979   9.553   4.341
 8182WAT     H124788   0.961   9.461   4.304
 8182WAT     H224789   1.051   9.548   4.409
 8183WAT      O24790   1.122   0.947   5.030
 8183WAT     H124791   1.025   0.968   5.029
 8183WAT     H224792   1.175   1.031   5.022
 8184WAT      O24793   1.116   4.527   0.209
 8184WAT     H124794   1.126   4.600   0.278
 8184WAT     H224795   1.205   4.484   0.193
 8185WAT      O24796   5.061   0.974   3.949
 8185WAT     H124797   5.012   1.051   3.990
 8185WAT     H224798   5.137   0.947   4.008
 8186WAT      O24799   7.699   4.509   6.820
 8186WAT     H124800   7.639   4.534   6.896
 8186WAT     H224801   7.652   4.444   6.760
 8187WAT      O24802   2.716   5.224   9.155
 8187WAT     H124803   2.656   5.205   9.233
 8187WAT     H224804   2.756   5.139   9.123
 8188WAT      O24805   7.440   0.377   9.861
 8188WAT     H124806   7.434   0.472   9.830
 8188WAT     H224807   7.406   0.316   9.789
 8189WAT      O24808   1.460   1.910   4.852
 8189WAT     H124809   1.556   1.917   4.824
 8189WAT     H224810   1.402   1.901   4.771
 8190WAT      O24811   0.577   5.957   8.802
 8190WAT     H124812   0.482   5.957   8.770
 8190WAT     H224813   0.594   6.040   8.855
 8191WAT      O24814   9.643   0.160   6.596
 8191WAT     H124815   9.648   0.068   6.633
 8191WAT     H224816   9.590   0.218   6.659
 8192WAT      O24817   6.420   4.317   9.043
 8192WAT     H124818   6.503   4.362   9.010
 8192WAT     H224819   6.443   4.255   9.118
 8193WAT      O24820   1.358   5.245   8.241
 8193WAT     H124821   1.420   5.253   8.163
 8193WAT     H224822   1.267   5.276   8.214
 8194WAT      O24823   1.160   6.159   3.365
 8194WAT     H124824   1.197   6.097   3.434
 8194WAT     H224825   1.201   6.137   3.276
 8195WAT      O24826   0.310   1.454   4.080
 8195WAT     H124827   0.229   1.455   4.138
 8195WAT     H224828   0.313   1.369   4.028
 8196WAT      O24829   5.814   6.756   0.389
 8196WAT     H124830   5.904   6.799   0.402
 8196WAT     H224831   5.825   6.657   0.382
 8197WAT      O24832   3.933   4.356   2.396
 8197WAT     H124833   3.869   4.380   2.469
 8197WAT     H224834   3.882   4.330   2.314
 8198WAT      O24835   9.158   6.843   0.822
 8198WAT     H124836   9.119   6.751   0.824
 8198WAT     H224837   9.093   6.908   0.861
 8199WAT      O24838   7.170   3.729   7.750
 8199WAT     H124839   7.221   3.799   7.702
 8199WAT     H224840   7.191   3.639   7.710
 8200WAT      O24841   3.570   4.639   4.745
 8200WAT     H124842   3.564   4.543   4.717
 8200WAT     H224843   3.666   4.666   4.748
 8201WAT      O24844   7.462   2.783   4.281
 8201WAT     H124845   7.501   2.761   4.192
 8201WAT     H224846   7.380   2.838   4.269
 8202WAT      O24847   6.532   0.593   2.913
 8202WAT     H124848   6.553   0.512   2.968
 8202WAT     H224849   6.441   0.583   2.872
 8203WAT      O24850   1.845   8.108   1.468
 8203WAT     H124851   1.754   8.091   1.508
 8203WAT     H224852   1.910   8.041   1.505
 8204WAT      O24853   0.351   8.910   7.276
 8204WAT     H124854   0.432   8.861   7.309
 8204WAT     H224855   0.340   8.894   7.178
 8205WAT      O24856   6.278   1.092   7.857
 8205WAT     H124857   6.368   1.111   7.818
 8205WAT     H224858   6.229   1.028   7.798
 8206WAT      O24859   1.857   7.793   0.573
 8206WAT     H124860   1.765   7.763   0.598
 8206WAT     H224861   1.851   7.854   0.493
 8207WAT      O24862   4.824   2.556   5.705
 8207WAT     H124863   4.922   2.571   5.723
 8207WAT     H224864   4.783   2.641   5.673
 8208WAT      O24865   9.680   5.673   5.520
 8208WAT     H124866   9.693   5.709   5.613
 8208WAT     H224867   9.594   5.622   5.515
 8209WAT      O24868   5.177   4.346   6.735
 8209WAT     H124869   5.248   4.276   6.746
 8209WAT     H224870   5.118   4.346   6.816
 8210WAT      O24871   1.783   4.208   4.402
 8210WAT     H124872   1.790   4.268   4.322
 8210WAT     H224873   1.743   4.121   4.375
 8211WAT      O24874   3.229   7.952   2.252
 8211WAT     H124875   3.271   7.986   2.336
 8211WAT     H224876   3.297   7.950   2.179
 8212WAT      O24877   0.325   5.823   0.817
 8212WAT     H124878   0.292   5.768   0.894
 8212WAT     H224879   0.263   5.811   0.739
 8213WAT      O24880   7.758   5.492   9.653
 8213WAT     H124881   7.663   5.524   9.647
 8213WAT     H224882   7.815   5.546   9.590
 8214WAT      O24883   3.262   1.530   7.167
 8214WAT     H124884   3.332   1.489   7.109
 8214WAT     H224885   3.300   1.607   7.217
 8215WAT      O24886   7.972   0.203   6.426
 8215WAT     H124887   8.052   0.257   6.400
 8215WAT     H224888   7.890   0.259   6.420
 8216WAT      O24889   3.401   4.714   1.263
 8216WAT     H124890   3.395   4.672   1.354
 8216WAT     H224891   3.392   4.644   1.193
 8217WAT      O24892   9.755   0.357   6.920
 8217WAT     H124893   9.671   0.314   6.887
 8217WAT     H224894   9.807   0.290   6.973
 8218WAT      O24895   6.921   8.713   6.997
 8218WAT     H124896   6.992   8.782   6.985
 8218WAT     H224897   6.959   8.623   6.976
 8219WAT      O24898   9.529   9.155   1.353
 8219WAT     H124899   9.546   9.199   1.264
 8219WAT     H224900   9.485   9.067   1.338
 8220WAT      O24901   4.913   7.560   5.466
 8220WAT     H124902   4.929   7.646   5.514
 8220WAT     H224903   4.892   7.578   5.370
 8221WAT      O24904   2.493   6.594   1.066
 8221WAT     H124905   2.551   6.535   1.011
 8221WAT     H224906   2.514   6.690   1.047
 8222WAT      O24907   1.734   8.866   2.539
 8222WAT     H124908   1.759   8.944   2.596
 8222WAT     H224909   1.798   8.791   2.556
 8223WAT      O24910   2.947   3.355   3.657
 8223WAT     H124911   2.910   3.435   3.610
 8223WAT     H224912   3.014   3.310   3.598
 8224WAT      O24913   5.929   6.389   5.186
 8224WAT     H124914   5.920   6.335   5.102
 8224WAT     H224915   6.016   6.439   5.185
 8225WAT      O24916   6.157   4.742   6.413
 8225WAT     H124917   6.203   4.740   6.502
 8225WAT     H224918   6.181   4.661   6.361
 8226WAT      O24919   5.785   6.627   9.423
 8226WAT     H124920   5.821   6.683   9.348
 8226WAT     H224921   5.721   6.560   9.387
 8227WAT      O24922   6.490   9.658   5.243
 8227WAT     H124923   6.488   9.608   5.330
 8227WAT     H224924   6.585   9.671   5.214
 8228WAT      O24925   5.288   2.276   6.408
 8228WAT     H124926   5.240   2.357   6.373
 8228WAT     H224927   5.226   2.224   6.466
 8229WAT      O24928   0.469   8.703   4.907
 8229WAT     H124929   0.432   8.723   4.816
 8229WAT     H224930   0.484   8.788   4.957
 8230WAT      O24931   2.036   5.296   9.415
 8230WAT     H124932   2.005   5.350   9.337
 8230WAT     H224933   2.132   5.316   9.435
 8231WAT      O24934   3.585   4.812   0.257
 8231WAT     H124935   3.657   4.794   0.324
 8231WAT     H224936   3.564   4.909   0.256
 8232WAT      O24937   6.216   7.070   4.520
 8232WAT     H124938   6.188   7.132   4.447
 8232WAT     H224939   6.189   6.977   4.496
 8233WAT      O24940   4.096   8.911   5.294
 8233WAT     H124941   4.073   8.982   5.362
 8233WAT     H224942   4.012   8.864   5.267
 8234WAT      O24943   3.012   8.654   4.142
 8234WAT     H124944   3.049   8.628   4.231
 8234WAT     H224945   3.076   8.625   4.070
 8235WAT      O24946   1.711   1.615   6.430
 8235WAT     H124947   1.664   1.703   6.422
 8235WAT     H224948   1.793   1.626   6.487
 8236WAT      O24949   5.400   6.137   2.446
 8236WAT     H124950   5.435   6.089   2.527
 8236WAT     H224951   5.300   6.146   2.453
 8237WAT      O24952   4.320   3.242   2.157
 8237WAT     H124953   4.354   3.336   2.159
 8237WAT     H224954   4.246   3.232   2.223
 8238WAT      O24955   3.459   6.374   2.906
 8238WAT     H124956   3.457   6.454   2.965
 8238WAT     H224957   3.393   6.306   2.938
 8239WAT      O24958   2.420   4.967   2.995
 8239WAT     H124959   2.472   4.903   3.050
 8239WAT     H224960   2.326   4.934   2.985
 8240WAT      O24961   3.575   1.503   7.811
 8240WAT     H124962   3.614   1.486   7.721
 8240WAT     H224963   3.646   1.541   7.871
 8241WAT      O24964   2.378   7.052   7.464
 8241WAT     H124965   2.306   7.106   7.420
 8241WAT     H224966   2.378   7.071   7.562
 8242WAT      O24967   2.029   4.404   2.625
 8242WAT     H124968   2.045   4.469   2.699
 8242WAT     H224969   2.097   4.418   2.553
 8243WAT      O24970   0.444   7.045   7.943
 8243WAT     H124971   0.463   7.142   7.959
 8243WAT     H224972   0.346   7.028   7.955
 8244WAT      O24973   5.242   7.645   1.842
 8244WAT     H124974   5.218   7.738   1.814
 8244WAT     H224975   5.163   7.603   1.889
 8245WAT      O24976   9.133   4.648   2.643
 8245WAT     H124977   9.082   4.732   2.661
 8245WAT     H224978   9.169   4.612   2.729
 8246WAT      O24979   8.278   8.393   0.355
 8246WAT     H124980   8.224   8.310   0.363
 8246WAT     H224981   8.288   8.417   0.258
 8247WAT      O24982   9.296   5.613   9.837
 8247WAT     H124983   9.204   5.651   9.824
 8247WAT     H224984   9.289   5.525   9.884
 8248WAT      O24985   9.389   5.133   2.798
 8248WAT     H124986   9.418   5.192   2.723
 8248WAT     H224987   9.296   5.100   2.782
 8249WAT      O24988   4.649   9.128   7.494
 8249WAT     H124989   4.748   9.130   7.511
 8249WAT     H224990   4.613   9.037   7.513
 8250WAT      O24991   9.308   1.946   2.134
 8250WAT     H124992   9.310   2.032   2.185
 8250WAT     H224993   9.264   1.876   2.190
 8251WAT      O24994   0.748   2.776   2.071
 8251WAT     H124995   0.710   2.857   2.024
 8251WAT     H224996   0.835   2.800   2.113
 8252WAT      O24997   7.015   3.601   3.570
 8252WAT     H124998   7.042   3.603   3.473
 8252WAT     H224999   7.056   3.678   3.618
 8253WAT      O25000   1.772   7.171   0.455
 8253WAT     H125001   1.725   7.248   0.497
 8253WAT     H225002   1.706   7.101   0.430
 8254WAT      O25003   6.230   8.229   8.495
 8254WAT     H125004   6.197   8.143   8.533
 8254WAT     H225005   6.317   8.254   8.539
 8255WAT      O25006   3.857   3.752   9.095
 8255WAT     H125007   3.891   3.659   9.100
 8255WAT     H225008   3.767   3.758   9.138
 8256WAT      O25009   3.987   6.703   4.032
 8256WAT     H125010   3.890   6.705   4.055
 8256WAT     H225011   3.998   6.688   3.934
 8257WAT      O25012   8.362   4.527   6.380
 8257WAT     H125013   8.459   4.529   6.402
 8257WAT     H225014   8.350   4.494   6.287
 8258WAT      O25015   6.697   9.668   1.369
 8258WAT     H125016   6.784   9.626   1.345
 8258WAT     H225017   6.663   9.721   1.292
 8259WAT      O25018   6.729   5.710   4.439
 8259WAT     H125019   6.815   5.732   4.393
 8259WAT     H225020   6.708   5.613   4.425
 8260WAT      O25021   3.687   8.543   1.296
 8260WAT     H125022   3.695   8.468   1.230
 8260WAT     H225023   3.777   8.565   1.333
 8261WAT      O25024   3.182   5.028   4.894
 8261WAT     H125025   3.182   4.964   4.971
 8261WAT     H225026   3.256   5.095   4.907
 8262WAT      O25027   5.366   6.349   0.637
 8262WAT     H125028   5.447   6.329   0.694
 8262WAT     H225029   5.337   6.266   0.590
 8263WAT      O25030   1.608   4.189   3.832
 8263WAT     H125031   1.576   4.097   3.811
 8263WAT     H225032   1.535   4.240   3.877
 8264WAT      O25033   5.645   5.096   0.139
 8264WAT     H125034   5.658   5.073   0.043
 8264WAT     H225035   5.656   5.195   0.151
 8265WAT      O25036   9.793   7.142   8.313
 8265WAT     H125037   9.748   7.231   8.309
 8265WAT     H225038   9.891   7.155   8.326
 8266WAT      O25039   5.019   7.059   7.755
 8266WAT     H125040   4.997   6.964   7.732
 8266WAT     H225041   5.080   7.061   7.835
 8267WAT      O25042   7.483   8.734   9.667
 8267WAT     H125043   7.582   8.719   9.677
 8267WAT     H225044   7.467   8.814   9.608
 8268WAT      O25045   6.819   4.504   8.820
 8268WAT     H125046   6.809   4.468   8.728
 8268WAT     H225047   6.827   4.429   8.885
 8269WAT      O25048   4.868   3.148   9.716
 8269WAT     H125049   4.781   3.197   9.727
 8269WAT     H225050   4.897   3.112   9.805
 8270WAT      O25051   4.307   5.454   7.250
 8270WAT     H125052   4.401   5.437   7.218
 8270WAT     H225053   4.277   5.377   7.306
 8271WAT      O25054   1.461   2.544   6.154
 8271WAT     H125055   1.515   2.460   6.143
 8271WAT     H225056   1.375   2.535   6.103
 8272WAT      O25057   4.060   8.701   9.729
 8272WAT     H125058   3.966   8.688   9.761
 8272WAT     H225059   4.092   8.618   9.685
 8273WAT      O25060   0.762   0.116   3.800
 8273WAT     H125061   0.831   0.181   3.831
 8273WAT     H225062   0.807   0.032   3.768
 8274WAT      O25063   6.440   3.627   0.175
 8274WAT     H125064   6.386   3.675   0.244
 8274WAT     H225065   6.442   3.529   0.196
 8275WAT      O25066   4.444   1.556   0.908
 8275WAT     H125067   4.488   1.468   0.891
 8275WAT     H225068   4.353   1.541   0.948
 8276WAT      O25069   3.517   5.859   9.786
 8276WAT     H125070   3.512   5.957   9.808
 8276WAT     H225071   3.605   5.823   9.815
 8277WAT      O25072   4.626   5.674   8.670
 8277WAT     H125073   4.648   5.577   8.663
 8277WAT     H225074   4.674   5.714   8.748
 8278WAT      O25075   2.450   3.536   8.182
 8278WAT     H125076   2.514   3.611   8.163
 8278WAT     H225077   2.390   3.562   8.257
 8279WAT      O25078   8.783   9.199   9.769
 8279WAT     H125079   8.878   9.209   9.799
 8279WAT     H225080   8.780   9.185   9.670
 8280WAT      O25081   9.044   4.562   1.128
 8280WAT     H125082   9.095   4.636   1.086
 8280WAT     H225083   9.019   4.495   1.059
 8281WAT      O25084   9.259   6.178   1.383
 8281WAT     H125085   9.348   6.223   1.377
 8281WAT     H225086   9.260   6.112   1.458
 8282WAT      O25087   1.993   0.480   7.247
 8282WAT     H125088   1.997   0.389   7.287
 8282WAT     H225089   1.903   0.495   7.206
 8283WAT      O25090   3.175   5.633   4.317
 8283WAT     H125091   3.109   5.666   4.250
 8283WAT     H225092   3.139   5.647   4.409
 8284WAT      O25093   2.810   4.538   7.044
 8284WAT     H125094   2.712   4.522   7.045
 8284WAT     H225095   2.828   4.637   7.048
 8285WAT      O25096   7.914   6.056   0.055
 8285WAT     H125097   7.990   6.045  -0.009
 8285WAT     H225098   7.915   5.981   0.121
 8286WAT      O25099   3.728   1.811   4.001
 8286WAT     H125100   3.729   1.711   4.013
 8286WAT     H225101   3.704   1.833   3.907
 8287WAT      O25102   1.932   0.919   9.507
 8287WAT     H125103   1.853   0.863   9.482
 8287WAT     H225104   1.902   0.991   9.570
 8288WAT      O25105   2.003   9.593   8.752
 8288WAT     H125106   1.924   9.654   8.765
 8288WAT     H225107   1.970   9.499   8.739
 8289WAT      O25108   2.770   0.732   7.884
 8289WAT     H125109   2.739   0.768   7.972
 8289WAT     H225110   2.866   0.755   7.871
 8290WAT      O25111   1.148   8.088   0.036
 8290WAT     H125112   1.145   8.152  -0.041
 8290WAT     H225113   1.116   8.133   0.119
 8291WAT      O25114   0.259   1.463   6.590
 8291WAT     H125115   0.312   1.541   6.623
 8291WAT     H225116   0.234   1.478   6.494
 8292WAT      O25117   8.285   4.016   4.147
 8292WAT     H125118   8.194   3.975   4.135
 8292WAT     H225119   8.289   4.102   4.097
 8293WAT      O25120   4.544   5.433   0.263
 8293WAT     H125121   4.568   5.452   0.168
 8293WAT     H225122   4.557   5.336   0.281
 8294WAT      O25123   2.882   0.380   2.958
 8294WAT     H125124   2.798   0.335   2.989
 8294WAT     H225125   2.952   0.311   2.941
 8295WAT      O25126   0.142   8.372   7.901
 8295WAT     H125127   0.047   8.363   7.872
 8295WAT     H225128   0.168   8.469   7.902
 8296WAT      O25129   1.426   8.905   6.306
 8296WAT     H125130   1.493   8.977   6.327
 8296WAT     H225131   1.337   8.946   6.287
 8297WAT      O25132   1.703   6.954   2.941
 8297WAT     H125133   1.803   6.950   2.931
 8297WAT     H225134   1.665   6.862   2.936
 8298WAT      O25135   4.334   2.976   5.835
 8298WAT     H125136   4.307   3.014   5.923
 8298WAT     H225137   4.378   3.046   5.779
 8299WAT      O25138   5.048   7.472   6.289
 8299WAT     H125139   5.072   7.416   6.369
 8299WAT     H225140   5.132   7.509   6.249
 8300WAT      O25141   0.022   4.310   4.547
 8300WAT     H125142  -0.030   4.395   4.534
 8300WAT     H225143   0.101   4.328   4.604
 8301WAT      O25144   3.754   5.932   8.863
 8301WAT     H125145   3.673   5.936   8.803
 8301WAT     H225146   3.732   5.973   8.951
 8302WAT      O25147   1.351   4.108   4.824
 8302WAT     H125148   1.433   4.164   4.831
 8302WAT     H225149   1.360   4.027   4.882
 8303WAT      O25150   1.260   8.055   4.734
 8303WAT     H125151   1.239   7.998   4.655
 8303WAT     H225152   1.327   8.009   4.792
 8304WAT      O25153   5.501   7.719   9.151
 8304WAT     H125154   5.410   7.752   9.174
 8304WAT     H225155   5.535   7.661   9.226
 8305WAT      O25156   8.009   7.546   9.636
 8305WAT     H125157   7.952   7.465   9.621
 8305WAT     H225158   8.089   7.521   9.691
 8306WAT      O25159   9.189   5.372   7.134
 8306WAT     H125160   9.155   5.291   7.182
 8306WAT     H225161   9.118   5.442   7.134
 8307WAT      O25162   2.347   8.517   7.224
 8307WAT     H125163   2.355   8.577   7.145
 8307WAT     H225164   2.437   8.481   7.249
 8308WAT      O25165   7.938   9.473   6.939
 8308WAT     H125166   7.922   9.407   6.865
 8308WAT     H225167   7.990   9.551   6.904
 8309WAT      O25168   5.423   1.375   8.792
 8309WAT     H125169   5.444   1.472   8.783
 8309WAT     H225170   5.360   1.361   8.868
 8310WAT      O25171   8.545   5.823   2.213
 8310WAT     H125172   8.552   5.917   2.177
 8310WAT     H225173   8.622   5.805   2.274
 8311WAT      O25174   3.734   7.661   1.120
 8311WAT     H125175   3.674   7.741   1.118
 8311WAT     H225176   3.818   7.683   1.169
 8312WAT      O25177   9.398   1.290   6.869
 8312WAT     H125178   9.462   1.325   6.800
 8312WAT     H225179   9.447   1.227   6.930
 8313WAT      O25180   5.825   8.275   3.174
 8313WAT     H125181   5.742   8.225   3.147
 8313WAT     H225182   5.806   8.373   3.171
 8314WAT      O25183   4.241   9.499   4.493
 8314WAT     H125184   4.188   9.423   4.531
 8314WAT     H225185   4.253   9.570   4.562
 8315WAT      O25186   0.674   4.968   7.141
 8315WAT     H125187   0.590   5.015   7.168
 8315WAT     H225188   0.741   5.036   7.111
 8316WAT      O25189   6.551   9.008   1.376
 8316WAT     H125190   6.640   8.970   1.351
 8316WAT     H225191   6.486   8.991   1.301
 8317WAT      O25192   6.007   4.476   8.384
 8317WAT     H125193   5.954   4.444   8.462
 8317WAT     H225194   5.962   4.555   8.343
 8318WAT      O25195   2.896   8.158   7.367
 8318WAT     H125196   2.979   8.112   7.399
 8318WAT     H225197   2.901   8.169   7.267
 8319WAT      O25198   7.717   2.391   6.423
 8319WAT     H125199   7.735   2.433   6.511
 8319WAT     H225200   7.663   2.453   6.366
 8320WAT      O25201   7.491   2.505   7.322
 8320WAT     H125202   7.414   2.545   7.272
 8320WAT     H225203   7.484   2.406   7.320
 8321WAT      O25204   2.308   7.435   9.629
 8321WAT     H125205   2.344   7.398   9.714
 8321WAT     H225206   2.225   7.385   9.603
 8322WAT      O25207   2.572   0.950   7.190
 8322WAT     H125208   2.554   1.025   7.253
 8322WAT     H225209   2.513   0.873   7.213
 8323WAT      O25210   3.175   1.803   8.892
 8323WAT     H125211   3.210   1.713   8.918
 8323WAT     H225212   3.111   1.836   8.962
 8324WAT      O25213   8.556   4.003   5.198
 8324WAT     H125214   8.589   3.959   5.114
 8324WAT     H225215   8.468   4.047   5.181
 8325WAT      O25216   4.621   0.739   5.732
 8325WAT     H125217   4.624   0.839   5.743
 8325WAT     H225218   4.540   0.703   5.779
 8326WAT      O25219   4.191   1.694   4.324
 8326WAT     H125220   4.283   1.734   4.320
 8326WAT     H225221   4.135   1.746   4.389
 8327WAT      O25222   0.204   3.855   0.876
 8327WAT     H125223   0.288   3.890   0.834
 8327WAT     H225224   0.161   3.788   0.815
 8328WAT      O25225   1.331   7.047   2.097
 8328WAT     H125226   1.316   6.948   2.106
 8328WAT     H225227   1.285   7.095   2.172
 8329WAT      O25228   8.316   5.845   5.538
 8329WAT     H125229   8.391   5.782   5.559
 8329WAT     H225230   8.336   5.893   5.453
 8330WAT      O25231   4.712   4.909   7.356
 8330WAT     H125232   4.732   4.920   7.259
 8330WAT     H225233   4.705   4.812   7.379
 8331WAT      O25234   8.194   5.508   9.651
 8331WAT     H125235   8.230   5.591   9.608
 8331WAT     H225236   8.101   5.493   9.620
 8332WAT      O25237   4.099   8.157   5.004
 8332WAT     H125238   4.123   8.254   5.010
 8332WAT     H225239   4.091   8.119   5.096
 8333WAT      O25240   2.753   5.599   2.985
 8333WAT     H125241   2.774   5.619   3.081
 8333WAT     H225242   2.718   5.682   2.941
 8334WAT      O25243   5.024   0.237   3.917
 8334WAT     H125244   5.069   0.269   3.834
 8334WAT     H225245   5.071   0.156   3.952
 8335WAT      O25246   5.906   0.771   5.299
 8335WAT     H125247   5.846   0.835   5.250
 8335WAT     H225248   5.997   0.774   5.259
 8336WAT      O25249   9.763   7.348   9.443
 8336WAT     H125250   9.830   7.351   9.368
 8336WAT     H225251   9.747   7.440   9.477
 8337WAT      O25252   7.459   7.332   3.709
 8337WAT     H125253   7.420   7.396   3.774
 8337WAT     H225254   7.517   7.266   3.758
 8338WAT      O25255   6.456   4.822   5.232
 8338WAT     H125256   6.499   4.879   5.162
 8338WAT     H225257   6.420   4.739   5.189
 8339WAT      O25258   8.103   9.646   0.155
 8339WAT     H125259   8.029   9.690   0.104
 8339WAT     H225260   8.069   9.618   0.245
 8340WAT      O25261   0.659   0.077   4.664
 8340WAT     H125262   0.653   0.143   4.589
 8340WAT     H225263   0.612  -0.007   4.638
 8341WAT      O25264   5.293   2.169   9.689
 8341WAT     H125265   5.204   2.151   9.730
 8341WAT     H225266   5.281   2.199   9.594
 8342WAT      O25267   0.531   1.522   5.807
 8342WAT     H125268   0.591   1.564   5.876
 8342WAT     H225269   0.451   1.580   5.793
 8343WAT      O25270   3.360   2.949   3.760
 8343WAT     H125271   3.387   3.045   3.768
 8343WAT     H225272   3.261   2.943   3.746
 8344WAT      O25273   2.567   3.698   0.845
 8344WAT     H125274   2.647   3.644   0.871
 8344WAT     H225275   2.590   3.756   0.766
 8345WAT      O25276   0.006   6.352   6.443
 8345WAT     H125277  -0.076   6.409   6.448
 8345WAT     H225278   0.061   6.380   6.365
 8346WAT      O25279   0.689   3.849   4.471
 8346WAT     H125280   0.701   3.927   4.410
 8346WAT     H225281   0.598   3.853   4.512
 8347WAT      O25282   3.997   4.339   4.042
 8347WAT     H125283   4.031   4.326   3.949
 8347WAT     H225284   4.053   4.286   4.106
 8348WAT      O25285   4.473   5.583   0.524
 8348WAT     H125286   4.446   5.559   0.617
 8348WAT     H225287   4.496   5.680   0.520
 8349WAT      O25288   0.969   1.526   5.317
 8349WAT     H125289   1.017   1.492   5.236
 8349WAT     H225290   1.016   1.495   5.399
 8350WAT      O25291   6.974   7.089   1.420
 8350WAT     H125292   7.010   7.065   1.329
 8350WAT     H225293   7.035   7.053   1.490
 8351WAT      O25294   9.239   5.278   7.815
 8351WAT     H125295   9.299   5.331   7.874
 8351WAT     H225296   9.226   5.186   7.853
 8352WAT      O25297   4.841   0.558   9.521
 8352WAT     H125298   4.802   0.648   9.501
 8352WAT     H225299   4.766   0.493   9.534
 8353WAT      O25300   8.503   8.994   8.454
 8353WAT     H125301   8.514   8.901   8.418
 8353WAT     H225302   8.593   9.032   8.476
 8354WAT      O25303   2.540   1.886   3.037
 8354WAT     H125304   2.446   1.911   3.064
 8354WAT     H225305   2.604   1.954   3.073
 8355WAT      O25306   0.274   3.362   5.884
 8355WAT     H125307   0.351   3.393   5.827
 8355WAT     H225308   0.243   3.438   5.941
 8356WAT      O25309   3.399   0.613   3.748
 8356WAT     H125310   3.487   0.624   3.795
 8356WAT     H225311   3.392   0.683   3.676
 8357WAT      O25312   2.738   8.613   4.141
 8357WAT     H125313   2.835   8.633   4.151
 8357WAT     H225314   2.697   8.593   4.230
 8358WAT      O25315   0.656   2.637   5.502
 8358WAT     H125316   0.604   2.572   5.558
 8358WAT     H225317   0.691   2.711   5.559
 8359WAT      O25318   4.721   9.472   4.372
 8359WAT     H125319   4.623   9.482   4.355
 8359WAT     H225320   4.769   9.456   4.286
 8360WAT      O25321   9.406   5.699   7.754
 8360WAT     H125322   9.429   5.669   7.662
 8360WAT     H225323   9.477   5.761   7.788
 8361WAT      O25324   5.780   6.937   0.209
 8361WAT     H125325   5.781   6.879   0.290
 8361WAT     H225326   5.695   6.990   0.208
 8362WAT      O25327   6.578   0.995   2.062
 8362WAT     H125328   6.574   0.985   2.161
 8362WAT     H225329   6.551   0.909   2.018
 8363WAT      O25330   9.565   5.105   1.370
 8363WAT     H125331   9.628   5.121   1.295
 8363WAT     H225332   9.543   5.192   1.415
 8364WAT      O25333   2.756   1.450   4.795
 8364WAT     H125334   2.817   1.449   4.716
 8364WAT     H225335   2.693   1.373   4.790
 8365WAT      O25336   7.627   6.189   8.271
 8365WAT     H125337   7.571   6.188   8.354
 8365WAT     H225338   7.587   6.127   8.203
 8366WAT      O25339   3.121   1.271   8.354
 8366WAT     H125340   3.054   1.234   8.418
 8366WAT     H225341   3.074   1.320   8.281
 8367WAT      O25342   4.287   4.546   7.497
 8367WAT     H125343   4.247   4.558   7.588
 8367WAT     H225344   4.221   4.502   7.437
 8368WAT      O25345   5.167   5.422   8.339
 8368WAT     H125346   5.145   5.411   8.242
 8368WAT     H225347   5.091   5.389   8.395
 8369WAT      O25348   6.923   1.993   4.437
 8369WAT     H125349   7.019   1.981   4.462
 8369WAT     H225350   6.881   2.060   4.498
 8370WAT      O25351   6.198   7.504   8.961
 8370WAT     H125352   6.259   7.425   8.972
 8370WAT     H225353   6.131   7.505   9.034
 8371WAT      O25354   4.308   7.084   2.086
 8371WAT     H125355   4.405   7.100   2.105
 8371WAT     H225356   4.268   7.032   2.161
 8372WAT      O25357   9.435   8.853   3.994
 8372WAT     H125358   9.407   8.792   4.069
 8372WAT     H225359   9.458   8.943   4.031
 8373WAT      O25360   4.340   9.352   7.856
 8373WAT     H125361   4.384   9.322   7.772
 8373WAT     H225362   4.407   9.358   7.929
 8374WAT      O25363   0.261   5.325   6.315
 8374WAT     H125364   0.172   5.359   6.284
 8374WAT     H225365   0.253   5.291   6.409
 8375WAT      O25366   0.636   0.027   1.876
 8375WAT     H125367   0.691   0.070   1.947
 8375WAT     H225368   0.563  -0.027   1.918
 8376WAT      O25369   2.439   9.777   6.486
 8376WAT     H125370   2.434   9.685   6.446
 8376WAT     H225371   2.387   9.779   6.572
 8377WAT      O25372   8.890   0.794   2.243
 8377WAT     H125373   8.827   0.717   2.251
 8377WAT     H225374   8.840   0.875   2.216
 8378WAT      O25375   7.741   7.411   3.660
 8378WAT     H125376   7.822   7.358   3.685
 8378WAT     H225377   7.671   7.349   3.625
 8379WAT      O25378   3.225   8.895   4.342
 8379WAT     H125379   3.141   8.911   4.292
 8379WAT     H225380   3.224   8.947   4.427
 8380WAT      O25381   0.507   8.484   0.470
 8380WAT     H125382   0.449   8.429   0.409
 8380WAT     H225383   0.553   8.423   0.535
 8381WAT      O25384   7.719   4.473   4.026
 8381WAT     H125385   7.782   4.449   4.100
 8381WAT     H225386   7.628   4.436   4.047
 8382WAT      O25387   0.256   7.526   1.360
 8382WAT     H125388   0.222   7.607   1.313
 8382WAT     H225389   0.206   7.514   1.446
 8383WAT      O25390   0.212   3.096   3.560
 8383WAT     H125391   0.120   3.087   3.598
 8383WAT     H225392   0.220   3.183   3.511
 8384WAT      O25393   9.542   0.283   7.527
 8384WAT     H125394   9.595   0.283   7.612
 8384WAT     H225395   9.515   0.189   7.505
 8385WAT      O25396   3.757   1.551   4.057
 8385WAT     H125397   3.848   1.520   4.080
 8385WAT     H225398   3.695   1.535   4.134
 8386WAT      O25399   0.243   0.240   6.965
 8386WAT     H125400   0.246   0.185   6.882
 8386WAT     H225401   0.259   0.336   6.942
 8387WAT      O25402   5.462   8.083   1.274
 8387WAT     H125403   5.553   8.051   1.300
 8387WAT     H225404   5.425   8.142   1.346
 8388WAT      O25405   5.073   7.205   1.681
 8388WAT     H125406   5.127   7.121   1.670
 8388WAT     H225407   5.122   7.281   1.638
 8389WAT      O25408   0.136   7.769   6.697
 8389WAT     H125409   0.075   7.814   6.762
 8389WAT     H225410   0.231   7.778   6.727
 8390WAT      O25411   2.983   8.537   1.254
 8390WAT     H125412   3.020   8.517   1.164
 8390WAT     H225413   2.896   8.490   1.266
 8391WAT      O25414   1.361   1.112   3.379
 8391WAT     H125415   1.440   1.146   3.430
 8391WAT     H225416   1.291   1.080   3.443
 8392WAT      O25417   0.326   5.376   0.790
 8392WAT     H125418   0.418   5.416   0.795
 8392WAT     H225419   0.277   5.416   0.713
 8393WAT      O25420   1.817   7.917   6.600
 8393WAT     H125421   1.862   7.976   6.533
 8393WAT     H225422   1.783   7.835   6.554
 8394WAT      O25423   0.319   9.408   5.846
 8394WAT     H125424   0.403   9.390   5.796
 8394WAT     H225425   0.330   9.489   5.904
 8395WAT      O25426   3.460   6.869   3.328
 8395WAT     H125427   3.522   6.908   3.260
 8395WAT     H225428   3.370   6.910   3.318
 8396WAT      O25429   4.900   7.198   7.362
 8396WAT     H125430   4.914   7.279   7.306
 8396WAT     H225431   4.987   7.152   7.378
 8397WAT      O25432   6.333   7.406   9.717
 8397WAT     H125433   6.324   7.505   9.711
 8397WAT     H225434   6.298   7.374   9.805
 8398WAT      O25435   1.804   3.024   9.457
 8398WAT     H125436   1.869   2.948   9.466
 8398WAT     H225437   1.716   2.997   9.497
 8399WAT      O25438   8.595   0.714   9.619
 8399WAT     H125439   8.564   0.775   9.692
 8399WAT     H225440   8.690   0.735   9.596
 8400WAT      O25441   7.830   7.024   4.003
 8400WAT     H125442   7.762   7.027   4.076
 8400WAT     H225443   7.847   6.929   3.977
 8401WAT      O25444   6.502   9.020   3.462
 8401WAT     H125445   6.578   9.006   3.398
 8401WAT     H225446   6.531   9.083   3.534
 8402WAT      O25447   1.259   5.432   6.515
 8402WAT     H125448   1.250   5.335   6.538
 8402WAT     H225449   1.337   5.471   6.563
 8403WAT      O25450   6.903   2.137   5.692
 8403WAT     H125451   6.881   2.225   5.649
 8403WAT     H225452   6.847   2.065   5.651
 8404WAT      O25453   2.563   6.949   4.410
 8404WAT     H125454   2.606   7.020   4.465
 8404WAT     H225455   2.553   6.981   4.316
 8405WAT      O25456   5.086   8.500   9.222
 8405WAT     H125457   5.037   8.553   9.153
 8405WAT     H225458   5.025   8.431   9.261
 8406WAT      O25459   6.097   4.412   4.537
 8406WAT     H125460   6.065   4.375   4.450
 8406WAT     H225461   6.023   4.408   4.604
 8407WAT      O25462   7.297   7.993   8.400
 8407WAT     H125463   7.374   7.963   8.342
 8407WAT     H225464   7.238   8.055   8.348
 8408WAT      O25465   1.401   3.060   6.625
 8408WAT     H125466   1.499   3.079   6.611
 8408WAT     H225467   1.370   2.993   6.559
 8409WAT      O25468   1.067   7.752   5.170
 8409WAT     H125469   0.987   7.808   5.151
 8409WAT     H225470   1.055   7.661   5.130
 8410WAT      O25471   7.492   0.965   8.923
 8410WAT     H125472   7.550   1.011   8.856
 8410WAT     H225473   7.548   0.927   8.996
 8411WAT      O25474   8.981   2.486   2.445
 8411WAT     H125475   8.963   2.519   2.352
 8411WAT     H225476   8.899   2.495   2.500
 8412WAT      O25477   8.606   6.053   7.620
 8412WAT     H125478   8.510   6.067   7.645
 8412WAT     H225479   8.663   6.066   7.701
 8413WAT      O25480   8.155   6.440   3.820
 8413WAT     H125481   8.158   6.413   3.917
 8413WAT     H225482   8.239   6.410   3.775
 8414WAT      O25483   4.432   7.458   6.972
 8414WAT     H125484   4.497   7.497   7.038
 8414WAT     H225485   4.415   7.362   6.995
 8415WAT      O25486   9.864   6.606   8.692
 8415WAT     H125487   9.902   6.623   8.783
 8415WAT     H225488   9.937   6.581   8.629
 8416WAT      O25489   0.494   6.747   2.163
 8416WAT     H125490   0.588   6.755   2.129
 8416WAT     H225491   0.496   6.727   2.261
 8417WAT      O25492   6.316   8.063   5.175
 8417WAT     H125493   6.382   8.063   5.250
 8417WAT     H225494   6.279   7.971   5.163
 8418WAT      O25495   0.795   7.325   5.138
 8418WAT     H125496   0.812   7.234   5.175
 8418WAT     H225497   0.696   7.339   5.126
 8419WAT      O25498   0.466   8.483   5.040
 8419WAT     H125499   0.449   8.501   5.137
 8419WAT     H225500   0.464   8.570   4.990
 8420WAT      O25501   8.136   8.091   5.204
 8420WAT     H125502   8.048   8.077   5.250
 8420WAT     H225503   8.210   8.062   5.265
 8421WAT      O25504   1.214   3.268   1.108
 8421WAT     H125505   1.208   3.236   1.203
 8421WAT     H225506   1.217   3.189   1.046
 8422WAT      O25507   2.977   9.109   3.078
 8422WAT     H125508   2.919   9.075   3.152
 8422WAT     H225509   3.038   9.179   3.114
 8423WAT      O25510   9.442   1.809   2.416
 8423WAT     H125511   9.517   1.871   2.438
 8423WAT     H225512   9.478   1.719   2.393
 8424WAT      O25513   1.927   3.691   1.178
 8424WAT     H125514   1.981   3.711   1.096
 8424WAT     H225515   1.837   3.656   1.151
 8425WAT      O25516   9.626   1.634   0.566
 8425WAT     H125517   9.698   1.704   0.559
 8425WAT     H225518   9.596   1.608   0.474
 8426WAT      O25519   5.168   1.080   2.834
 8426WAT     H125520   5.138   1.123   2.749
 8426WAT     H225521   5.119   1.121   2.911
 8427WAT      O25522   8.821   9.536   8.219
 8427WAT     H125523   8.784   9.469   8.155
 8427WAT     H225524   8.892   9.590   8.173
 8428WAT      O25525   5.696   6.358   4.837
 8428WAT     H125526   5.667   6.392   4.926
 8428WAT     H225527   5.686   6.431   4.769
 8429WAT      O25528   4.257   3.798   3.603
 8429WAT     H125529   4.213   3.709   3.591
 8429WAT     H225530   4.282   3.810   3.698
 8430WAT      O25531   6.880   5.997   2.965
 8430WAT     H125532   6.924   5.949   2.889
 8430WAT     H225533   6.932   5.983   3.048
 8431WAT      O25534   1.688   8.368   8.467
 8431WAT     H125535   1.681   8.323   8.378
 8431WAT     H225536   1.661   8.464   8.458
 8432WAT      O25537   2.606   7.032   5.952
 8432WAT     H125538   2.517   7.067   5.923
 8432WAT     H225539   2.597   6.990   6.042
 8433WAT      O25540   7.052   5.769   0.506
 8433WAT     H125541   7.111   5.849   0.517
 8433WAT     H225542   7.021   5.737   0.595
 8434WAT      O25543   2.567   0.170   2.222
 8434WAT     H125544   2.602   0.158   2.314
 8434WAT     H225545   2.533   0.263   2.210
 8435WAT      O25546   1.619   7.117   2.249
 8435WAT     H125547   1.544   7.073   2.298
 8435WAT     H225548   1.583   7.190   2.192
 8436WAT      O25549   8.259   2.262   8.927
 8436WAT     H125550   8.252   2.348   8.876
 8436WAT     H225551   8.271   2.283   9.024
 8437WAT      O25552   7.211   3.319   1.998
 8437WAT     H125553   7.229   3.377   2.077
 8437WAT     H225554   7.117   3.284   2.002
 8438WAT      O25555   4.239   4.808   7.741
 8438WAT     H125556   4.268   4.846   7.653
 8438WAT     H225557   4.283   4.858   7.815
 8439WAT      O25558   3.075   2.064   8.850
 8439WAT     H125559   3.121   1.999   8.791
 8439WAT     H225560   3.043   2.017   8.933
 8440WAT      O25561   3.152   2.277   3.206
 8440WAT     H125562   3.099   2.286   3.290
 8440WAT     H225563   3.238   2.328   3.214
 8441WAT      O25564   4.059   5.241   6.287
 8441WAT     H125565   3.973   5.219   6.333
 8441WAT     H225566   4.103   5.156   6.258
 8442WAT      O25567   4.579   3.419   4.182
 8442WAT     H125568   4.536   3.482   4.247
 8442WAT     H225569   4.661   3.380   4.223
 8443WAT      O25570   0.511   9.583   8.924
 8443WAT     H125571   0.537   9.573   8.828
 8443WAT     H225572   0.423   9.537   8.939
 8444WAT      O25573   4.009   3.187   1.584
 8444WAT     H125574   4.062   3.222   1.507
 8444WAT     H225575   3.926   3.242   1.595
 8445WAT      O25576   4.918   7.646   1.337
 8445WAT     H125577   4.990   7.586   1.372
 8445WAT     H225578   4.829   7.606   1.360
 8446WAT      O25579   7.534   7.692   2.045
 8446WAT     H125580   7.490   7.775   2.011
 8446WAT     H225581   7.629   7.689   2.014
 8447WAT      O25582   7.039   8.935   5.116
 8447WAT     H125583   7.115   8.871   5.108
 8447WAT     H225584   6.956   8.895   5.078
 8448WAT      O25585   4.371   3.296   4.534
 8448WAT     H125586   4.343   3.362   4.465
 8448WAT     H225587   4.471   3.290   4.536
 8449WAT      O25588   6.837   3.132   7.110
 8449WAT     H125589   6.836   3.054   7.172
 8449WAT     H225590   6.744   3.167   7.099
 8450WAT      O25591   0.081   8.206   6.568
 8450WAT     H125592   0.117   8.174   6.656
 8450WAT     H225593   0.104   8.302   6.555
 8451WAT      O25594   7.637   6.133   1.982
 8451WAT     H125595   7.629   6.034   1.976
 8451WAT     H225596   7.576   6.168   2.052
 8452WAT      O25597   2.603   0.411   9.886
 8452WAT     H125598   2.529   0.451   9.833
 8452WAT     H225599   2.582   0.316   9.907
 8453WAT      O25600   3.677   5.929   6.194
 8453WAT     H125601   3.590   5.891   6.224
 8453WAT     H225602   3.680   5.933   6.094
 8454WAT      O25603   7.637   7.092   3.015
 8454WAT     H125604   7.627   7.022   3.086
 8454WAT     H225605   7.668   7.049   2.930
 8455WAT      O25606   6.590   8.027   3.482
 8455WAT     H125607   6.519   8.011   3.551
 8455WAT     H225608   6.590   7.951   3.416
 8456WAT      O25609   1.509   8.666   4.595
 8456WAT     H125610   1.502   8.761   4.625
 8456WAT     H225611   1.531   8.608   4.673
 8457WAT      O25612   8.430   8.109   2.962
 8457WAT     H125613   8.458   8.160   2.881
 8457WAT     H225614   8.510   8.065   3.003
 8458WAT      O25615   4.099   3.968   2.683
 8458WAT     H125616   4.121   4.037   2.615
 8458WAT     H225617   4.160   3.980   2.762
 8459WAT      O25618   4.459   8.450   4.960
 8459WAT     H125619   4.372   8.496   4.940
 8459WAT     H225620   4.530   8.486   4.901
 8460WAT      O25621   9.653   0.303   0.764
 8460WAT     H125622   9.607   0.231   0.817
 8460WAT     H225623   9.662   0.273   0.669
 8461WAT      O25624   3.176   0.047   3.875
 8461WAT     H125625   3.135   0.007   3.793
 8461WAT     H225626   3.260   0.095   3.850
 8462WAT      O25627   2.312   5.359   7.850
 8462WAT     H125628   2.321   5.261   7.830
 8462WAT     H225629   2.375   5.383   7.925
 8463WAT      O25630   9.411   7.999   3.992
 8463WAT     H125631   9.510   8.014   3.991
 8463WAT     H225632   9.382   7.962   3.904
 8464WAT      O25633   7.522   5.764   3.979
 8464WAT     H125634   7.548   5.759   3.882
 8464WAT     H225635   7.480   5.677   4.007
 8465WAT      O25636   8.740   2.851   2.262
 8465WAT     H125637   8.808   2.778   2.262
 8465WAT     H225638   8.787   2.940   2.268
 8466WAT      O25639   4.431   8.709   6.008
 8466WAT     H125640   4.389   8.618   6.000
 8466WAT     H225641   4.473   8.718   6.098
 8467WAT      O25642   3.752   5.274   8.301
 8467WAT     H125643   3.761   5.289   8.202
 8467WAT     H225644   3.804   5.193   8.327
 8468WAT      O25645   9.825   5.814   2.692
 8468WAT     H125646   9.786   5.735   2.645
 8468WAT     H225647   9.825   5.893   2.630
 8469WAT      O25648   4.945   7.922   1.834
 8469WAT     H125649   4.914   7.919   1.929
 8469WAT     H225650   4.874   7.964   1.777
 8470WAT      O25651   6.832   1.194   4.632
 8470WAT     H125652   6.761   1.189   4.701
 8470WAT     H225653   6.826   1.282   4.584
 8471WAT      O25654   4.887   7.096   0.944
 8471WAT     H125655   4.980   7.112   0.910
 8471WAT     H225656   4.826   7.075   0.868
 8472WAT      O25657   4.185   7.720   1.353
 8472WAT     H125658   4.131   7.801   1.375
 8472WAT     H225659   4.184   7.705   1.254
 8473WAT      O25660   4.915   0.283   7.913
 8473WAT     H125661   4.903   0.184   7.910
 8473WAT     H225662   4.832   0.328   7.879
 8474WAT      O25663   7.321   5.914   6.762
 8474WAT     H125664   7.371   5.992   6.723
 8474WAT     H225665   7.350   5.899   6.856
 8475WAT      O25666   2.856   8.638   7.340
 8475WAT     H125667   2.921   8.696   7.390
 8475WAT     H225668   2.852   8.548   7.384
 8476WAT      O25669   7.709   4.446   7.433
 8476WAT     H125670   7.726   4.492   7.345
 8476WAT     H225671   7.759   4.360   7.436
 8477WAT      O25672   6.994   2.772   3.381
 8477WAT     H125673   7.004   2.842   3.311
 8477WAT     H225674   7.081   2.724   3.394
 8478WAT      O25675   5.313   0.032   7.058
 8478WAT     H125676   5.286   0.069   6.969
 8478WAT     H225677   5.241  -0.028   7.092
 8479WAT      O25678   1.947   1.363   4.021
 8479WAT     H125679   1.959   1.389   3.925
 8479WAT     H225680   2.036   1.359   4.066
 8480WAT      O25681   2.355   8.624   0.628
 8480WAT     H125682   2.308   8.584   0.707
 8480WAT     H225683   2.413   8.699   0.658
 8481WAT      O25684   8.726   8.290   6.998
 8481WAT     H125685   8.645   8.330   6.954
 8481WAT     H225686   8.716   8.293   7.097
 8482WAT      O25687   4.284   9.144   3.612
 8482WAT     H125688   4.306   9.150   3.514
 8482WAT     H225689   4.368   9.145   3.665
 8483WAT      O25690   5.521   3.046   8.417
 8483WAT     H125691   5.584   3.123   8.409
 8483WAT     H225692   5.463   3.058   8.497
 8484WAT      O25693   7.432   0.119   7.939
 8484WAT     H125694   7.521   0.108   7.982
 8484WAT     H225695   7.374   0.177   7.996
 8485WAT      O25696   1.211   5.125   3.365
 8485WAT     H125697   1.147   5.054   3.333
 8485WAT     H225698   1.286   5.134   3.300
 8486WAT      O25699   7.917   8.053   6.964
 8486WAT     H125700   7.953   8.046   7.057
 8486WAT     H225701   7.993   8.064   6.900
 8487WAT      O25702   5.937   2.162   5.926
 8487WAT     H125703   5.934   2.146   6.024
 8487WAT     H225704   6.018   2.119   5.887
 8488WAT      O25705   8.395   0.226   9.282
 8488WAT     H125706   8.396   0.147   9.344
 8488WAT     H225707   8.428   0.307   9.329
 8489WAT      O25708   5.023   2.842   8.694
 8489WAT     H125709   5.095   2.798   8.747
 8489WAT     H225710   5.061   2.921   8.645
 8490WAT      O25711   1.575   2.028   8.283
 8490WAT     H125712   1.521   1.948   8.256
 8490WAT     H225713   1.566   2.100   8.214
 8491WAT      O25714   1.488   0.211   8.754
 8491WAT     H125715   1.471   0.119   8.790
 8491WAT     H225716   1.587   0.227   8.750
 8492WAT      O25717   3.482   8.366   8.787
 8492WAT     H125718   3.518   8.412   8.869
 8492WAT     H225719   3.452   8.274   8.811
 8493WAT      O25720   0.179   9.133   2.321
 8493WAT     H125721   0.172   9.174   2.412
 8493WAT     H225722   0.088   9.116   2.285
 8494WAT      O25723   9.760   6.456   4.901
 8494WAT     H125724   9.787   6.483   4.808
 8494WAT     H225725   9.835   6.477   4.964
 8495WAT      O25726   1.555   7.863   9.874
 8495WAT     H125727   1.540   7.888   9.970
 8495WAT     H225728   1.474   7.815   9.840
 8496WAT      O25729   8.001   6.011   5.686
 8496WAT     H125730   8.025   6.046   5.777
 8496WAT     H225731   8.027   5.915   5.679
 8497WAT      O25732   7.889   7.162   3.293
 8497WAT     H125733   7.904   7.105   3.213
 8497WAT     H225734   7.953   7.135   3.366
 8498WAT      O25735   8.821   0.516   1.371
 8498WAT     H125736   8.883   0.440   1.386
 8498WAT     H225737   8.871   0.602   1.380
 8499WAT      O25738   7.450   3.319   1.882
 8499WAT     H125739   7.507   3.237   1.874
 8499WAT     H225740   7.361   3.294   1.920
 8500WAT      O25741   1.806   8.291   2.622
 8500WAT     H125742   1.854   8.280   2.535
 8500WAT     H225743   1.802   8.204   2.670
 8501WAT      O25744   2.796   1.808   4.127
 8501WAT     H125745   2.896   1.798   4.119
 8501WAT     H225746   2.752   1.763   4.050
 8502WAT      O25747   7.584   9.034   6.085
 8502WAT     H125748   7.539   9.121   6.103
 8502WAT     H225749   7.531   8.982   6.017
 8503WAT      O25750   5.232   7.766   6.774
 8503WAT     H125751   5.298   7.722   6.713
 8503WAT     H225752   5.157   7.703   6.793
 8504WAT      O25753   4.749   3.887   1.534
 8504WAT     H125754   4.799   3.894   1.448
 8504WAT     H225755   4.814   3.889   1.611
 8505WAT      O25756   2.748   7.299   5.897
 8505WAT     H125757   2.706   7.208   5.902
 8505WAT     H225758   2.820   7.305   5.967
 8506WAT      O25759   2.195   9.171   9.432
 8506WAT     H125760   2.098   9.153   9.448
 8506WAT     H225761   2.248   9.091   9.460
 8507WAT      O25762   5.061   1.203   2.623
 8507WAT     H125763   4.999   1.255   2.564
 8507WAT     H225764   5.155   1.232   2.606
 8508WAT      O25765   5.021   4.975   3.506
 8508WAT     H125766   4.934   4.984   3.554
 8508WAT     H225767   5.080   4.911   3.555
 8509WAT      O25768   3.624   9.737   6.559
 8509WAT     H125769   3.583   9.762   6.647
 8509WAT     H225770   3.588   9.798   6.488
 8510WAT      O25771   5.498   8.459   7.536
 8510WAT     H125772   5.498   8.492   7.442
 8510WAT     H225773   5.406   8.427   7.560
 8511WAT      O25774   1.627   1.799   3.297
 8511WAT     H125775   1.543   1.747   3.314
 8511WAT     H225776   1.693   1.740   3.250
 8512WAT      O25777   4.466   0.468   3.468
 8512WAT     H125778   4.500   0.439   3.378
 8512WAT     H225779   4.371   0.497   3.459
 8513WAT      O25780   8.111   9.415   8.187
 8513WAT     H125781   8.204   9.384   8.169
 8513WAT     H225782   8.063   9.430   8.101
 8514WAT      O25783   7.499   7.927   1.297
 8514WAT     H125784   7.564   7.980   1.243
 8514WAT     H225785   7.539   7.905   1.386
 8515WAT      O25786   8.905   2.301   6.050
 8515WAT     H125787   8.853   2.321   5.967
 8515WAT     H225788   8.864   2.224   6.097
 8516WAT      O25789   1.467   2.583   9.222
 8516WAT     H125790   1.367   2.574   9.225
 8516WAT     H225791   1.491   2.664   9.168
 8517WAT      O25792   9.662   3.863   4.603
 8517WAT     H125793   9.613   3.852   4.517
 8517WAT     H225794   9.701   3.775   4.631
 8518WAT      O25795   6.070   7.926   8.560
 8518WAT     H125796   6.159   7.888   8.536
 8518WAT     H225797   6.030   7.969   8.479
 8519WAT      O25798   8.267   7.521   1.045
 8519WAT     H125799   8.360   7.486   1.050
 8519WAT     H225800   8.204   7.458   1.091
 8520WAT      O25801   2.836   6.098   0.905
 8520WAT     H125802   2.815   6.169   0.971
 8520WAT     H225803   2.921   6.120   0.858
 8521WAT      O25804   5.251   5.451   9.014
 8521WAT     H125805   5.247   5.384   8.939
 8521WAT     H225806   5.320   5.519   8.993
 8522WAT      O25807   8.856   9.164   7.882
 8522WAT     H125808   8.785   9.180   7.813
 8522WAT     H225809   8.932   9.116   7.839
 8523WAT      O25810   6.257   6.084   6.152
 8523WAT     H125811   6.206   6.102   6.236
 8523WAT     H225812   6.269   5.986   6.141
 8524WAT      O25813   4.705   5.479   5.584
 8524WAT     H125814   4.766   5.489   5.505
 8524WAT     H225815   4.619   5.528   5.567
 8525WAT      O25816   6.415   6.461   1.375
 8525WAT     H125817   6.432   6.363   1.382
 8525WAT     H225818   6.317   6.479   1.379
 8526WAT      O25819   1.195   2.841   8.573
 8526WAT     H125820   1.134   2.862   8.497
 8526WAT     H225821   1.285   2.881   8.555
 8527WAT      O25822   7.401   4.308   1.486
 8527WAT     H125823   7.335   4.366   1.439
 8527WAT     H225824   7.408   4.220   1.439
 8528WAT      O25825   3.637   0.899   0.427
 8528WAT     H125826   3.710   0.833   0.445
 8528WAT     H225827   3.585   0.914   0.511
 8529WAT      O25828   3.511   2.169   4.454
 8529WAT     H125829   3.519   2.207   4.547
 8529WAT     H225830   3.587   2.202   4.398
 8530WAT      O25831   4.252   9.772   4.089
 8530WAT     H125832   4.313   9.840   4.129
 8530WAT     H225833   4.205   9.722   4.161
 8531WAT      O25834   6.592   0.647   0.868
 8531WAT     H125835   6.515   0.631   0.806
 8531WAT     H225836   6.570   0.721   0.931
 8532WAT      O25837   9.005   7.858   9.084
 8532WAT     H125838   9.054   7.940   9.057
 8532WAT     H225839   9.063   7.778   9.067
 8533WAT      O25840   0.124   8.986   7.412
 8533WAT     H125841   0.210   8.941   7.385
 8533WAT     H225842   0.047   8.938   7.370
 8534WAT      O25843   0.285   5.360   1.074
 8534WAT     H125844   0.373   5.348   1.120
 8534WAT     H225845   0.299   5.363   0.975
 8535WAT      O25846   5.186   2.580   1.063
 8535WAT     H125847   5.116   2.591   0.992
 8535WAT     H225848   5.244   2.502   1.040
 8536WAT      O25849   1.385   9.339   1.813
 8536WAT     H125850   1.370   9.394   1.896
 8536WAT     H225851   1.478   9.354   1.779
 8537WAT      O25852   0.117   5.052   0.382
 8537WAT     H125853   0.169   5.031   0.299
 8537WAT     H225854   0.064   5.136   0.368
 8538WAT      O25855   7.252   0.288   8.043
 8538WAT     H125856   7.253   0.238   8.130
 8538WAT     H225857   7.166   0.270   7.996
 8539WAT      O25858   4.380   4.416   2.502
 8539WAT     H125859   4.454   4.458   2.449
 8539WAT     H225860   4.414   4.389   2.591
 8540WAT      O25861   1.225   3.263   8.619
 8540WAT     H125862   1.276   3.202   8.558
 8540WAT     H225863   1.155   3.311   8.567
 8541WAT      O25864   7.359   0.488   2.614
 8541WAT     H125865   7.367   0.426   2.535
 8541WAT     H225866   7.285   0.553   2.598
 8542WAT      O25867   2.835   6.611   2.443
 8542WAT     H125868   2.899   6.648   2.375
 8542WAT     H225869   2.750   6.583   2.397
 8543WAT      O25870   1.702   4.321   8.633
 8543WAT     H125871   1.786   4.271   8.612
 8543WAT     H225872   1.624   4.274   8.591
 8544WAT      O25873   6.808   0.803   1.981
 8544WAT     H125874   6.762   0.891   1.967
 8544WAT     H225875   6.760   0.732   1.931
 8545WAT      O25876   2.154   3.098   1.830
 8545WAT     H125877   2.225   3.030   1.811
 8545WAT     H225878   2.107   3.122   1.745
 8546WAT      O25879   8.541   4.893   7.360
 8546WAT     H125880   8.633   4.909   7.394
 8546WAT     H225881   8.475   4.909   7.434
 8547WAT      O25882   4.720   4.677   9.216
 8547WAT     H125883   4.698   4.603   9.279
 8547WAT     H225884   4.754   4.756   9.268
 8548WAT      O25885   0.097   8.394   6.853
 8548WAT     H125886   0.125   8.447   6.773
 8548WAT     H225887   0.143   8.305   6.850
 8549WAT      O25888   4.066   2.351   5.037
 8549WAT     H125889   4.139   2.355   5.105
 8549WAT     H225890   4.081   2.420   4.967
 8550WAT      O25891   3.024   6.154   5.585
 8550WAT     H125892   3.022   6.253   5.570
 8550WAT     H225893   3.093   6.113   5.526
 8551WAT      O25894   0.126   3.553   5.561
 8551WAT     H125895   0.057   3.484   5.583
 8551WAT     H225896   0.217   3.513   5.570
 8552WAT      O25897   1.145   5.862   7.093
 8552WAT     H125898   1.072   5.915   7.048
 8552WAT     H225899   1.104   5.786   7.144
 8553WAT      O25900   1.534   3.624   4.524
 8553WAT     H125901   1.526   3.714   4.480
 8553WAT     H225902   1.547   3.638   4.623
 8554WAT      O25903   6.317   3.172   3.818
 8554WAT     H125904   6.335   3.080   3.784
 8554WAT     H225905   6.380   3.193   3.893
 8555WAT      O25906   0.789   5.241   2.404
 8555WAT     H125907   0.844   5.161   2.382
 8555WAT     H225908   0.692   5.217   2.402
 8556WAT      O25909   2.998   0.896   2.927
 8556WAT     H125910   3.034   0.822   2.872
 8556WAT     H225911   2.945   0.859   3.003
 8557WAT      O25912   2.123   5.685   4.594
 8557WAT     H125913   2.026   5.685   4.567
 8557WAT     H225914   2.176   5.630   4.530
 8558WAT      O25915   6.319   3.777   9.122
 8558WAT     H125916   6.300   3.686   9.158
 8558WAT     H225917   6.239   3.810   9.071
 8559WAT      O25918   9.603   2.483   3.109
 8559WAT     H125919   9.555   2.542   3.045
 8559WAT     H225920   9.680   2.439   3.063
 8560WAT      O25921   2.433   4.397   5.566
 8560WAT     H125922   2.518   4.365   5.523
 8560WAT     H225923   2.360   4.330   5.550
 8561WAT      O25924   1.883   1.192   1.648
 8561WAT     H125925   1.957   1.236   1.698
 8561WAT     H225926   1.916   1.164   1.558
 8562WAT      O25927   5.591   0.725   6.057
 8562WAT     H125928   5.619   0.807   6.007
 8562WAT     H225929   5.633   0.645   6.015
 8563WAT      O25930   9.163   9.019   6.702
 8563WAT     H125931   9.168   8.969   6.789
 8563WAT     H225932   9.152   8.954   6.627
 8564WAT      O25933   8.449   5.294   3.117
 8564WAT     H125934   8.397   5.356   3.058
 8564WAT     H225935   8.535   5.338   3.144
 8565WAT      O25936   8.519   8.365   0.759
 8565WAT     H125937   8.449   8.317   0.813
 8565WAT     H225938   8.495   8.363   0.663
 8566WAT      O25939   4.595   2.548   5.864
 8566WAT     H125940   4.524   2.517   5.801
 8566WAT     H225941   4.685   2.531   5.825
 8567WAT      O25942   7.795   5.591   8.832
 8567WAT     H125943   7.829   5.588   8.926
 8567WAT     H225944   7.837   5.667   8.783
 8568WAT      O25945   0.344   7.203   4.988
 8568WAT     H125946   0.336   7.200   5.088
 8568WAT     H225947   0.330   7.112   4.950
 8569WAT      O25948   8.000   8.745   1.836
 8569WAT     H125949   8.096   8.741   1.806
 8569WAT     H225950   7.959   8.831   1.807
 8570WAT      O25951   7.392   4.438   2.350
 8570WAT     H125952   7.301   4.408   2.379
 8570WAT     H225953   7.414   4.526   2.394
 8571WAT      O25954   4.970   9.178   7.505
 8571WAT     H125955   5.038   9.182   7.433
 8571WAT     H225956   4.988   9.099   7.564
 8572WAT      O25957   1.543   8.621   0.923
 8572WAT     H125958   1.555   8.543   0.985
 8572WAT     H225959   1.629   8.639   0.875
 8573WAT      O25960   9.405   2.621   8.966
 8573WAT     H125961   9.360   2.535   8.943
 8573WAT     H225962   9.417   2.626   9.066
 8574WAT      O25963   0.483   5.581   3.681
 8574WAT     H125964   0.521   5.548   3.767
 8574WAT     H225965   0.482   5.681   3.681
 8575WAT      O25966   2.561   5.613   8.309
 8575WAT     H125967   2.533   5.557   8.232
 8575WAT     H225968   2.496   5.601   8.384
 8576WAT      O25969   6.624   3.350   9.611
 8576WAT     H125970   6.660   3.319   9.699
 8576WAT     H225971   6.529   3.320   9.601
 8577WAT      O25972   5.646   2.544   2.503
 8577WAT     H125973   5.602   2.591   2.426
 8577WAT     H225974   5.735   2.508   2.473
 8578WAT      O25975   6.892   4.776   0.325
 8578WAT     H125976   6.946   4.847   0.370
 8578WAT     H225977   6.797   4.804   0.321
 8579WAT      O25978   6.648   0.212   1.806
 8579WAT     H125979   6.601   0.158   1.737
 8579WAT     H225980   6.588   0.223   1.886
 8580WAT      O25981   2.375   8.233   6.509
 8580WAT     H125982   2.385   8.262   6.604
 8580WAT     H225983   2.281   8.247   6.479
 8581WAT      O25984   0.609   9.398   1.736
 8581WAT     H125985   0.697   9.413   1.779
 8581WAT     H225986   0.549   9.347   1.798
 8582WAT      O25987   2.344   0.936   3.736
 8582WAT     H125988   2.370   1.027   3.702
 8582WAT     H225989   2.245   0.927   3.733
 8583WAT      O25990   9.613   8.669   6.685
 8583WAT     H125991   9.514   8.678   6.699
 8583WAT     H225992   9.661   8.729   6.748
 8584WAT      O25993   0.348   8.517   2.118
 8584WAT     H125994   0.316   8.586   2.053
 8584WAT     H225995   0.404   8.450   2.070
 8585WAT      O25996   0.485   8.546   6.775
 8585WAT     H125997   0.496   8.614   6.702
 8585WAT     H225998   0.478   8.593   6.863
 8586WAT      O25999   5.427   1.563   5.840
 8586WAT     H126000   5.427   1.546   5.939
 8586WAT     H226001   5.511   1.612   5.814
 8587WAT      O26002   7.606   5.352   5.817
 8587WAT     H126003   7.528   5.409   5.788
 8587WAT     H226004   7.616   5.275   5.754
 8588WAT      O26005   0.509   8.529   3.707
 8588WAT     H126006   0.465   8.452   3.753
 8588WAT     H226007   0.490   8.613   3.757
 8589WAT      O26008   3.684   0.570   8.421
 8589WAT     H126009   3.631   0.580   8.505
 8589WAT     H226010   3.681   0.475   8.390
 8590WAT      O26011   0.578   1.115   8.734
 8590WAT     H126012   0.585   1.214   8.720
 8590WAT     H226013   0.627   1.089   8.817
 8591WAT      O26014   4.831   3.394   8.313
 8591WAT     H126015   4.874   3.442   8.236
 8591WAT     H226016   4.737   3.370   8.289
 8592WAT      O26017   7.421   3.612   8.517
 8592WAT     H126018   7.442   3.562   8.434
 8592WAT     H226019   7.503   3.660   8.549
 8593WAT      O26020   3.536   9.379   8.679
 8593WAT     H126021   3.560   9.374   8.776
 8593WAT     H226022   3.545   9.474   8.648
 8594WAT      O26023   9.352   0.181   2.209
 8594WAT     H126024   9.397   0.189   2.298
 8594WAT     H226025   9.281   0.252   2.201
 8595WAT      O26026   4.819   3.598   4.894
 8595WAT     H126027   4.894   3.658   4.921
 8595WAT     H226028   4.846   3.544   4.814
 8596WAT      O26029   9.014   6.886   9.520
 8596WAT     H126030   9.003   6.960   9.587
 8596WAT     H226031   8.969   6.913   9.434
 8597WAT      O26032   8.032   1.850   9.585
 8597WAT     H126033   8.070   1.894   9.503
 8597WAT     H226034   7.938   1.823   9.567
 8598WAT      O26035   6.013   7.623   3.010
 8598WAT     H126036   6.047   7.614   2.916
 8598WAT     H226037   5.916   7.647   3.007
 8599WAT      O26038   7.214   5.282   7.881
 8599WAT     H126039   7.277   5.326   7.946
 8599WAT     H226040   7.138   5.344   7.861
 8600WAT      O26041   2.916   7.304   0.357
 8600WAT     H126042   2.883   7.397   0.376
 8600WAT     H226043   2.951   7.264   0.441
 8601WAT      O26044   9.894   4.491   2.218
 8601WAT     H126045   9.819   4.551   2.188
 8601WAT     H226046   9.864   4.396   2.214
 8602WAT      O26047   2.494   0.495   5.223
 8602WAT     H126048   2.485   0.590   5.192
 8602WAT     H226049   2.559   0.491   5.299
 8603WAT      O26050   5.104   7.225   0.210
 8603WAT     H126051   5.098   7.221   0.310
 8603WAT     H226052   5.198   7.246   0.183
 8604WAT      O26053   7.355   6.955   1.516
 8604WAT     H126054   7.265   6.911   1.521
 8604WAT     H226055   7.405   6.920   1.437
 8605WAT      O26056   0.742   4.138   3.758
 8605WAT     H126057   0.820   4.177   3.708
 8605WAT     H226058   0.723   4.046   3.724
 8606WAT      O26059   2.577   3.911   3.345
 8606WAT     H126060   2.645   3.961   3.399
 8606WAT     H226061   2.617   3.826   3.312
 8607WAT      O26062   5.556   9.492   6.115
 8607WAT     H126063   5.594   9.413   6.162
 8607WAT     H226064   5.463   9.471   6.083
 8608WAT      O26065   5.153   0.835   1.690
 8608WAT     H126066   5.220   0.800   1.755
 8608WAT     H226067   5.115   0.759   1.637
 8609WAT      O26068   7.783   5.632   6.949
 8609WAT     H126069   7.765   5.725   6.916
 8609WAT     H226070   7.734   5.618   7.035
 8610WAT      O26071   9.294   6.041   9.663
 8610WAT     H126072   9.362   5.972   9.639
 8610WAT     H226073   9.332   6.105   9.729
 8611WAT      O26074   9.417   8.448   9.480
 8611WAT     H126075   9.366   8.511   9.422
 8611WAT     H226076   9.362   8.425   9.561
 8612WAT      O26077   5.614   5.080   2.538
 8612WAT     H126078   5.647   5.076   2.632
 8612WAT     H226079   5.517   5.104   2.538
 8613WAT      O26080   6.701   5.249   2.439
 8613WAT     H126081   6.754   5.183   2.493
 8613WAT     H226082   6.760   5.323   2.408
 8614WAT      O26083   4.568   2.417   1.242
 8614WAT     H126084   4.616   2.445   1.159
 8614WAT     H226085   4.486   2.366   1.218
 8615WAT      O26086   2.691   9.595   4.363
 8615WAT     H126087   2.745   9.563   4.285
 8615WAT     H226088   2.749   9.598   4.445
 8616WAT      O26089   2.813   1.232   2.366
 8616WAT     H126090   2.724   1.266   2.335
 8616WAT     H226091   2.855   1.178   2.294
 8617WAT      O26092   7.226   3.269   7.227
 8617WAT     H126093   7.191   3.221   7.308
 8617WAT     H226094   7.321   3.297   7.243
 8618WAT      O26095   8.752   6.544   0.405
 8618WAT     H126096   8.667   6.597   0.404
 8618WAT     H226097   8.775   6.519   0.499
 8619WAT      O26098   7.111   2.153   3.952
 8619WAT     H126099   7.138   2.071   3.902
 8619WAT     H226100   7.012   2.151   3.969
 8620WAT      O26101   2.424   9.588   2.681
 8620WAT     H126102   2.472   9.553   2.601
 8620WAT     H226103   2.369   9.515   2.721
 8621WAT      O26104   3.796   8.159   0.643
 8621WAT     H126105   3.766   8.214   0.565
 8621WAT     H226106   3.752   8.070   0.640
 8622WAT      O26107   6.208   3.669   2.853
 8622WAT     H126108   6.236   3.573   2.854
 8622WAT     H226109   6.247   3.716   2.932
 8623WAT      O26110   1.696   8.846   1.888
 8623WAT     H126111   1.600   8.826   1.871
 8623WAT     H226112   1.710   8.945   1.890
 8624WAT      O26113   1.159   5.989   1.292
 8624WAT     H126114   1.169   5.923   1.217
 8624WAT     H226115   1.173   5.942   1.379
 8625WAT      O26116   1.178   1.845   8.695
 8625WAT     H126117   1.236   1.925   8.708
 8625WAT     H226118   1.147   1.811   8.784
 8626WAT      O26119   8.125   0.115   4.302
 8626WAT     H126120   8.201   0.084   4.245
 8626WAT     H226121   8.128   0.067   4.390
 8627WAT      O26122   7.007   1.834   0.194
 8627WAT     H126123   7.019   1.904   0.265
 8627WAT     H226124   6.911   1.833   0.166
 8628WAT      O26125   1.932   9.095   7.743
 8628WAT     H126126   2.027   9.067   7.732
 8628WAT     H226127   1.884   9.085   7.656
 8629WAT      O26128   6.855   1.458   0.389
 8629WAT     H126129   6.903   1.475   0.475
 8629WAT     H226130   6.793   1.535   0.370
 8630WAT      O26131   8.545   1.330   5.722
 8630WAT     H126132   8.469   1.365   5.777
 8630WAT     H226133   8.597   1.263   5.775
 8631WAT      O26134   0.838   6.326   8.060
 8631WAT     H126135   0.812   6.269   8.138
 8631WAT     H226136   0.901   6.275   8.002
 8632WAT      O26137   9.404   8.331   0.827
 8632WAT     H126138   9.449   8.246   0.800
 8632WAT     H226139   9.472   8.398   0.855
 8633WAT      O26140   9.842   0.746   3.849
 8633WAT     H126141   9.844   0.768   3.751
 8633WAT     H226142   9.916   0.796   3.895
 8634WAT      O26143   2.131   4.806   3.540
 8634WAT     H126144   2.158   4.855   3.457
 8634WAT     H226145   2.148   4.708   3.528
 8635WAT      O26146   2.851   7.211   1.205
 8635WAT     H126147   2.868   7.307   1.228
 8635WAT     H226148   2.867   7.197   1.107
 8636WAT      O26149   6.028   7.459   2.183
 8636WAT     H126150   5.998   7.364   2.173
 8636WAT     H226151   5.961   7.521   2.141
 8637WAT      O26152   6.059   5.513   4.050
 8637WAT     H126153   5.973   5.464   4.036
 8637WAT     H226154   6.126   5.483   3.981
 8638WAT      O26155   5.660   1.701   5.335
 8638WAT     H126156   5.652   1.655   5.246
 8638WAT     H226157   5.606   1.785   5.334
 8639WAT      O26158   3.453   9.612   2.804
 8639WAT     H126159   3.435   9.567   2.716
 8639WAT     H226160   3.544   9.653   2.801
 8640WAT      O26161   0.458   5.794   0.101
 8640WAT     H126162   0.373   5.840   0.077
 8640WAT     H226163   0.530   5.861   0.119
 8641WAT      O26164   1.133   4.297   4.823
 8641WAT     H126165   1.206   4.238   4.788
 8641WAT     H226166   1.098   4.259   4.909
 8642WAT      O26167   5.782   0.597   4.937
 8642WAT     H126168   5.717   0.668   4.965
 8642WAT     H226169   5.863   0.640   4.896
 8643WAT      O26170   6.288   9.265   1.019
 8643WAT     H126171   6.280   9.353   1.066
 8643WAT     H226172   6.330   9.280   0.929
 8644WAT      O26173   0.709   8.976   6.621
 8644WAT     H126174   0.644   9.014   6.688
 8644WAT     H226175   0.786   9.038   6.610
 8645WAT      O26176   3.996   7.250   4.131
 8645WAT     H126177   4.092   7.223   4.124
 8645WAT     H226178   3.974   7.312   4.056
 8646WAT      O26179   5.599   4.306   8.782
 8646WAT     H126180   5.586   4.368   8.705
 8646WAT     H226181   5.648   4.225   8.752
 8647WAT      O26182   7.038   0.302   7.350
 8647WAT     H126183   7.035   0.304   7.450
 8647WAT     H226184   7.108   0.366   7.317
 8648WAT      O26185   9.330   3.278   1.030
 8648WAT     H126186   9.370   3.192   0.999
 8648WAT     H226187   9.249   3.299   0.974
 8649WAT      O26188   6.750   1.110   5.256
 8649WAT     H126189   6.804   1.038   5.300
 8649WAT     H226190   6.757   1.194   5.309
 8650WAT      O26191   5.661   6.697   7.218
 8650WAT     H126192   5.652   6.744   7.306
 8650WAT     H226193   5.756   6.699   7.188
 8651WAT      O26194   8.582   2.130   4.065
 8651WAT     H126195   8.573   2.131   3.965
 8651WAT     H226196   8.548   2.216   4.102
 8652WAT      O26197   5.111   5.163   9.621
 8652WAT     H126198   5.162   5.138   9.703
 8652WAT     H226199   5.148   5.248   9.583
 8653WAT      O26200   0.317   1.349   3.131
 8653WAT     H126201   0.367   1.275   3.177
 8653WAT     H226202   0.257   1.395   3.197
 8654WAT      O26203   9.104   1.618   1.312
 8654WAT     H126204   9.128   1.578   1.224
 8654WAT     H226205   9.057   1.550   1.368
 8655WAT      O26206   2.829   0.868   4.752
 8655WAT     H126207   2.776   0.789   4.722
 8655WAT     H226208   2.822   0.941   4.684
 8656WAT      O26209   7.375   1.120   4.916
 8656WAT     H126210   7.391   1.155   4.824
 8656WAT     H226211   7.360   1.021   4.911
 8657WAT      O26212   9.655   5.098   2.135
 8657WAT     H126213   9.754   5.083   2.138
 8657WAT     H226214   9.634   5.188   2.174
 8658WAT      O26215   7.546   4.009   0.953
 8658WAT     H126216   7.610   3.946   0.997
 8658WAT     H226217   7.453   3.984   0.978
 8659WAT      O26218   5.811   7.895   9.489
 8659WAT     H126219   5.755   7.977   9.499
 8659WAT     H226220   5.813   7.845   9.576
 8660WAT      O26221   4.081   3.916   2.233
 8660WAT     H126222   4.155   3.980   2.251
 8660WAT     H226223   4.091   3.878   2.141
 8661WAT      O26224   7.655   3.874   1.873
 8661WAT     H126225   7.738   3.911   1.913
 8661WAT     H226226   7.628   3.791   1.923
 8662WAT      O26227   2.450   3.118   4.778
 8662WAT     H126228   2.359   3.131   4.819
 8662WAT     H226229   2.488   3.207   4.753
 8663WAT      O26230   5.598   7.480   7.943
 8663WAT     H126231   5.676   7.489   8.006
 8663WAT     H226232   5.539   7.405   7.974
 8664WAT      O26233   6.607   7.347   7.408
 8664WAT     H126234   6.593   7.274   7.475
 8664WAT     H226235   6.604   7.435   7.455
 8665WAT      O26236   6.792   8.594   5.893
 8665WAT     H126237   6.856   8.670   5.876
 8665WAT     H226238   6.803   8.561   5.986
 8666WAT      O26239   9.538   6.659   9.542
 8666WAT     H126240   9.548   6.565   9.511
 8666WAT     H226241   9.590   6.720   9.483
 8667WAT      O26242   6.192   4.894   6.180
 8667WAT     H126243   6.168   4.865   6.273
 8667WAT     H226244   6.199   4.814   6.120
 8668WAT      O26245   1.027   3.295   9.141
 8668WAT     H126246   1.121   3.261   9.139
 8668WAT     H226247   0.979   3.264   9.059
 8669WAT      O26248   2.274   1.960   3.838
 8669WAT     H126249   2.176   1.941   3.841
 8669WAT     H226250   2.321   1.904   3.907
 8670WAT      O26251   2.446   2.737   5.150
 8670WAT     H126252   2.494   2.779   5.227
 8670WAT     H226253   2.453   2.638   5.157
 8671WAT      O26254   9.051   3.529   8.159
 8671WAT     H126255   9.057   3.588   8.079
 8671WAT     H226256   8.962   3.484   8.162
 8672WAT      O26257   6.812   9.002   4.415
 8672WAT     H126258   6.826   9.097   4.389
 8672WAT     H226259   6.719   8.974   4.394
 8673WAT      O26260   0.100   4.629   8.287
 8673WAT     H126261   0.093   4.639   8.386
 8673WAT     H226262   0.014   4.655   8.244
 8674WAT      O26263   0.720   3.311   4.146
 8674WAT     H126264   0.803   3.274   4.105
 8674WAT     H226265   0.643   3.297   4.085
 8675WAT      O26266   0.698   9.805   0.695
 8675WAT     H126267   0.741   9.784   0.607
 8675WAT     H226268   0.702   9.724   0.754
 8676WAT      O26269   0.284   9.351   2.802
 8676WAT     H126270   0.284   9.318   2.896
 8676WAT     H226271   0.217   9.424   2.792
 8677WAT      O26272   8.601   6.775   2.324
 8677WAT     H126273   8.572   6.685   2.291
 8677WAT     H226274   8.557   6.846   2.269
 8678WAT      O26275   1.718   1.359   4.839
 8678WAT     H126276   1.677   1.450   4.839
 8678WAT     H226277   1.678   1.304   4.767
 8679WAT      O26278   2.588   2.844   5.371
 8679WAT     H126279   2.570   2.842   5.469
 8679WAT     H226280   2.687   2.845   5.355
 8680WAT      O26281   3.481   9.743   2.416
 8680WAT     H126282   3.567   9.779   2.454
 8680WAT     H226283   3.427   9.819   2.379
 8681WAT      O26284   0.664   4.256   5.692
 8681WAT     H126285   0.620   4.166   5.683
 8681WAT     H226286   0.655   4.307   5.606
 8682WAT      O26287   4.646   7.268   2.487
 8682WAT     H126288   4.590   7.317   2.554
 8682WAT     H226289   4.632   7.169   2.498
 8683WAT      O26290   9.344   8.837   4.304
 8683WAT     H126291   9.363   8.934   4.320
 8683WAT     H226292   9.246   8.824   4.289
 8684WAT      O26293   4.408   0.865   8.448
 8684WAT     H126294   4.432   0.961   8.458
 8684WAT     H226295   4.488   0.813   8.418
 8685WAT      O26296   0.989   4.871   7.208
 8685WAT     H126297   0.895   4.844   7.228
 8685WAT     H226298   1.032   4.801   7.150
 8686WAT      O26299   8.796   2.776   6.950
 8686WAT     H126300   8.756   2.685   6.964
 8686WAT     H226301   8.895   2.767   6.937
 8687WAT      O26302   5.979   3.121   7.040
 8687WAT     H126303   5.928   3.202   7.012
 8687WAT     H226304   6.071   3.125   7.001
 8688WAT      O26305   2.757   9.448   6.469
 8688WAT     H126306   2.759   9.542   6.503
 8688WAT     H226307   2.666   9.427   6.433
 8689WAT      O26308   4.997   9.228   6.752
 8689WAT     H126309   4.994   9.273   6.841
 8689WAT     H226310   4.956   9.288   6.682
 8690WAT      O26311   0.849   6.052   3.003
 8690WAT     H126312   0.781   6.090   3.065
 8690WAT     H226313   0.906   5.986   3.052
 8691WAT      O26314   3.007   2.243   9.613
 8691WAT     H126315   2.985   2.150   9.585
 8691WAT     H226316   3.102   2.264   9.587
 8692WAT      O26317   7.560   2.186   4.175
 8692WAT     H126318   7.460   2.196   4.178
 8692WAT     H226319   7.590   2.178   4.080
 8693WAT      O26320   7.823   5.363   7.929
 8693WAT     H126321   7.733   5.378   7.888
 8693WAT     H226322   7.812   5.351   8.028
 8694WAT      O26323   9.697   7.885   8.245
 8694WAT     H126324   9.727   7.848   8.333
 8694WAT     H226325   9.695   7.985   8.251
 8695WAT      O26326   8.430   3.102   0.571
 8695WAT     H126327   8.479   3.134   0.489
 8695WAT     H226328   8.347   3.054   0.543
 8696WAT      O26329   0.319   5.792   2.964
 8696WAT     H126330   0.234   5.742   2.978
 8696WAT     H226331   0.394   5.726   2.954
 8697WAT      O26332   8.036   8.714   7.103
 8697WAT     H126333   7.941   8.695   7.079
 8697WAT     H226334   8.042   8.806   7.143
 8698WAT      O26335   1.952   4.049   6.977
 8698WAT     H126336   1.880   4.046   7.045
 8698WAT     H226337   1.974   4.145   6.956
 8699WAT      O26338   4.237   0.099   6.174
 8699WAT     H126339   4.226   0.011   6.128
 8699WAT     H226340   4.274   0.084   6.266
 8700WAT      O26341   9.302   3.482   8.250
 8700WAT     H126342   9.211   3.497   8.212
 8700WAT     H226343   9.307   3.523   8.341
 8701WAT      O26344   5.512   5.666   0.922
 8701WAT     H126345   5.556   5.755   0.921
 8701WAT     H226346   5.507   5.631   0.828
 8702WAT      O26347   2.289   4.573   2.044
 8702WAT     H126348   2.342   4.657   2.029
 8702WAT     H226349   2.219   4.565   1.973
 8703WAT      O26350   8.010   1.545   5.456
 8703WAT     H126351   8.089   1.534   5.395
 8703WAT     H226352   7.934   1.490   5.422
 8704WAT      O26353   7.549   5.376   7.474
 8704WAT     H126354   7.575   5.289   7.433
 8704WAT     H226355   7.467   5.364   7.530
 8705WAT      O26356   9.333   6.242   0.953
 8705WAT     H126357   9.422   6.267   0.991
 8705WAT     H226358   9.261   6.260   1.021
 8706WAT      O26359   0.662   9.649   4.309
 8706WAT     H126360   0.729   9.715   4.275
 8706WAT     H226361   0.660   9.570   4.248
 8707WAT      O26362   8.591   3.392   2.282
 8707WAT     H126363   8.552   3.436   2.201
 8707WAT     H226364   8.560   3.297   2.287
 8708WAT      O26365   3.264   8.979   3.948
 8708WAT     H126366   3.333   9.050   3.931
 8708WAT     H226367   3.173   9.015   3.929
 8709WAT      O26368   4.903   3.620   6.757
 8709WAT     H126369   4.935   3.579   6.671
 8709WAT     H226370   4.905   3.719   6.750
 8710WAT      O26371   1.331   9.641   2.367
 8710WAT     H126372   1.252   9.607   2.317
 8710WAT     H226373   1.403   9.665   2.301
 8711WAT      O26374   9.063   0.096   8.200
 8711WAT     H126375   9.024   0.112   8.291
 8711WAT     H226376   9.040   0.172   8.140
 8712WAT      O26377   9.800   0.842   8.887
 8712WAT     H126378   9.835   0.798   8.804
 8712WAT     H226379   9.807   0.941   8.878
 8713WAT      O26380   0.340   6.912   8.262
 8713WAT     H126381   0.311   6.882   8.171
 8713WAT     H226382   0.427   6.961   8.256
 8714WAT      O26383   6.174   1.083   8.105
 8714WAT     H126384   6.187   1.127   8.017
 8714WAT     H226385   6.080   1.096   8.136
 8715WAT      O26386   3.258   3.605   3.692
 8715WAT     H126387   3.268   3.546   3.772
 8715WAT     H226388   3.315   3.686   3.703
 8716WAT      O26389   1.607   1.660   2.722
 8716WAT     H126390   1.699   1.627   2.743
 8716WAT     H226391   1.548   1.647   2.803
 8717WAT      O26392   4.201   7.297   0.291
 8717WAT     H126393   4.128   7.234   0.264
 8717WAT     H226394   4.161   7.386   0.313
 8718WAT      O26395   3.806   7.088   2.064
 8718WAT     H126396   3.758   7.136   1.991
 8718WAT     H226397   3.801   6.990   2.049
 8719WAT      O26398   8.527   3.262   7.832
 8719WAT     H126399   8.600   3.329   7.819
 8719WAT     H226400   8.464   3.295   7.903
 8720WAT      O26401   5.553   0.124   9.135
 8720WAT     H126402   5.464   0.112   9.089
 8720WAT     H226403   5.558   0.065   9.215
 8721WAT      O26404   8.814   0.813   9.513
 8721WAT     H126405   8.858   0.889   9.465
 8721WAT     H226406   8.884   0.755   9.555
 8722WAT      O26407   3.792   6.947   1.723
 8722WAT     H126408   3.804   6.876   1.792
 8722WAT     H226409   3.759   7.031   1.766
 8723WAT      O26410   8.975   7.909   9.887
 8723WAT     H126411   8.990   7.935   9.982
 8723WAT     H226412   8.960   7.991   9.832
 8724WAT      O26413   6.943   6.250   2.596
 8724WAT     H126414   6.925   6.237   2.693
 8724WAT     H226415   7.040   6.270   2.581
 8725WAT      O26416   6.224   7.651   8.105
 8725WAT     H126417   6.226   7.737   8.156
 8725WAT     H226418   6.133   7.637   8.066
 8726WAT      O26419   1.246   2.599   7.292
 8726WAT     H126420   1.309   2.616   7.216
 8726WAT     H226421   1.170   2.542   7.260
 8727WAT      O26422   1.351   5.807   4.065
 8727WAT     H126423   1.280   5.739   4.086
 8727WAT     H226424   1.390   5.841   4.150
 8728WAT      O26425   3.410   2.366   8.942
 8728WAT     H126426   3.416   2.466   8.942
 8728WAT     H226427   3.318   2.338   8.915
 8729WAT      O26428   1.210   3.292   6.373
 8729WAT     H126429   1.197   3.206   6.323
 8729WAT     H226430   1.121   3.335   6.388
 8730WAT      O26431   3.970   1.958   4.881
 8730WAT     H126432   3.978   1.877   4.823
 8730WAT     H226433   3.893   2.014   4.850
 8731WAT      O26434   7.220   0.012   8.229
 8731WAT     H126435   7.198   0.009   8.326
 8731WAT     H226436   7.318  -0.006   8.216
 8732WAT      O26437   9.757   6.566   7.374
 8732WAT     H126438   9.713   6.587   7.462
 8732WAT     H226439   9.774   6.651   7.324
 8733WAT      O26440   1.621   2.390   2.929
 8733WAT     H126441   1.561   2.310   2.932
 8733WAT     H226442   1.649   2.415   3.022
 8734WAT      O26443   6.979   7.723   6.869
 8734WAT     H126444   6.966   7.744   6.966
 8734WAT     H226445   7.071   7.751   6.841
 8735WAT      O26446   4.706   0.349   6.272
 8735WAT     H126447   4.652   0.292   6.210
 8735WAT     H226448   4.749   0.422   6.220
 8736WAT      O26449   5.647   1.268   7.696
 8736WAT     H126450   5.676   1.334   7.628
 8736WAT     H226451   5.675   1.176   7.668
 8737WAT      O26452   9.315   0.718   9.399
 8737WAT     H126453   9.258   0.784   9.447
 8737WAT     H226454   9.257   0.656   9.345
 8738WAT      O26455   1.608   8.253   8.210
 8738WAT     H126456   1.554   8.273   8.129
 8738WAT     H226457   1.705   8.258   8.188
 8739WAT      O26458   4.245   7.127   0.722
 8739WAT     H126459   4.287   7.082   0.643
 8739WAT     H226460   4.245   7.064   0.800
 8740WAT      O26461   2.253   3.649   5.081
 8740WAT     H126462   2.179   3.662   5.016
 8740WAT     H226463   2.243   3.715   5.156
 8741WAT      O26464   5.440   7.774   2.948
 8741WAT     H126465   5.483   7.810   2.865
 8741WAT     H226466   5.379   7.699   2.923
 8742WAT      O26467   4.968   1.237   5.498
 8742WAT     H126468   4.886   1.294   5.502
 8742WAT     H226469   5.015   1.241   5.586
 8743WAT      O26470   1.737   7.580   3.742
 8743WAT     H126471   1.772   7.644   3.810
 8743WAT     H226472   1.813   7.543   3.688
 8744WAT      O26473   5.391   6.595   2.989
 8744WAT     H126474   5.381   6.501   2.957
 8744WAT     H226475   5.470   6.638   2.945
 8745WAT      O26476   2.241   0.825   6.044
 8745WAT     H126477   2.189   0.811   5.960
 8745WAT     H226478   2.218   0.754   6.110
 8746WAT      O26479   8.017   3.883   5.961
 8746WAT     H126480   8.056   3.941   5.889
 8746WAT     H226481   8.091   3.843   6.014
 8747WAT      O26482   7.206   8.675   2.329
 8747WAT     H126483   7.189   8.631   2.417
 8747WAT     H226484   7.166   8.767   2.330
 8748WAT      O26485   3.487   5.220   8.277
 8748WAT     H126486   3.433   5.296   8.240
 8748WAT     H226487   3.579   5.252   8.300
 8749WAT      O26488   3.677   9.122   0.785
 8749WAT     H126489   3.764   9.097   0.828
 8749WAT     H226490   3.604   9.123   0.853
 8750WAT      O26491   3.390   8.512   6.455
 8750WAT     H126492   3.385   8.465   6.367
 8750WAT     H226493   3.441   8.597   6.445
 8751WAT      O26494   1.069   0.611   3.630
 8751WAT     H126495   1.072   0.587   3.728
 8751WAT     H226496   1.035   0.704   3.620
 8752WAT      O26497   4.238   4.451   2.097
 8752WAT     H126498   4.308   4.382   2.116
 8752WAT     H226499   4.263   4.502   2.016
 8753WAT      O26500   4.159   4.211   9.615
 8753WAT     H126501   4.132   4.276   9.545
 8753WAT     H226502   4.248   4.237   9.652
 8754WAT      O26503   6.100   2.531   2.616
 8754WAT     H126504   6.163   2.540   2.693
 8754WAT     H226505   6.076   2.623   2.583
 8755WAT      O26506   0.167   6.662   1.853
 8755WAT     H126507   0.192   6.656   1.756
 8755WAT     H226508   0.180   6.755   1.885
 8756WAT      O26509   3.241   3.476   4.626
 8756WAT     H126510   3.265   3.536   4.702
 8756WAT     H226511   3.268   3.520   4.540
 8757WAT      O26512   7.511   2.024   3.452
 8757WAT     H126513   7.427   2.071   3.425
 8757WAT     H226514   7.531   1.951   3.387
 8758WAT      O26515   5.022   0.138   3.446
 8758WAT     H126516   4.977   0.116   3.533
 8758WAT     H226517   4.960   0.191   3.389
 8759WAT      O26518   8.870   3.970   9.153
 8759WAT     H126519   8.955   3.924   9.179
 8759WAT     H226520   8.890   4.064   9.126
 8760WAT      O26521   2.734   9.174   6.844
 8760WAT     H126522   2.684   9.260   6.833
 8760WAT     H226523   2.669   9.099   6.851
 8761WAT      O26524   1.479   0.050   8.174
 8761WAT     H126525   1.557   0.101   8.211
 8761WAT     H226526   1.507   0.004   8.089
 8762WAT      O26527   0.472   3.590   9.437
 8762WAT     H126528   0.478   3.565   9.340
 8762WAT     H226529   0.402   3.659   9.450
 8763WAT      O26530   7.845   8.297   9.136
 8763WAT     H126531   7.927   8.265   9.182
 8763WAT     H226532   7.780   8.222   9.126
 8764WAT      O26533   2.251   6.694   2.128
 8764WAT     H126534   2.289   6.786   2.132
 8764WAT     H226535   2.151   6.699   2.118
 8765WAT      O26536   6.468   8.392   2.019
 8765WAT     H126537   6.550   8.448   2.005
 8765WAT     H226538   6.495   8.300   2.047
 8766WAT      O26539   2.624   4.997   2.132
 8766WAT     H126540   2.621   4.908   2.179
 8766WAT     H226541   2.594   5.068   2.195
 8767WAT      O26542   5.509   5.525   0.671
 8767WAT     H126543   5.425   5.488   0.711
 8767WAT     H226544   5.488   5.570   0.584
 8768WAT      O26545   5.280   3.382   3.613
 8768WAT     H126546   5.322   3.458   3.564
 8768WAT     H226547   5.299   3.297   3.565
 8769WAT      O26548   0.085   8.996   2.852
 8769WAT     H126549   0.066   8.915   2.908
 8769WAT     H226550   0.109   8.968   2.760
 8770WAT      O26551   9.694   0.555   9.626
 8770WAT     H126552   9.730   0.541   9.718
 8770WAT     H226553   9.763   0.601   9.569
 8771WAT      O26554   9.513   0.619   8.711
 8771WAT     H126555   9.543   0.592   8.620
 8771WAT     H226556   9.593   0.622   8.772
 8772WAT      O26557   4.756   9.357   1.565
 8772WAT     H126558   4.694   9.418   1.614
 8772WAT     H226559   4.846   9.401   1.558
 8773WAT      O26560   6.991   9.480   7.484
 8773WAT     H126561   6.966   9.557   7.542
 8773WAT     H226562   7.052   9.511   7.411
 8774WAT      O26563   8.637   1.126   1.887
 8774WAT     H126564   8.726   1.160   1.917
 8774WAT     H226565   8.566   1.161   1.949
 8775WAT      O26566   1.316   2.557   8.555
 8775WAT     H126567   1.264   2.547   8.471
 8775WAT     H226568   1.279   2.634   8.608
 8776WAT      O26569   8.794   8.441   5.843
 8776WAT     H126570   8.723   8.374   5.865
 8776WAT     H226571   8.879   8.394   5.821
 8777WAT      O26572   3.211   9.302   9.436
 8777WAT     H126573   3.306   9.324   9.460
 8777WAT     H226574   3.210   9.229   9.367
 8778WAT      O26575   2.764   6.012   3.078
 8778WAT     H126576   2.862   6.006   3.098
 8778WAT     H226577   2.712   6.005   3.163
 8779WAT      O26578   2.797   7.609   0.163
 8779WAT     H126579   2.754   7.633   0.250
 8779WAT     H226580   2.895   7.624   0.169
 8780WAT      O26581   7.265   7.145   9.363
 8780WAT     H126582   7.287   7.107   9.452
 8780WAT     H226583   7.180   7.106   9.329
 8781WAT      O26584   2.781   7.333   2.653
 8781WAT     H126585   2.714   7.360   2.584
 8781WAT     H226586   2.827   7.250   2.624
 8782WAT      O26587   4.528   4.618   1.193
 8782WAT     H126588   4.479   4.618   1.281
 8782WAT     H226589   4.521   4.709   1.152
 8783WAT      O26590   0.065   1.439   5.808
 8783WAT     H126591  -0.026   1.479   5.809
 8783WAT     H226592   0.059   1.342   5.782
 8784WAT      O26593   8.371   0.064   8.788
 8784WAT     H126594   8.406  -0.029   8.796
 8784WAT     H226595   8.304   0.069   8.713
 8785WAT      O26596   3.746   7.498   0.709
 8785WAT     H126597   3.803   7.579   0.705
 8785WAT     H226598   3.739   7.457   0.618
 8786WAT      O26599   0.840   7.524   1.750
 8786WAT     H126600   0.747   7.545   1.720
 8786WAT     H226601   0.860   7.428   1.731
 8787WAT      O26602   8.102   0.639   6.394
 8787WAT     H126603   8.145   0.701   6.459
 8787WAT     H226604   8.019   0.601   6.433
 8788WAT      O26605   8.225   1.849   2.273
 8788WAT     H126606   8.319   1.871   2.296
 8788WAT     H226607   8.187   1.789   2.343
 8789WAT      O26608   0.797   7.297   9.811
 8789WAT     H126609   0.790   7.200   9.786
 8789WAT     H226610   0.814   7.351   9.729
 8790WAT      O26611   7.196   7.291   1.379
 8790WAT     H126612   7.275   7.265   1.435
 8790WAT     H226613   7.127   7.334   1.436
 8791WAT      O26614   9.700   4.567   6.396
 8791WAT     H126615   9.662   4.547   6.305
 8791WAT     H226616   9.795   4.596   6.386
 8792WAT      O26617   9.623   0.665   6.345
 8792WAT     H126618   9.595   0.669   6.249
 8792WAT     H226619   9.557   0.611   6.397
 8793WAT      O26620   6.578   3.516   9.247
 8793WAT     H126621   6.519   3.517   9.166
 8793WAT     H226622   6.673   3.529   9.218
 8794WAT      O26623   1.249   3.227   9.522
 8794WAT     H126624   1.324   3.235   9.456
 8794WAT     H226625   1.286   3.198   9.610
 8795WAT      O26626   3.920   2.969   7.496
 8795WAT     H126627   3.954   2.930   7.581
 8795WAT     H226628   3.993   3.022   7.452
 8796WAT      O26629   8.629   5.252   8.415
 8796WAT     H126630   8.672   5.317   8.352
 8796WAT     H226631   8.616   5.165   8.368
 8797WAT      O26632   9.298   3.801   3.570
 8797WAT     H126633   9.320   3.877   3.509
 8797WAT     H226634   9.203   3.809   3.601
 8798WAT      O26635   5.814   9.718   0.851
 8798WAT     H126636   5.912   9.733   0.840
 8798WAT     H226637   5.766   9.745   0.767
 8799WAT      O26638   8.007   2.475   0.961
 8799WAT     H126639   7.940   2.477   0.887
 8799WAT     H226640   8.094   2.510   0.928
 8800WAT      O26641   7.236   2.582   3.628
 8800WAT     H126642   7.274   2.512   3.568
 8800WAT     H226643   7.302   2.656   3.640
 8801WAT      O26644   6.864   1.790   9.636
 8801WAT     H126645   6.777   1.818   9.677
 8801WAT     H226646   6.846   1.739   9.552
 8802WAT      O26647   7.976   3.206   7.033
 8802WAT     H126648   7.923   3.123   7.050
 8802WAT     H226649   7.943   3.278   7.094
 8803WAT      O26650   6.536   9.236   2.690
 8803WAT     H126651   6.529   9.137   2.685
 8803WAT     H226652   6.626   9.265   2.658
 8804WAT      O26653   4.393   7.908   9.412
 8804WAT     H126654   4.478   7.934   9.457
 8804WAT     H226655   4.344   7.991   9.385
 8805WAT      O26656   7.165   8.444   0.246
 8805WAT     H126657   7.182   8.490   0.159
 8805WAT     H226658   7.247   8.447   0.303
 8806WAT      O26659   8.905   3.669   5.232
 8806WAT     H126660   8.985   3.630   5.186
 8806WAT     H226661   8.920   3.668   5.331
 8807WAT      O26662   3.930   8.516   0.592
 8807WAT     H126663   3.964   8.528   0.686
 8807WAT     H226664   4.000   8.470   0.537
 8808WAT      O26665   5.352   4.030   0.252
 8808WAT     H126666   5.307   4.027   0.163
 8808WAT     H226667   5.433   4.088   0.246
 8809WAT      O26668   8.343   4.644   2.093
 8809WAT     H126669   8.347   4.552   2.132
 8809WAT     H226670   8.352   4.712   2.165
 8810WAT      O26671   7.399   9.672   3.364
 8810WAT     H126672   7.344   9.615   3.425
 8810WAT     H226673   7.406   9.764   3.403
 8811WAT      O26674   5.842   9.834   1.525
 8811WAT     H126675   5.797   9.905   1.472
 8811WAT     H226676   5.812   9.840   1.621
 8812WAT      O26677   8.615   6.484   3.280
 8812WAT     H126678   8.592   6.409   3.218
 8812WAT     H226679   8.550   6.559   3.267
 8813WAT      O26680   7.703   8.177   4.247
 8813WAT     H126681   7.766   8.175   4.170
 8813WAT     H226682   7.703   8.268   4.289
 8814WAT      O26683   0.696   3.150   0.851
 8814WAT     H126684   0.643   3.234   0.837
 8814WAT     H226685   0.768   3.167   0.919
 8815WAT      O26686   4.896   1.031   1.365
 8815WAT     H126687   4.846   1.117   1.370
 8815WAT     H226688   4.984   1.041   1.412
 8816WAT      O26689   5.217   0.048   4.072
 8816WAT     H126690   5.166   0.027   4.155
 8816WAT     H226691   5.269   0.132   4.085
 8817WAT      O26692   8.458   5.322   4.479
 8817WAT     H126693   8.443   5.315   4.577
 8817WAT     H226694   8.517   5.246   4.449
 8818WAT      O26695   9.587   3.812   2.787
 8818WAT     H126696   9.624   3.746   2.721
 8818WAT     H226697   9.548   3.890   2.738
 8819WAT      O26698   6.568   9.784   6.933
 8819WAT     H126699   6.583   9.686   6.943
 8819WAT     H226700   6.634   9.821   6.866
 8820WAT      O26701   3.012   8.283   5.081
 8820WAT     H126702   3.090   8.229   5.050
 8820WAT     H226703   3.025   8.306   5.178
 8821WAT      O26704   8.380   3.670   3.784
 8821WAT     H126705   8.297   3.724   3.769
 8821WAT     H226706   8.436   3.713   3.854
 8822WAT      O26707   7.654   7.906   6.949
 8822WAT     H126708   7.744   7.947   6.961
 8822WAT     H226709   7.663   7.819   6.900
 8823WAT      O26710   6.613   1.981   8.913
 8823WAT     H126711   6.576   1.982   9.006
 8823WAT     H226712   6.545   1.943   8.851
 8824WAT      O26713   9.201   2.102   5.393
 8824WAT     H126714   9.237   2.173   5.332
 8824WAT     H226715   9.107   2.125   5.418
 8825WAT      O26716   4.372   7.324   8.608
 8825WAT     H126717   4.354   7.397   8.543
 8825WAT     H226718   4.310   7.247   8.589
 8826WAT      O26719   8.852   5.556   8.236
 8826WAT     H126720   8.841   5.515   8.145
 8826WAT     H226721   8.949   5.554   8.261
 8827WAT      O26722   7.464   4.365   6.719
 8827WAT     H126723   7.508   4.300   6.782
 8827WAT     H226724   7.411   4.314   6.651
 8828WAT      O26725   2.211   8.598   2.338
 8828WAT     H126726   2.180   8.678   2.389
 8828WAT     H226727   2.167   8.596   2.248
 8829WAT      O26728   7.917   8.601   8.182
 8829WAT     H126729   7.818   8.588   8.188
 8829WAT     H226730   7.943   8.616   8.087
 8830WAT      O26731   6.541   8.408   9.894
 8830WAT     H126732   6.476   8.474   9.857
 8830WAT     H226733   6.620   8.402   9.833
 8831WAT      O26734   1.986   2.307   4.879
 8831WAT     H126735   2.038   2.283   4.797
 8831WAT     H226736   1.958   2.403   4.873
 8832WAT      O26737   1.760   6.552   3.945
 8832WAT     H126738   1.810   6.616   3.887
 8832WAT     H226739   1.729   6.599   4.028
 8833WAT      O26740   1.529   3.923   3.773
 8833WAT     H126741   1.433   3.928   3.744
 8833WAT     H226742   1.534   3.881   3.864
 8834WAT      O26743   8.745   6.645   6.758
 8834WAT     H126744   8.796   6.563   6.732
 8834WAT     H226745   8.806   6.724   6.754
 8835WAT      O26746   7.652   2.492   2.268
 8835WAT     H126747   7.573   2.438   2.296
 8835WAT     H226748   7.627   2.589   2.264
 8836WAT      O26749   2.687   2.133   5.617
 8836WAT     H126750   2.691   2.040   5.581
 8836WAT     H226751   2.593   2.166   5.613
 8837WAT      O26752   8.578   3.282   8.972
 8837WAT     H126753   8.526   3.243   9.048
 8837WAT     H226754   8.653   3.337   9.007
 8838WAT      O26755   1.177   4.602   8.222
 8838WAT     H126756   1.098   4.643   8.268
 8838WAT     H226757   1.174   4.625   8.125
 8839WAT      O26758   2.519   0.953   2.296
 8839WAT     H126759   2.514   1.051   2.275
 8839WAT     H226760   2.465   0.934   2.378
 8840WAT      O26761   4.487   5.245   2.444
 8840WAT     H126762   4.511   5.303   2.522
 8840WAT     H226763   4.549   5.166   2.442
 8841WAT      O26764   7.080   9.698   2.038
 8841WAT     H126765   7.151   9.672   2.103
 8841WAT     H226766   7.064   9.797   2.044
 8842WAT      O26767   9.114   8.915   1.488
 8842WAT     H126768   9.025   8.954   1.466
 8842WAT     H226769   9.121   8.902   1.587
 8843WAT      O26770   7.927   4.320   2.105
 8843WAT     H126771   7.837   4.306   2.062
 8843WAT     H226772   7.987   4.366   2.040
 8844WAT      O26773   3.521   0.982   0.959
 8844WAT     H126774   3.466   0.928   1.022
 8844WAT     H226775   3.607   1.008   1.003
 8845WAT      O26776   0.642   1.534   1.098
 8845WAT     H126777   0.630   1.528   0.998
 8845WAT     H226778   0.740   1.531   1.120
 8846WAT      O26779   3.104   7.084   3.540
 8846WAT     H126780   3.200   7.104   3.557
 8846WAT     H226781   3.068   7.025   3.613
 8847WAT      O26782   1.183   7.996   8.352
 8847WAT     H126783   1.113   8.062   8.381
 8847WAT     H226784   1.205   7.935   8.428
 8848WAT      O26785   8.373   7.752   5.216
 8848WAT     H126786   8.281   7.733   5.250
 8848WAT     H226787   8.421   7.666   5.200
 8849WAT      O26788   7.683   7.840   9.577
 8849WAT     H126789   7.600   7.876   9.620
 8849WAT     H226790   7.674   7.846   9.478
 8850WAT      O26791   7.874   2.011   4.788
 8850WAT     H126792   7.848   1.995   4.693
 8850WAT     H226793   7.804   2.067   4.832
 8851WAT      O26794   0.836   6.389   2.833
 8851WAT     H126795   0.922   6.352   2.868
 8851WAT     H226796   0.799   6.326   2.765
 8852WAT      O26797   7.494   1.595   6.405
 8852WAT     H126798   7.501   1.655   6.326
 8852WAT     H226799   7.403   1.602   6.445
 8853WAT      O26800   2.859   5.346   1.925
 8853WAT     H126801   2.947   5.303   1.942
 8853WAT     H226802   2.791   5.310   1.989
 8854WAT      O26803   5.250   2.857   6.227
 8854WAT     H126804   5.176   2.897   6.280
 8854WAT     H226805   5.214   2.821   6.141
 8855WAT      O26806   7.852   9.694   8.380
 8855WAT     H126807   7.779   9.726   8.440
 8855WAT     H226808   7.819   9.616   8.326
 8856WAT      O26809   0.627   6.497   5.900
 8856WAT     H126810   0.636   6.459   5.807
 8856WAT     H226811   0.713   6.541   5.926
 8857WAT      O26812   8.875   2.680   0.951
 8857WAT     H126813   8.930   2.633   1.020
 8857WAT     H226814   8.919   2.670   0.862
 8858WAT      O26815   7.626   6.686   9.015
 8858WAT     H126816   7.691   6.677   8.940
 8858WAT     H226817   7.635   6.777   9.056
 8859WAT      O26818   9.721   1.720   4.776
 8859WAT     H126819   9.818   1.700   4.787
 8859WAT     H226820   9.674   1.640   4.739
 8860WAT      O26821   1.269   1.925   1.471
 8860WAT     H126822   1.209   1.999   1.498
 8860WAT     H226823   1.214   1.844   1.448
 8861WAT      O26824   5.286   1.052   9.019
 8861WAT     H126825   5.354   1.124   9.036
 8861WAT     H226826   5.223   1.047   9.096
 8862WAT      O26827   3.294   2.965   7.540
 8862WAT     H126828   3.277   3.057   7.577
 8862WAT     H226829   3.231   2.948   7.464
 8863WAT      O26830   7.237   6.353   6.040
 8863WAT     H126831   7.161   6.416   6.031
 8863WAT     H226832   7.282   6.342   5.951
 8864WAT      O26833   8.678   3.375   3.424
 8864WAT     H126834   8.758   3.418   3.466
 8864WAT     H226835   8.595   3.422   3.455
 8865WAT      O26836   5.287   7.455   9.760
 8865WAT     H126837   5.258   7.541   9.718
 8865WAT     H226838   5.301   7.386   9.689
 8866WAT      O26839   5.376   7.738   2.285
 8866WAT     H126840   5.325   7.811   2.330
 8866WAT     H226841   5.313   7.665   2.258
 8867WAT      O26842   7.885   9.610   2.744
 8867WAT     H126843   7.977   9.630   2.713
 8867WAT     H226844   7.884   9.524   2.795
 8868WAT      O26845   5.677   4.065   0.103
 8868WAT     H126846   5.663   4.021   0.014
 8868WAT     H226847   5.743   4.011   0.155
 8869WAT      O26848   0.750   3.517   2.958
 8869WAT     H126849   0.750   3.417   2.954
 8869WAT     H226850   0.828   3.548   3.012
 8870WAT      O26851   6.780   5.956   3.631
 8870WAT     H126852   6.823   5.885   3.687
 8870WAT     H226853   6.777   6.042   3.681
 8871WAT      O26854   1.238   0.675   2.223
 8871WAT     H126855   1.195   0.729   2.296
 8871WAT     H226856   1.327   0.714   2.202
 8872WAT      O26857   6.604   9.568   4.509
 8872WAT     H126858   6.519   9.577   4.457
 8872WAT     H226859   6.589   9.508   4.587
 8873WAT      O26860   0.017   5.874   5.883
 8873WAT     H126861   0.074   5.908   5.958
 8873WAT     H226862   0.072   5.815   5.823
 8874WAT      O26863   4.325   0.509   7.470
 8874WAT     H126864   4.235   0.491   7.511
 8874WAT     H226865   4.318   0.586   7.407
 8875WAT      O26866   9.391   1.883   8.866
 8875WAT     H126867   9.366   1.829   8.786
 8875WAT     H226868   9.393   1.980   8.843
 8876WAT      O26869   0.555   1.482   2.681
 8876WAT     H126870   0.486   1.410   2.686
 8876WAT     H226871   0.515   1.563   2.639
 8877WAT      O26872   9.508   2.128   3.071
 8877WAT     H126873   9.491   2.054   3.135
 8877WAT     H226874   9.448   2.206   3.094
 8878WAT      O26875   9.452   9.068   2.126
 8878WAT     H126876   9.442   9.063   2.225
 8878WAT     H226877   9.429   9.160   2.094
 8879WAT      O26878   2.582   4.606   5.160
 8879WAT     H126879   2.632   4.679   5.207
 8879WAT     H226880   2.484   4.620   5.171
 8880WAT      O26881   2.895   0.324   2.143
 8880WAT     H126882   2.957   0.364   2.075
 8880WAT     H226883   2.868   0.233   2.112
 8881WAT      O26884   5.998   5.530   7.980
 8881WAT     H126885   6.035   5.536   8.073
 8881WAT     H226886   5.906   5.569   7.979
 8882WAT      O26887   0.593   7.215   0.523
 8882WAT     H126888   0.513   7.165   0.489
 8882WAT     H226889   0.590   7.217   0.623
 8883WAT      O26890   9.180   8.889   5.711
 8883WAT     H126891   9.127   8.833   5.775
 8883WAT     H226892   9.175   8.848   5.620
 8884WAT      O26893   4.551   2.767   8.724
 8884WAT     H126894   4.628   2.823   8.692
 8884WAT     H226895   4.570   2.671   8.703
 8885WAT      O26896   3.946   6.950   6.904
 8885WAT     H126897   3.927   6.894   6.823
 8885WAT     H226898   4.034   6.922   6.944
 8886WAT      O26899   5.050   6.274   9.563
 8886WAT     H126900   5.091   6.279   9.654
 8886WAT     H226901   5.047   6.365   9.523
 8887WAT      O26902   5.133   6.662   2.351
 8887WAT     H126903   5.232   6.671   2.349
 8887WAT     H226904   5.102   6.617   2.267
 8888WAT      O26905   7.010   5.662   5.621
 8888WAT     H126906   6.998   5.577   5.672
 8888WAT     H226907   7.103   5.696   5.633
 8889WAT      O26908   0.449   3.519   2.450
 8889WAT     H126909   0.433   3.598   2.508
 8889WAT     H226910   0.537   3.528   2.404
 8890WAT      O26911   4.024   0.814   3.486
 8890WAT     H126912   3.961   0.836   3.560
 8890WAT     H226913   3.977   0.825   3.398
 8891WAT      O26914   1.692   2.487   7.286
 8891WAT     H126915   1.666   2.491   7.189
 8891WAT     H226916   1.621   2.531   7.341
 8892WAT      O26917   9.877   2.731   1.526
 8892WAT     H126918   9.835   2.749   1.437
 8892WAT     H226919   9.967   2.776   1.530
 8893WAT      O26920   0.251   2.249   1.740
 8893WAT     H126921   0.311   2.211   1.670
 8893WAT     H226922   0.234   2.179   1.811
 8894WAT      O26923   2.841   9.382   3.568
 8894WAT     H126924   2.923   9.333   3.597
 8894WAT     H226925   2.845   9.477   3.600
 8895WAT      O26926   0.598   6.111   0.453
 8895WAT     H126927   0.647   6.132   0.538
 8895WAT     H226928   0.593   6.011   0.441
 8896WAT      O26929   2.413   1.005   4.066
 8896WAT     H126930   2.473   0.929   4.091
 8896WAT     H226931   2.469   1.080   4.030
 8897WAT      O26932   9.079   8.383   5.317
 8897WAT     H126933   8.992   8.351   5.280
 8897WAT     H226934   9.136   8.420   5.244
 8898WAT      O26935   8.601   8.265   9.646
 8898WAT     H126936   8.679   8.248   9.586
 8898WAT     H226937   8.577   8.181   9.695
 8899WAT      O26938   5.619   3.044   5.028
 8899WAT     H126939   5.547   2.975   5.021
 8899WAT     H226940   5.595   3.110   5.099
 8900WAT      O26941   3.164   6.849   1.711
 8900WAT     H126942   3.098   6.779   1.684
 8900WAT     H226943   3.255   6.824   1.678
 8901WAT      O26944   7.307   4.267   8.629
 8901WAT     H126945   7.328   4.265   8.531
 8901WAT     H226946   7.250   4.347   8.649
 8902WAT      O26947   3.254   6.597   7.598
 8902WAT     H126948   3.338   6.586   7.545
 8902WAT     H226949   3.213   6.686   7.577
 8903WAT      O26950   3.071   3.445   4.867
 8903WAT     H126951   3.105   3.437   4.773
 8903WAT     H226952   3.097   3.535   4.904
 8904WAT      O26953   1.851   8.797   5.445
 8904WAT     H126954   1.932   8.755   5.405
 8904WAT     H226955   1.805   8.732   5.505
 8905WAT      O26956   5.131   7.156   2.139
 8905WAT     H126957   5.076   7.143   2.057
 8905WAT     H226958   5.140   7.254   2.158
 8906WAT      O26959   6.230   3.164   4.928
 8906WAT     H126960   6.167   3.133   4.857
 8906WAT     H226961   6.178   3.198   5.006
 8907WAT      O26962   8.541   8.352   1.548
 8907WAT     H126963   8.497   8.428   1.501
 8907WAT     H226964   8.632   8.337   1.511
 8908WAT      O26965   6.883   9.399   2.883
 8908WAT     H126966   6.937   9.323   2.846
 8908WAT     H226967   6.882   9.393   2.983
 8909WAT      O26968   4.089   8.768   5.894
 8909WAT     H126969   4.021   8.699   5.870
 8909WAT     H226970   4.085   8.843   5.827
 8910WAT      O26971   9.134   4.003   2.087
 8910WAT     H126972   9.225   4.035   2.062
 8910WAT     H226973   9.090   3.962   2.007
 8911WAT      O26974   2.343   4.191   9.359
 8911WAT     H126975   2.366   4.180   9.456
 8911WAT     H226976   2.415   4.151   9.303
 8912WAT      O26977   9.507   6.083   6.590
 8912WAT     H126978   9.569   6.091   6.513
 8912WAT     H226979   9.533   6.006   6.647
 8913WAT      O26980   6.913   6.223   1.599
 8913WAT     H126981   6.853   6.212   1.679
 8913WAT     H226982   7.008   6.234   1.630
 8914WAT      O26983   2.299   2.515   9.104
 8914WAT     H126984   2.341   2.467   9.027
 8914WAT     H226985   2.273   2.449   9.175
 8915WAT      O26986   0.068   0.033   2.457
 8915WAT     H126987   0.166   0.010   2.462
 8915WAT     H226988   0.049   0.108   2.520
 8916WAT      O26989   6.922   9.272   5.335
 8916WAT     H126990   6.891   9.180   5.311
 8916WAT     H226991   6.875   9.339   5.278
 8917WAT      O26992   7.418   2.284   2.136
 8917WAT     H126993   7.368   2.338   2.068
 8917WAT     H226994   7.476   2.217   2.090
 8918WAT      O26995   7.526   7.606   1.527
 8918WAT     H126996   7.491   7.546   1.456
 8918WAT     H226997   7.483   7.582   1.615
 8919WAT      O26998   5.215   8.765   0.535
 8919WAT     H126999   5.144   8.809   0.481
 8919WAT     H227000   5.270   8.835   0.581
 8920WAT      O27001   7.714   2.123   7.337
 8920WAT     H127002   7.791   2.164   7.288
 8920WAT     H227003   7.735   2.028   7.357
 8921WAT      O27004   0.540   6.145   0.020
 8921WAT     H127005   0.596   6.092   0.084
 8921WAT     H227006   0.523   6.092  -0.062
 8922WAT      O27007   9.618   9.620   8.896
 8922WAT     H127008   9.678   9.651   8.822
 8922WAT     H227009   9.669   9.559   8.957
 8923WAT      O27010   4.766   1.522   3.123
 8923WAT     H127011   4.837   1.480   3.067
 8923WAT     H227012   4.681   1.527   3.070
 8924WAT      O27013   3.986   6.046   1.157
 8924WAT     H127014   4.079   6.075   1.136
 8924WAT     H227015   3.924   6.075   1.085
 8925WAT      O27016   0.665   6.994   6.456
 8925WAT     H127017   0.688   7.047   6.375
 8925WAT     H227018   0.693   6.899   6.443
 8926WAT      O27019   7.580   7.740   0.919
 8926WAT     H127020   7.679   7.731   0.926
 8926WAT     H227021   7.541   7.748   1.011
 8927WAT      O27022   0.896   6.438   7.678
 8927WAT     H127023   0.863   6.350   7.644
 8927WAT     H227024   0.867   6.450   7.773
 8928WAT      O27025   8.666   7.519   3.063
 8928WAT     H127026   8.637   7.551   3.154
 8928WAT     H227027   8.703   7.596   3.011
 8929WAT      O27028   3.160   3.502   7.989
 8929WAT     H127029   3.111   3.415   7.988
 8929WAT     H227030   3.228   3.501   8.061
 8930WAT      O27031   8.139   7.930   0.555
 8930WAT     H127032   8.099   8.009   0.602
 8930WAT     H227033   8.196   7.878   0.619
 8931WAT      O27034   1.881   8.060   6.375
 8931WAT     H127035   1.878   7.992   6.302
 8931WAT     H227036   1.874   8.152   6.336
 8932WAT      O27037   0.179   6.510   6.295
 8932WAT     H127038   0.264   6.460   6.312
 8932WAT     H227039   0.155   6.563   6.376
 8933WAT      O27040   2.677   1.232   1.022
 8933WAT     H127041   2.593   1.263   1.067
 8933WAT     H227042   2.687   1.134   1.035
 8934WAT      O27043   2.039   4.455   3.881
 8934WAT     H127044   1.944   4.459   3.910
 8934WAT     H227045   2.099   4.476   3.959
 8935WAT      O27046   3.590   3.419   3.822
 8935WAT     H127047   3.676   3.375   3.846
 8935WAT     H227048   3.558   3.474   3.899
 8936WAT      O27049   0.252   2.943   4.417
 8936WAT     H127050   0.289   2.868   4.363
 8936WAT     H227051   0.246   2.916   4.513
 8937WAT      O27052   1.606   9.765   5.662
 8937WAT     H127053   1.648   9.733   5.747
 8937WAT     H227054   1.527   9.821   5.683
 8938WAT      O27055   4.117   4.037   3.865
 8938WAT     H127056   4.141   4.003   3.956
 8938WAT     H227057   4.127   4.136   3.863
 8939WAT      O27058   5.579   6.675   6.942
 8939WAT     H127059   5.570   6.591   6.889
 8939WAT     H227060   5.566   6.655   7.039
 8940WAT      O27061   8.230   8.715   6.640
 8940WAT     H127062   8.212   8.687   6.546
 8940WAT     H227063   8.311   8.667   6.675
 8941WAT      O27064   4.444   7.758   8.751
 8941WAT     H127065   4.500   7.810   8.816
 8941WAT     H227066   4.494   7.677   8.721
 8942WAT      O27067   8.428   3.866   2.747
 8942WAT     H127068   8.384   3.952   2.719
 8942WAT     H227069   8.372   3.789   2.718
 8943WAT      O27070   5.321   3.575   1.333
 8943WAT     H127071   5.337   3.581   1.235
 8943WAT     H227072   5.248   3.639   1.359
 8944WAT      O27073   7.257   5.114   4.941
 8944WAT     H127074   7.271   5.086   4.846
 8944WAT     H227075   7.339   5.158   4.976
 8945WAT      O27076   8.940   4.507   2.511
 8945WAT     H127077   8.978   4.416   2.500
 8945WAT     H227078   9.014   4.571   2.536
 8946WAT      O27079   3.054   4.956   1.385
 8946WAT     H127080   3.073   4.890   1.457
 8946WAT     H227081   3.016   5.039   1.425
 8947WAT      O27082   5.364   1.943   0.191
 8947WAT     H127083   5.406   2.003   0.124
 8947WAT     H227084   5.274   1.978   0.216
 8948WAT      O27085   0.902   4.640   1.948
 8948WAT     H127086   0.840   4.577   1.996
 8948WAT     H227087   0.849   4.719   1.916
 8949WAT      O27088   7.164   1.001   0.956
 8949WAT     H127089   7.130   1.055   0.879
 8949WAT     H227090   7.173   1.059   1.036
 8950WAT      O27091   5.621   2.196   0.583
 8950WAT     H127092   5.690   2.177   0.513
 8950WAT     H227093   5.531   2.172   0.550
 8951WAT      O27094   0.653   2.084   8.683
 8951WAT     H127095   0.690   2.060   8.593
 8951WAT     H227096   0.576   2.024   8.705
 8952WAT      O27097   2.834   7.664   2.294
 8952WAT     H127098   2.921   7.676   2.245
 8952WAT     H227099   2.852   7.636   2.388
 8953WAT      O27100   4.003   0.617   5.394
 8953WAT     H127101   4.002   0.599   5.296
 8953WAT     H227102   3.995   0.715   5.410
 8954WAT      O27103   5.058   4.813   7.823
 8954WAT     H127104   5.088   4.754   7.748
 8954WAT     H227105   5.062   4.764   7.909
 8955WAT      O27106   9.273   2.172   4.194
 8955WAT     H127107   9.296   2.080   4.224
 8955WAT     H227108   9.184   2.171   4.148
 8956WAT      O27109   4.605   5.855   0.259
 8956WAT     H127110   4.562   5.894   0.340
 8956WAT     H227111   4.701   5.884   0.254
 8957WAT      O27112   6.457   4.946   9.301
 8957WAT     H127113   6.361   4.927   9.318
 8957WAT     H227114   6.467   4.988   9.211
 8958WAT      O27115   1.596   8.455   4.796
 8958WAT     H127116   1.511   8.403   4.802
 8958WAT     H227117   1.645   8.431   4.712
 8959WAT      O27118   3.368   8.348   9.423
 8959WAT     H127119   3.271   8.338   9.401
 8959WAT     H227120   3.388   8.296   9.506
 8960WAT      O27121   6.754   1.839   5.999
 8960WAT     H127122   6.663   1.836   6.040
 8960WAT     H227123   6.751   1.798   5.909
 8961WAT      O27124   2.394   3.277   1.746
 8961WAT     H127125   2.409   3.371   1.717
 8961WAT     H227126   2.480   3.237   1.777
 8962WAT      O27127   6.078   0.081   6.191
 8962WAT     H127128   6.146   0.027   6.240
 8962WAT     H227129   5.995   0.088   6.246
 8963WAT      O27130   0.005   1.836   5.199
 8963WAT     H127131  -0.071   1.780   5.232
 8963WAT     H227132   0.013   1.918   5.255
 8964WAT      O27133   2.628   0.948   4.948
 8964WAT     H127134   2.537   0.915   4.921
 8964WAT     H227135   2.698   0.897   4.897
 8965WAT      O27136   9.446   0.534   0.824
 8965WAT     H127137   9.516   0.465   0.842
 8965WAT     H227138   9.485   0.608   0.768
 8966WAT      O27139   4.048   9.135   5.444
 8966WAT     H127140   3.963   9.175   5.409
 8966WAT     H227141   4.090   9.198   5.509
 8967WAT      O27142   5.502   4.154   9.010
 8967WAT     H127143   5.510   4.206   8.926
 8967WAT     H227144   5.546   4.065   8.999
 8968WAT      O27145   8.278   7.048   8.277
 8968WAT     H127146   8.220   7.085   8.204
 8968WAT     H227147   8.370   7.086   8.269
 8969WAT      O27148   1.185   1.125   6.519
 8969WAT     H127149   1.119   1.192   6.486
 8969WAT     H227150   1.207   1.060   6.445
 8970WAT      O27151   5.462   0.426   6.172
 8970WAT     H127152   5.497   0.465   6.256
 8970WAT     H227153   5.475   0.491   6.097
 8971WAT      O27154   9.521   5.824   0.809
 8971WAT     H127155   9.502   5.751   0.744
 8971WAT     H227156   9.618   5.820   0.836
 8972WAT      O27157   8.039   6.866   1.990
 8972WAT     H127158   8.094   6.876   2.074
 8972WAT     H227159   8.012   6.771   1.980
 8973WAT      O27160   0.458   6.118   1.415
 8973WAT     H127161   0.372   6.072   1.392
 8973WAT     H227162   0.451   6.159   1.506
 8974WAT      O27163   1.077   5.858   8.744
 8974WAT     H127164   1.160   5.907   8.768
 8974WAT     H227165   0.999   5.920   8.747
 8975WAT      O27166   9.123   9.248   0.388
 8975WAT     H127167   9.043   9.301   0.417
 8975WAT     H227168   9.092   9.166   0.340
 8976WAT      O27169   1.403   6.059   5.854
 8976WAT     H127170   1.400   6.155   5.825
 8976WAT     H227171   1.313   6.030   5.884
 8977WAT      O27172   6.092   4.623   5.613
 8977WAT     H127173   6.174   4.598   5.561
 8977WAT     H227174   6.119   4.664   5.700
 8978WAT      O27175   4.864   3.122   8.434
 8978WAT     H127176   4.918   3.156   8.511
 8978WAT     H227177   4.836   3.199   8.376
 8979WAT      O27178   1.254   7.882   7.631
 8979WAT     H127179   1.290   7.974   7.648
 8979WAT     H227180   1.327   7.815   7.642
 8980WAT      O27181   5.878   2.346   9.175
 8980WAT     H127182   5.853   2.435   9.135
 8980WAT     H227183   5.795   2.293   9.193
 8981WAT      O27184   1.398   3.468   4.872
 8981WAT     H127185   1.421   3.377   4.837
 8981WAT     H227186   1.472   3.532   4.851
 8982WAT      O27187   2.756   8.487   3.895
 8982WAT     H127188   2.757   8.524   3.988
 8982WAT     H227189   2.677   8.521   3.846
 8983WAT      O27190   8.163   5.490   2.235
 8983WAT     H127191   8.116   5.530   2.156
 8983WAT     H227192   8.112   5.512   2.318
 8984WAT      O27193   8.456   5.403   7.317
 8984WAT     H127194   8.379   5.395   7.380
 8984WAT     H227195   8.542   5.388   7.367
 8985WAT      O27196   1.115   6.325   0.136
 8985WAT     H127197   1.076   6.409   0.173
 8985WAT     H227198   1.045   6.253   0.137
 8986WAT      O27199   7.536   3.858   0.635
 8986WAT     H127200   7.488   3.861   0.723
 8986WAT     H227201   7.628   3.896   0.647
 8987WAT      O27202   3.660   9.690   7.813
 8987WAT     H127203   3.655   9.604   7.761
 8987WAT     H227204   3.617   9.763   7.759
 8988WAT      O27205   9.294   3.546   8.514
 8988WAT     H127206   9.305   3.635   8.558
 8988WAT     H227207   9.202   3.511   8.533
 8989WAT      O27208   2.833   7.277   1.830
 8989WAT     H127209   2.902   7.214   1.795
 8989WAT     H227210   2.844   7.366   1.786
 8990WAT      O27211   0.287   1.877   7.279
 8990WAT     H127212   0.305   1.908   7.185
 8990WAT     H227213   0.249   1.784   7.276
 8991WAT      O27214   6.286   1.383   3.161
 8991WAT     H127215   6.281   1.377   3.061
 8991WAT     H227216   6.226   1.314   3.201
 8992WAT      O27217   2.498   6.216   4.102
 8992WAT     H127218   2.596   6.202   4.095
 8992WAT     H227219   2.456   6.207   4.011
 8993WAT      O27220   6.883   8.248   7.617
 8993WAT     H127221   6.911   8.265   7.522
 8993WAT     H227222   6.804   8.187   7.618
 8994WAT      O27223   3.382   5.418   8.630
 8994WAT     H127224   3.364   5.366   8.713
 8994WAT     H227225   3.297   5.461   8.599
 8995WAT      O27226   9.774   6.270   9.708
 8995WAT     H127227   9.810   6.327   9.634
 8995WAT     H227228   9.710   6.323   9.763
 8996WAT      O27229   2.833   0.665   2.293
 8996WAT     H127230   2.799   0.575   2.322
 8996WAT     H227231   2.930   0.672   2.314
 8997WAT      O27232   7.661   3.667   2.061
 8997WAT     H127233   7.591   3.601   2.033
 8997WAT     H227234   7.635   3.708   2.148
 8998WAT      O27235   7.629   0.145   9.218
 8998WAT     H127236   7.681   0.180   9.140
 8998WAT     H227237   7.597   0.052   9.198
 8999WAT      O27238   8.436   0.288   1.415
 8999WAT     H127239   8.404   0.350   1.486
 8999WAT     H227240   8.454   0.198   1.455
 9000WAT      O27241   3.563   1.358   1.115
 9000WAT     H127242   3.661   1.378   1.128
 9000WAT     H227243   3.517   1.362   1.204
 9001WAT      O27244   7.456   4.851   8.075
 9001WAT     H127245   7.389   4.801   8.020
 9001WAT     H227246   7.503   4.918   8.018
 9002WAT      O27247   0.806   4.599   8.927
 9002WAT     H127248   0.776   4.681   8.879
 9002WAT     H227249   0.904   4.606   8.947
 9003WAT      O27250   8.272   5.449   4.265
 9003WAT     H127251   8.246   5.483   4.174
 9003WAT     H227252   8.299   5.353   4.258
 9004WAT      O27253   5.663   1.825   4.725
 9004WAT     H127254   5.679   1.907   4.671
 9004WAT     H227255   5.610   1.759   4.670
 9005WAT      O27256   0.725   0.010   6.224
 9005WAT     H127257   0.800   0.025   6.159
 9005WAT     H227258   0.730  -0.084   6.258
 9006WAT      O27259   9.293   6.047   6.889
 9006WAT     H127260   9.241   5.967   6.856
 9006WAT     H227261   9.255   6.077   6.976
 9007WAT      O27262   8.003   8.344   7.816
 9007WAT     H127263   8.089   8.305   7.850
 9007WAT     H227264   7.997   8.332   7.717
 9008WAT      O27265   0.128   9.102   7.171
 9008WAT     H127266   0.165   9.032   7.111
 9008WAT     H227267   0.146   9.077   7.266
 9009WAT      O27268   6.115   1.612   6.611
 9009WAT     H127269   6.044   1.545   6.588
 9009WAT     H227270   6.205   1.572   6.591
 9010WAT      O27271   3.337   2.372   0.182
 9010WAT     H127272   3.264   2.303   0.179
 9010WAT     H227273   3.317   2.442   0.114
 9011WAT      O27274   5.358   8.989   4.340
 9011WAT     H127275   5.292   9.016   4.410
 9011WAT     H227276   5.322   9.011   4.250
 9012WAT      O27277   3.542   7.359   9.654
 9012WAT     H127278   3.620   7.301   9.677
 9012WAT     H227279   3.488   7.375   9.737
 9013WAT      O27280   5.591   4.273   2.694
 9013WAT     H127281   5.631   4.184   2.715
 9013WAT     H227282   5.535   4.304   2.772
 9014WAT      O27283   5.574   8.825   5.255
 9014WAT     H127284   5.483   8.867   5.249
 9014WAT     H227285   5.571   8.733   5.216
 9015WAT      O27286   2.298   6.941   0.992
 9015WAT     H127287   2.361   6.921   0.917
 9015WAT     H227288   2.236   6.863   1.005
 9016WAT      O27289   1.577   5.772   7.392
 9016WAT     H127290   1.562   5.739   7.485
 9016WAT     H227291   1.637   5.852   7.394
 9017WAT      O27292   6.514   5.566   0.091
 9017WAT     H127293   6.414   5.570   0.081
 9017WAT     H227294   6.547   5.481   0.049
 9018WAT      O27295   9.667   1.963   5.492
 9018WAT     H127296   9.604   2.032   5.527
 9018WAT     H227297   9.617   1.877   5.479
 9019WAT      O27298   6.169   0.212   2.790
 9019WAT     H127299   6.243   0.220   2.856
 9019WAT     H227300   6.160   0.297   2.739
 9020WAT      O27301   1.852   4.162   4.018
 9020WAT     H127302   1.945   4.157   3.982
 9020WAT     H227303   1.789   4.190   3.946
 9021WAT      O27304   9.527   2.246   4.142
 9021WAT     H127305   9.430   2.223   4.146
 9021WAT     H227306   9.582   2.171   4.179
 9022WAT      O27307   8.630   9.521   1.568
 9022WAT     H127308   8.635   9.498   1.665
 9022WAT     H227309   8.721   9.543   1.534
 9023WAT      O27310   7.954   5.473   3.487
 9023WAT     H127311   8.050   5.463   3.512
 9023WAT     H227312   7.910   5.541   3.546
 9024WAT      O27313   5.051   2.356   4.679
 9024WAT     H127314   5.129   2.295   4.667
 9024WAT     H227315   4.980   2.308   4.731
 9025WAT      O27316   4.411   8.754   3.364
 9025WAT     H127317   4.429   8.667   3.318
 9025WAT     H227318   4.320   8.750   3.407
 9026WAT      O27319   4.840   1.053   8.458
 9026WAT     H127320   4.894   1.072   8.540
 9026WAT     H227321   4.884   1.096   8.379
 9027WAT      O27322   1.733   6.408   9.228
 9027WAT     H127323   1.833   6.414   9.226
 9027WAT     H227324   1.698   6.419   9.135
 9028WAT      O27325   6.606   6.204   0.094
 9028WAT     H127326   6.610   6.126   0.156
 9028WAT     H227327   6.587   6.287   0.146
 9029WAT      O27328   7.075   0.342   4.183
 9029WAT     H127329   7.102   0.397   4.262
 9029WAT     H227330   7.144   0.351   4.111
 9030WAT      O27331   8.456   1.575   7.552
 9030WAT     H127332   8.511   1.654   7.528
 9030WAT     H227333   8.491   1.494   7.505
 9031WAT      O27334   4.280   0.933   3.476
 9031WAT     H127335   4.201   0.881   3.509
 9031WAT     H227336   4.300   0.906   3.382
 9032WAT      O27337   9.638   3.599   2.601
 9032WAT     H127338   9.587   3.604   2.515
 9032WAT     H227339   9.613   3.517   2.650
 9033WAT      O27340   7.837   0.837   5.834
 9033WAT     H127341   7.756   0.870   5.883
 9033WAT     H227342   7.865   0.905   5.766
 9034WAT      O27343   9.025   8.118   3.873
 9034WAT     H127344   8.953   8.177   3.911
 9034WAT     H227345   9.046   8.146   3.779
 9035WAT      O27346   1.449   5.149   3.541
 9035WAT     H127347   1.375   5.215   3.554
 9035WAT     H227348   1.496   5.169   3.455
 9036WAT      O27349   9.442   3.534   0.907
 9036WAT     H127350   9.450   3.437   0.931
 9036WAT     H227351   9.425   3.587   0.990
 9037WAT      O27352   0.977   4.059   2.254
 9037WAT     H127353   1.009   4.136   2.308
 9037WAT     H227354   0.978   4.083   2.157
 9038WAT      O27355   3.118   9.345   0.613
 9038WAT     H127356   3.020   9.360   0.617
 9038WAT     H227357   3.149   9.298   0.695
 9039WAT      O27358   6.459   7.010   9.549
 9039WAT     H127359   6.396   7.023   9.625
 9039WAT     H227360   6.504   7.097   9.527
 9040WAT      O27361   2.360   7.663   1.796
 9040WAT     H127362   2.353   7.565   1.817
 9040WAT     H227363   2.410   7.709   1.869
 9041WAT      O27364   5.734   0.204   1.369
 9041WAT     H127365   5.723   0.224   1.272
 9041WAT     H227366   5.653   0.234   1.419
 9042WAT      O27367   2.598   2.423   4.016
 9042WAT     H127368   2.590   2.373   4.102
 9042WAT     H227369   2.566   2.366   3.941
 9043WAT      O27370   4.937   5.292   4.474
 9043WAT     H127371   4.866   5.328   4.535
 9043WAT     H227372   4.974   5.208   4.512
 9044WAT      O27373   9.226   2.123   5.953
 9044WAT     H127374   9.187   2.215   5.949
 9044WAT     H227375   9.318   2.124   5.913
 9045WAT      O27376   8.873   6.930   0.586
 9045WAT     H127377   8.906   6.970   0.671
 9045WAT     H227378   8.817   6.997   0.537
 9046WAT      O27379   2.127   5.502   2.995
 9046WAT     H127380   2.116   5.572   2.924
 9046WAT     H227381   2.217   5.513   3.038
 9047WAT      O27382   7.098   9.444   5.121
 9047WAT     H127383   7.140   9.356   5.099
 9047WAT     H227384   6.998   9.433   5.126
 9048WAT      O27385   9.143   6.274   9.126
 9048WAT     H127386   9.177   6.191   9.081
 9048WAT     H227387   9.043   6.268   9.137
 9049WAT      O27388   8.158   0.135   1.452
 9049WAT     H127389   8.111   0.050   1.428
 9049WAT     H227390   8.257   0.119   1.450
 9050WAT      O27391   8.127   4.040   2.936
 9050WAT     H127392   8.204   4.032   3.001
 9050WAT     H227393   8.126   4.132   2.898
 9051WAT      O27394   3.563   8.028   1.766
 9051WAT     H127395   3.537   8.117   1.729
 9051WAT     H227396   3.513   8.011   1.851
 9052WAT      O27397   8.225   7.771   5.812
 9052WAT     H127398   8.286   7.824   5.870
 9052WAT     H227399   8.217   7.815   5.722
 9053WAT      O27400   3.948   3.990   0.467
 9053WAT     H127401   3.884   4.067   0.465
 9053WAT     H227402   4.000   3.988   0.381
 9054WAT      O27403   8.530   6.185   3.801
 9054WAT     H127404   8.626   6.211   3.794
 9054WAT     H227405   8.524   6.087   3.820
 9055WAT      O27406   0.390   0.508   4.588
 9055WAT     H127407   0.373   0.412   4.567
 9055WAT     H227408   0.488   0.524   4.593
 9056WAT      O27409   1.203   8.144   3.138
 9056WAT     H127410   1.125   8.206   3.127
 9056WAT     H227411   1.269   8.160   3.066
 9057WAT      O27412   4.486   1.455   4.308
 9057WAT     H127413   4.474   1.553   4.326
 9057WAT     H227414   4.456   1.403   4.388
 9058WAT      O27415   8.322   3.245   0.206
 9058WAT     H127416   8.401   3.205   0.253
 9058WAT     H227417   8.265   3.294   0.273
 9059WAT      O27418   5.955   5.595   2.135
 9059WAT     H127419   5.948   5.544   2.221
 9059WAT     H227420   5.979   5.532   2.061
 9060WAT      O27421   9.222   1.628   2.021
 9060WAT     H127422   9.286   1.551   2.026
 9060WAT     H227423   9.220   1.676   2.109
 9061WAT      O27424   1.828   3.838   9.441
 9061WAT     H127425   1.852   3.917   9.498
 9061WAT     H227426   1.859   3.855   9.347
 9062WAT      O27427   6.875   1.902   4.151
 9062WAT     H127428   6.866   1.975   4.082
 9062WAT     H227429   6.862   1.940   4.242
 9063WAT      O27430   6.067   1.481   3.418
 9063WAT     H127431   6.048   1.386   3.391
 9063WAT     H227432   6.158   1.486   3.460
 9064WAT      O27433   7.277   0.804   1.565
 9064WAT     H127434   7.325   0.723   1.530
 9064WAT     H227435   7.242   0.857   1.488
 9065WAT      O27436   3.789   7.305   9.050
 9065WAT     H127437   3.845   7.388   9.049
 9065WAT     H227438   3.696   7.328   9.023
 9066WAT      O27439   1.223   6.475   5.668
 9066WAT     H127440   1.265   6.540   5.605
 9066WAT     H227441   1.154   6.522   5.723
 9067WAT      O27442   4.260   6.800   4.124
 9067WAT     H127443   4.308   6.730   4.177
 9067WAT     H227444   4.169   6.766   4.099
 9068WAT      O27445   6.021   2.604   8.044
 9068WAT     H127446   5.975   2.657   7.972
 9068WAT     H227447   5.975   2.619   8.131
 9069WAT      O27448   7.049   2.830   0.433
 9069WAT     H127449   7.084   2.882   0.355
 9069WAT     H227450   7.006   2.893   0.498
 9070WAT      O27451   4.651   4.946   4.564
 9070WAT     H127452   4.640   4.999   4.647
 9070WAT     H227453   4.639   4.848   4.584
 9071WAT      O27454   7.350   0.364   4.728
 9071WAT     H127455   7.405   0.304   4.670
 9071WAT     H227456   7.410   0.420   4.784
 9072WAT      O27457   8.666   0.524   2.873
 9072WAT     H127458   8.730   0.600   2.865
 9072WAT     H227459   8.627   0.521   2.965
 9073WAT      O27460   9.333   6.549   0.563
 9073WAT     H127461   9.293   6.637   0.541
 9073WAT     H227462   9.315   6.527   0.659
 9074WAT      O27463   4.939   6.068   7.532
 9074WAT     H127464   4.848   6.028   7.531
 9074WAT     H227465   5.000   6.014   7.474
 9075WAT      O27466   3.988   5.431   8.056
 9075WAT     H127467   3.985   5.506   8.122
 9075WAT     H227468   4.049   5.359   8.091
 9076WAT      O27469   0.789   8.765   5.755
 9076WAT     H127470   0.771   8.863   5.746
 9076WAT     H227471   0.777   8.736   5.850
 9077WAT      O27472   5.132   8.109   1.457
 9077WAT     H127473   5.213   8.152   1.496
 9077WAT     H227474   5.151   8.013   1.438
 9078WAT      O27475   2.270   7.306   0.305
 9078WAT     H127476   2.177   7.270   0.310
 9078WAT     H227477   2.306   7.293   0.212
 9079WAT      O27478   5.770   8.659   5.793
 9079WAT     H127479   5.724   8.574   5.765
 9079WAT     H227480   5.844   8.638   5.856
 9080WAT      O27481   5.452   7.349   8.874
 9080WAT     H127482   5.497   7.438   8.877
 9080WAT     H227483   5.353   7.362   8.871
 9081WAT      O27484   8.046   8.218   1.253
 9081WAT     H127485   7.990   8.298   1.229
 9081WAT     H227486   7.988   8.137   1.261
 9082WAT      O27487   4.418   2.312   8.812
 9082WAT     H127488   4.361   2.233   8.789
 9082WAT     H227489   4.360   2.393   8.822
 9083WAT      O27490   4.824   2.064   0.343
 9083WAT     H127491   4.859   1.992   0.282
 9083WAT     H227492   4.848   2.042   0.437
 9084WAT      O27493   2.795   7.929   8.462
 9084WAT     H127494   2.852   7.864   8.512
 9084WAT     H227495   2.698   7.907   8.479
 9085WAT      O27496   0.427   8.307   1.953
 9085WAT     H127497   0.339   8.295   1.907
 9085WAT     H227498   0.495   8.339   1.887
 9086WAT      O27499   4.395   8.064   4.517
 9086WAT     H127500   4.305   8.037   4.553
 9086WAT     H227501   4.463   7.996   4.544
 9087WAT      O27502   4.445   9.664   1.584
 9087WAT     H127503   4.416   9.657   1.488
 9087WAT     H227504   4.364   9.659   1.643
 9088WAT      O27505   2.708   3.325   4.536
 9088WAT     H127506   2.706   3.415   4.494
 9088WAT     H227507   2.736   3.333   4.632
 9089WAT      O27508   3.906   4.013   9.171
 9089WAT     H127509   3.865   3.958   9.098
 9089WAT     H227510   3.927   3.956   9.250
 9090WAT      O27511   8.788   1.013   5.053
 9090WAT     H127512   8.714   0.956   5.015
 9090WAT     H227513   8.751   1.102   5.078
 9091WAT      O27514   8.499   9.577   3.919
 9091WAT     H127515   8.512   9.676   3.912
 9091WAT     H227516   8.542   9.542   4.002
 9092WAT      O27517   0.521   9.043   4.201
 9092WAT     H127518   0.593   8.973   4.196
 9092WAT     H227519   0.449   9.021   4.135
 9093WAT      O27520   7.659   1.019   9.821
 9093WAT     H127521   7.627   0.934   9.862
 9093WAT     H227522   7.601   1.042   9.743
 9094WAT      O27523   5.955   6.196   6.735
 9094WAT     H127524   5.998   6.107   6.746
 9094WAT     H227525   5.908   6.221   6.820
 9095WAT      O27526   6.024   1.338   5.773
 9095WAT     H127527   6.117   1.317   5.805
 9095WAT     H227528   6.018   1.434   5.748
 9096WAT      O27529   9.410   1.903   3.952
 9096WAT     H127530   9.376   1.928   4.043
 9096WAT     H227531   9.402   1.804   3.940
 9097WAT      O27532   2.499   4.998   3.384
 9097WAT     H127533   2.408   5.021   3.417
 9097WAT     H227534   2.562   5.073   3.405
 9098WAT      O27535   0.494   2.539   5.027
 9098WAT     H127536   0.484   2.441   5.046
 9098WAT     H227537   0.511   2.587   5.113
 9099WAT      O27538   8.770   5.093   5.475
 9099WAT     H127539   8.804   5.122   5.386
 9099WAT     H227540   8.809   5.152   5.546
 9100WAT      O27541   9.259   2.366   8.056
 9100WAT     H127542   9.243   2.268   8.052
 9100WAT     H227543   9.311   2.394   7.975
 9101WAT      O27544   8.071   9.096   5.500
 9101WAT     H127545   7.980   9.121   5.468
 9101WAT     H227546   8.084   9.131   5.593
 9102WAT      O27547   6.347   4.237   1.329
 9102WAT     H127548   6.401   4.166   1.284
 9102WAT     H227549   6.376   4.327   1.296
 9103WAT      O27550   3.778   2.541   4.497
 9103WAT     H127551   3.690   2.588   4.500
 9103WAT     H227552   3.845   2.599   4.451
 9104WAT      O27553   5.974   5.392   1.759
 9104WAT     H127554   5.962   5.472   1.700
 9104WAT     H227555   5.973   5.309   1.704
 9105WAT      O27556   0.856   3.754   1.037
 9105WAT     H127557   0.863   3.721   1.131
 9105WAT     H227558   0.947   3.767   0.998
 9106WAT      O27559   6.018   8.413   6.073
 9106WAT     H127560   6.057   8.374   5.990
 9106WAT     H227561   6.029   8.513   6.071
 9107WAT      O27562   0.044   5.550   0.923
 9107WAT     H127563   0.125   5.596   0.959
 9107WAT     H227564  -0.020   5.532   0.998
 9108WAT      O27565   0.943   7.266   1.715
 9108WAT     H127566   0.905   7.174   1.726
 9108WAT     H227567   1.027   7.274   1.768
 9109WAT      O27568   6.466   2.100   1.682
 9109WAT     H127569   6.475   2.091   1.583
 9109WAT     H227570   6.475   2.196   1.708
 9110WAT      O27571   3.224   9.606   6.755
 9110WAT     H127572   3.275   9.639   6.676
 9110WAT     H227573   3.141   9.559   6.724
 9111WAT      O27574   6.617   6.004   0.293
 9111WAT     H127575   6.553   5.940   0.250
 9111WAT     H227576   6.701   5.956   0.317
 9112WAT      O27577   3.526   5.491   5.264
 9112WAT     H127578   3.486   5.575   5.300
 9112WAT     H227579   3.620   5.508   5.235
 9113WAT      O27580   9.079   5.559   3.992
 9113WAT     H127581   9.115   5.466   3.985
 9113WAT     H227582   9.148   5.624   3.960
 9114WAT      O27583   3.153   7.492   3.489
 9114WAT     H127584   3.130   7.568   3.551
 9114WAT     H227585   3.252   7.492   3.473
 9115WAT      O27586   3.908   8.583   7.805
 9115WAT     H127587   3.881   8.678   7.824
 9115WAT     H227588   3.904   8.530   7.889
 9116WAT      O27589   2.872   8.373   8.459
 9116WAT     H127590   2.858   8.313   8.380
 9116WAT     H227591   2.940   8.332   8.520
 9117WAT      O27592   0.094   3.056   8.066
 9117WAT     H127593   0.148   3.128   8.109
 9117WAT     H227594   0.131   3.037   7.975
 9118WAT      O27595   3.044   6.502   1.384
 9118WAT     H127596   3.060   6.416   1.432
 9118WAT     H227597   3.118   6.566   1.405
 9119WAT      O27598   4.643   5.007   7.909
 9119WAT     H127599   4.592   5.035   7.990
 9119WAT     H227600   4.592   5.032   7.826
 9120WAT      O27601   8.794   4.600   0.901
 9120WAT     H127602   8.775   4.690   0.862
 9120WAT     H227603   8.825   4.610   0.995
 9121WAT      O27604   7.759   1.256   9.073
 9121WAT     H127605   7.778   1.354   9.061
 9121WAT     H227606   7.788   1.228   9.164
 9122WAT      O27607   4.038   3.769   3.150
 9122WAT     H127608   3.950   3.794   3.192
 9122WAT     H227609   4.099   3.848   3.151
 9123WAT      O27610   3.592   4.789   6.260
 9123WAT     H127611   3.640   4.802   6.173
 9123WAT     H227612   3.516   4.725   6.247
 9124WAT      O27613   5.163   3.336   6.903
 9124WAT     H127614   5.152   3.435   6.893
 9124WAT     H227615   5.106   3.303   6.978
 9125WAT      O27616   6.496   3.600   8.352
 9125WAT     H127617   6.397   3.610   8.362
 9125WAT     H227618   6.523   3.506   8.374
 9126WAT      O27619   1.759   7.833   7.969
 9126WAT     H127620   1.804   7.758   8.019
 9126WAT     H227621   1.780   7.824   7.872
 9127WAT      O27622   6.517   9.615   8.616
 9127WAT     H127623   6.530   9.516   8.625
 9127WAT     H227624   6.535   9.659   8.703
 9128WAT      O27625   1.009   8.537   8.677
 9128WAT     H127626   0.972   8.556   8.768
 9128WAT     H227627   0.936   8.540   8.609
 9129WAT      O27628   2.181   7.249   6.872
 9129WAT     H127629   2.090   7.207   6.866
 9129WAT     H227630   2.250   7.177   6.872
 9130WAT      O27631   3.243   3.501   9.815
 9130WAT     H127632   3.258   3.454   9.728
 9130WAT     H227633   3.303   3.462   9.885
 9131WAT      O27634   9.272   6.294   6.743
 9131WAT     H127635   9.338   6.311   6.671
 9131WAT     H227636   9.297   6.210   6.792
 9132WAT      O27637   9.422   8.695   3.434
 9132WAT     H127638   9.354   8.769   3.430
 9132WAT     H227639   9.395   8.621   3.373
 9133WAT      O27640   2.461   1.474   5.145
 9133WAT     H127641   2.474   1.378   5.121
 9133WAT     H227642   2.458   1.482   5.245
 9134WAT      O27643   5.345   0.666   8.509
 9134WAT     H127644   5.320   0.622   8.595
 9134WAT     H227645   5.440   0.644   8.488
 9135WAT      O27646   2.207   4.643   7.883
 9135WAT     H127647   2.170   4.588   7.958
 9135WAT     H227648   2.284   4.595   7.841
 9136WAT      O27649   7.673   2.625   8.098
 9136WAT     H127650   7.609   2.581   8.161
 9136WAT     H227651   7.697   2.561   8.024
 9137WAT      O27652   7.419   7.522   9.691
 9137WAT     H127653   7.504   7.492   9.735
 9137WAT     H227654   7.440   7.555   9.599
 9138WAT      O27655   6.401   2.296   9.188
 9138WAT     H127656   6.469   2.327   9.254
 9138WAT     H227657   6.384   2.367   9.120
 9139WAT      O27658   7.260   3.603   7.397
 9139WAT     H127659   7.166   3.605   7.364
 9139WAT     H227660   7.323   3.604   7.319
 9140WAT      O27661   3.399   8.031   2.841
 9140WAT     H127662   3.452   8.086   2.777
 9140WAT     H227663   3.451   7.950   2.867
 9141WAT      O27664   1.484   7.368   6.858
 9141WAT     H127665   1.501   7.419   6.943
 9141WAT     H227666   1.560   7.381   6.795
 9142WAT      O27667   6.264   7.699   1.991
 9142WAT     H127668   6.200   7.670   1.920
 9142WAT     H227669   6.308   7.619   2.031
 9143WAT      O27670   0.497   4.251   6.693
 9143WAT     H127671   0.501   4.298   6.781
 9143WAT     H227672   0.415   4.278   6.644
 9144WAT      O27673   1.554   5.169   8.740
 9144WAT     H127674   1.458   5.160   8.712
 9144WAT     H227675   1.611   5.177   8.659
 9145WAT      O27676   6.664   3.901   9.432
 9145WAT     H127677   6.685   3.965   9.506
 9145WAT     H227678   6.738   3.835   9.423
 9146WAT      O27679   8.819   2.449   1.757
 9146WAT     H127680   8.885   2.501   1.703
 9146WAT     H227681   8.857   2.359   1.777
 9147WAT      O27682   9.163   7.449   0.920
 9147WAT     H127683   9.109   7.532   0.909
 9147WAT     H227684   9.249   7.458   0.869
 9148WAT      O27685   3.125   6.569   6.843
 9148WAT     H127686   3.223   6.556   6.858
 9148WAT     H227687   3.097   6.516   6.762
 9149WAT      O27688   9.122   5.074   5.746
 9149WAT     H127689   9.202   5.113   5.700
 9149WAT     H227690   9.146   4.986   5.787
 9150WAT      O27691   9.326   1.274   1.412
 9150WAT     H127692   9.392   1.238   1.346
 9150WAT     H227693   9.362   1.264   1.505
 9151WAT      O27694   3.905   5.154   2.047
 9151WAT     H127695   3.909   5.219   1.971
 9151WAT     H227696   3.859   5.070   2.017
 9152WAT      O27697   7.973   8.497   5.523
 9152WAT     H127698   7.932   8.417   5.567
 9152WAT     H227699   8.072   8.485   5.517
 9153WAT      O27700   1.244   5.443   7.263
 9153WAT     H127701   1.154   5.483   7.247
 9153WAT     H227702   1.234   5.346   7.285
 9154WAT      O27703   6.024   4.709   0.190
 9154WAT     H127704   6.037   4.750   0.280
 9154WAT     H227705   6.077   4.624   0.183
 9155WAT      O27706   6.047   5.482   0.565
 9155WAT     H127707   6.098   5.396   0.573
 9155WAT     H227708   5.949   5.464   0.576
 9156WAT      O27709   0.129   7.090   4.643
 9156WAT     H127710   0.041   7.120   4.605
 9156WAT     H227711   0.188   7.169   4.657
 9157WAT      O27712   8.269   6.437   9.244
 9157WAT     H127713   8.367   6.422   9.254
 9157WAT     H227714   8.251   6.536   9.239
 9158WAT      O27715   8.822   3.509   6.282
 9158WAT     H127716   8.760   3.470   6.350
 9158WAT     H227717   8.781   3.500   6.191
 9159WAT      O27718   0.914   0.042   3.178
 9159WAT     H127719   0.876  -0.010   3.102
 9159WAT     H227720   0.930   0.136   3.150
 9160WAT      O27721   3.956   3.867   4.425
 9160WAT     H127722   3.901   3.805   4.481
 9160WAT     H227723   3.896   3.919   4.364
 9161WAT      O27724   8.519   6.139   8.362
 9161WAT     H127725   8.581   6.062   8.349
 9161WAT     H227726   8.552   6.217   8.308
 9162WAT      O27727   1.170   9.131   9.046
 9162WAT     H127728   1.180   9.112   8.949
 9162WAT     H227729   1.172   9.230   9.062
 9163WAT      O27730   2.827   8.381   6.396
 9163WAT     H127731   2.760   8.407   6.466
 9163WAT     H227732   2.895   8.454   6.386
 9164WAT      O27733   2.327   5.177   6.594
 9164WAT     H127734   2.369   5.145   6.509
 9164WAT     H227735   2.331   5.277   6.597
 9165WAT      O27736   1.487   2.352   0.597
 9165WAT     H127737   1.581   2.360   0.564
 9165WAT     H227738   1.448   2.444   0.608
 9166WAT      O27739   3.024   0.859   3.966
 9166WAT     H127740   2.983   0.935   3.915
 9166WAT     H227741   3.065   0.894   4.050
 9167WAT      O27742   5.266   6.131   9.417
 9167WAT     H127743   5.218   6.095   9.337
 9167WAT     H227744   5.214   6.207   9.456
 9168WAT      O27745   5.266   7.417   2.516
 9168WAT     H127746   5.263   7.438   2.418
 9168WAT     H227747   5.217   7.488   2.566
 9169WAT      O27748   0.933   5.269   9.607
 9169WAT     H127749   0.963   5.174   9.599
 9169WAT     H227750   0.963   5.321   9.527
 9170WAT      O27751   5.111   7.242   0.520
 9170WAT     H127752   5.093   7.309   0.592
 9170WAT     H227753   5.126   7.152   0.562
 9171WAT      O27754   5.868   2.957   3.631
 9171WAT     H127755   5.922   2.946   3.714
 9171WAT     H227756   5.928   2.981   3.555
 9172WAT      O27757   3.646   3.013   5.980
 9172WAT     H127758   3.559   3.043   5.942
 9172WAT     H227759   3.635   2.991   6.077
 9173WAT      O27760   4.203   6.473   3.183
 9173WAT     H127761   4.148   6.552   3.208
 9173WAT     H227762   4.299   6.492   3.200
 9174WAT      O27763   5.786   1.405   1.846
 9174WAT     H127764   5.818   1.498   1.829
 9174WAT     H227765   5.687   1.401   1.832
 9175WAT      O27766   0.295   6.200   6.137
 9175WAT     H127767   0.360   6.274   6.120
 9175WAT     H227768   0.225   6.201   6.065
 9176WAT      O27769   9.660   9.654   9.291
 9176WAT     H127770   9.740   9.618   9.244
 9176WAT     H227771   9.654   9.753   9.275
 9177WAT      O27772   3.282   6.267   9.431
 9177WAT     H127773   3.379   6.246   9.421
 9177WAT     H227774   3.231   6.183   9.451
 9178WAT      O27775   1.240   0.053   0.478
 9178WAT     H127776   1.192   0.132   0.440
 9178WAT     H227777   1.322   0.034   0.424
 9179WAT      O27778   4.949   3.120   7.146
 9179WAT     H127779   4.906   3.191   7.091
 9179WAT     H227780   4.883   3.086   7.213
 9180WAT      O27781   5.620   3.528   4.206
 9180WAT     H127782   5.590   3.511   4.300
 9180WAT     H227783   5.608   3.625   4.184
 9181WAT      O27784   1.765   4.843   4.070
 9181WAT     H127785   1.795   4.817   4.162
 9181WAT     H227786   1.832   4.904   4.029
 9182WAT      O27787   2.900   2.957   9.217
 9182WAT     H127788   2.952   3.021   9.162
 9182WAT     H227789   2.922   2.863   9.190
 9183WAT      O27790   1.928   5.684   2.135
 9183WAT     H127791   1.880   5.656   2.218
 9183WAT     H227792   2.027   5.682   2.151
 9184WAT      O27793   8.985   3.488   2.593
 9184WAT     H127794   9.036   3.467   2.676
 9184WAT     H227795   8.892   3.451   2.600
 9185WAT      O27796   9.671   4.053   5.598
 9185WAT     H127797   9.574   4.043   5.616
 9185WAT     H227798   9.723   4.034   5.681
 9186WAT      O27799   5.783   6.017   1.293
 9186WAT     H127800   5.761   6.094   1.234
 9186WAT     H227801   5.789   5.933   1.239
 9187WAT      O27802   9.031   4.006   1.314
 9187WAT     H127803   9.078   4.035   1.398
 9187WAT     H227804   9.084   4.035   1.234
 9188WAT      O27805   3.029   9.401   0.220
 9188WAT     H127806   2.977   9.372   0.301
 9188WAT     H227807   3.052   9.498   0.229
 9189WAT      O27808   1.703   9.380   1.138
 9189WAT     H127809   1.802   9.399   1.136
 9189WAT     H227810   1.653   9.461   1.107
 9190WAT      O27811   5.955   6.043   4.788
 9190WAT     H127812   6.019   6.087   4.725
 9190WAT     H227813   5.997   5.961   4.827
 9191WAT      O27814   3.827   3.461   4.466
 9191WAT     H127815   3.913   3.423   4.430
 9191WAT     H227816   3.848   3.524   4.541
 9192WAT      O27817   2.893   9.225   4.953
 9192WAT     H127818   2.989   9.196   4.964
 9192WAT     H227819   2.841   9.195   5.033
 9193WAT      O27820   5.092   7.582   3.624
 9193WAT     H127821   5.069   7.672   3.588
 9193WAT     H227822   5.040   7.565   3.708
 9194WAT      O27823   7.182   9.459   0.468
 9194WAT     H127824   7.188   9.513   0.552
 9194WAT     H227825   7.152   9.366   0.491
 9195WAT      O27826   7.215   9.463   8.174
 9195WAT     H127827   7.254   9.390   8.118
 9195WAT     H227828   7.165   9.528   8.116
 9196WAT      O27829   2.750   9.475   5.571
 9196WAT     H127830   2.717   9.424   5.492
 9196WAT     H227831   2.795   9.559   5.540
 9197WAT      O27832   1.025   2.391   0.422
 9197WAT     H127833   1.046   2.295   0.443
 9197WAT     H227834   0.931   2.411   0.449
 9198WAT      O27835   7.843   9.755   3.389
 9198WAT     H127836   7.860   9.710   3.476
 9198WAT     H227837   7.925   9.749   3.332
 9199WAT      O27838   4.146   4.796   4.016
 9199WAT     H127839   4.186   4.720   3.965
 9199WAT     H227840   4.155   4.780   4.114
 9200WAT      O27841   8.854   0.166   5.414
 9200WAT     H127842   8.787   0.239   5.429
 9200WAT     H227843   8.832   0.088   5.472
 9201WAT      O27844   7.788   5.868   8.063
 9201WAT     H127845   7.863   5.856   7.997
 9201WAT     H227846   7.753   5.778   8.091
 9202WAT      O27847   5.145   2.247   1.756
 9202WAT     H127848   5.112   2.160   1.720
 9202WAT     H227849   5.163   2.310   1.680
 9203WAT      O27850   8.216   7.402   1.875
 9203WAT     H127851   8.155   7.455   1.817
 9203WAT     H227852   8.254   7.326   1.823
 9204WAT      O27853   7.908   8.731   5.666
 9204WAT     H127854   7.893   8.792   5.588
 9204WAT     H227855   7.898   8.636   5.637
 9205WAT      O27856   7.446   6.781   3.978
 9205WAT     H127857   7.476   6.790   4.073
 9205WAT     H227858   7.392   6.698   3.968
 9206WAT      O27859   0.223   1.947   3.978
 9206WAT     H127860   0.209   2.019   3.910
 9206WAT     H227861   0.195   1.859   3.940
 9207WAT      O27862   7.948   1.893   8.101
 9207WAT     H127863   8.040   1.879   8.062
 9207WAT     H227864   7.930   1.991   8.111
 9208WAT      O27865   2.667   9.737   3.088
 9208WAT     H127866   2.599   9.677   3.131
 9208WAT     H227867   2.645   9.832   3.110
 9209WAT      O27868   1.607   8.079   6.526
 9209WAT     H127869   1.601   8.148   6.454
 9209WAT     H227870   1.661   8.002   6.493
 9210WAT      O27871   4.940   6.722   4.731
 9210WAT     H127872   4.996   6.801   4.707
 9210WAT     H227873   4.993   6.638   4.719
 9211WAT      O27874   4.745   3.048   2.640
 9211WAT     H127875   4.776   2.977   2.576
 9211WAT     H227876   4.645   3.055   2.635
 9212WAT      O27877   4.787   6.905   2.897
 9212WAT     H127878   4.804   6.970   2.822
 9212WAT     H227879   4.768   6.815   2.859
 9213WAT      O27880   7.479   1.555   2.121
 9213WAT     H127881   7.431   1.529   2.037
 9213WAT     H227882   7.426   1.626   2.168
 9214WAT      O27883   1.927   3.492   7.829
 9214WAT     H127884   1.936   3.418   7.762
 9214WAT     H227885   1.831   3.508   7.849
 9215WAT      O27886   3.652   3.068   9.837
 9215WAT     H127887   3.743   3.029   9.845
 9215WAT     H227888   3.656   3.152   9.782
 9216WAT      O27889   2.333   3.589   5.456
 9216WAT     H127890   2.357   3.683   5.431
 9216WAT     H227891   2.337   3.531   5.375
 9217WAT      O27892   5.143   0.848   9.509
 9217WAT     H127893   5.045   0.847   9.530
 9217WAT     H227894   5.166   0.768   9.453
 9218WAT      O27895   6.444   0.762   5.779
 9218WAT     H127896   6.407   0.669   5.781
 9218WAT     H227897   6.531   0.762   5.731
 9219WAT      O27898   2.980   3.362   5.330
 9219WAT     H127899   2.983   3.360   5.430
 9219WAT     H227900   2.980   3.457   5.299
 9220WAT      O27901   4.953   8.784   9.893
 9220WAT     H127902   4.943   8.759   9.797
 9220WAT     H227903   4.894   8.862   9.914
 9221WAT      O27904   8.572   2.988   7.489
 9221WAT     H127905   8.581   3.078   7.447
 9221WAT     H227906   8.651   2.932   7.464
 9222WAT      O27907   1.755   5.816   8.492
 9222WAT     H127908   1.827   5.757   8.530
 9222WAT     H227909   1.716   5.773   8.411
 9223WAT      O27910   9.716   5.192   4.176
 9223WAT     H127911   9.758   5.186   4.267
 9223WAT     H227912   9.788   5.194   4.107
 9224WAT      O27913   3.284   6.791   7.115
 9224WAT     H127914   3.301   6.778   7.017
 9224WAT     H227915   3.307   6.707   7.164
 9225WAT      O27916   2.332   0.228   3.727
 9225WAT     H127917   2.359   0.310   3.776
 9225WAT     H227918   2.243   0.243   3.683
 9226WAT      O27919   4.622   3.640   9.430
 9226WAT     H127920   4.541   3.595   9.393
 9226WAT     H227921   4.603   3.737   9.445
 9227WAT      O27922   8.818   3.556   4.463
 9227WAT     H127923   8.761   3.496   4.520
 9227WAT     H227924   8.787   3.550   4.368
 9228WAT      O27925   7.720   9.194   2.332
 9228WAT     H127926   7.672   9.274   2.298
 9228WAT     H227927   7.774   9.153   2.259
 9229WAT      O27928   9.484   0.232   4.931
 9229WAT     H127929   9.391   0.208   4.960
 9229WAT     H227930   9.484   0.250   4.833
 9230WAT      O27931   2.981   3.545   5.607
 9230WAT     H127932   2.992   3.449   5.632
 9230WAT     H227933   2.908   3.585   5.662
 9231WAT      O27934   5.475   0.823   1.527
 9231WAT     H127935   5.457   0.906   1.579
 9231WAT     H227936   5.400   0.807   1.463
 9232WAT      O27937   1.164   4.988   3.057
 9232WAT     H127938   1.124   4.966   3.145
 9232WAT     H227939   1.249   5.039   3.071
 9233WAT      O27940   1.175   1.610   3.509
 9233WAT     H127941   1.185   1.560   3.595
 9233WAT     H227942   1.081   1.601   3.476
 9234WAT      O27943   2.730   6.831   8.457
 9234WAT     H127944   2.685   6.795   8.539
 9234WAT     H227945   2.768   6.921   8.477
 9235WAT      O27946   7.086   5.675   7.351
 9235WAT     H127947   7.094   5.770   7.319
 9235WAT     H227948   7.103   5.613   7.275
 9236WAT      O27949   4.371   1.055   0.248
 9236WAT     H127950   4.466   1.074   0.226
 9236WAT     H227951   4.353   1.081   0.343
 9237WAT      O27952   9.507   3.833   8.977
 9237WAT     H127953   9.427   3.802   9.029
 9237WAT     H227954   9.497   3.930   8.955
 9238WAT      O27955   5.636   6.670   6.444
 9238WAT     H127956   5.667   6.591   6.497
 9238WAT     H227957   5.713   6.709   6.394
 9239WAT      O27958   3.087   5.329   0.017
 9239WAT     H127959   3.070   5.353  -0.079
 9239WAT     H227960   3.072   5.231   0.030
 9240WAT      O27961   2.271   0.791   7.718
 9240WAT     H127962   2.359   0.833   7.698
 9240WAT     H227963   2.269   0.697   7.684
 9241WAT      O27964   2.343   9.538   7.612
 9241WAT     H127965   2.381   9.630   7.621
 9241WAT     H227966   2.403   9.472   7.658
 9242WAT      O27967   2.287   3.249   4.125
 9242WAT     H127968   2.294   3.177   4.056
 9242WAT     H227969   2.195   3.289   4.122
 9243WAT      O27970   5.253   8.471   0.474
 9243WAT     H127971   5.193   8.417   0.533
 9243WAT     H227972   5.236   8.568   0.489
 9244WAT      O27973   1.058   5.117   0.874
 9244WAT     H127974   1.059   5.116   0.774
 9244WAT     H227975   1.060   5.023   0.908
 9245WAT      O27976   3.046   4.904   5.405
 9245WAT     H127977   3.003   4.981   5.451
 9245WAT     H227978   3.094   4.846   5.471
 9246WAT      O27979   7.367   8.213   1.512
 9246WAT     H127980   7.333   8.289   1.568
 9246WAT     H227981   7.292   8.175   1.459
 9247WAT      O27982   5.747   2.924   8.335
 9247WAT     H127983   5.661   2.966   8.365
 9247WAT     H227984   5.818   2.993   8.325
 9248WAT      O27985   9.869   1.265   3.330
 9248WAT     H127986   9.827   1.203   3.396
 9248WAT     H227987   9.901   1.212   3.251
 9249WAT      O27988   2.982   8.387   5.828
 9249WAT     H127989   3.047   8.389   5.753
 9249WAT     H227990   2.890   8.371   5.792
 9250WAT      O27991   8.234   6.476   6.964
 9250WAT     H127992   8.184   6.549   6.918
 9250WAT     H227993   8.225   6.487   7.063
 9251WAT      O27994   8.427   7.596   6.881
 9251WAT     H127995   8.506   7.601   6.943
 9251WAT     H227996   8.347   7.568   6.933
 9252WAT      O27997   0.579   7.527   1.694
 9252WAT     H127998   0.553   7.430   1.686
 9252WAT     H227999   0.530   7.580   1.624
 9253WAT      O28000   6.271   5.786   1.696
 9253WAT     H128001   6.186   5.824   1.661
 9253WAT     H228002   6.279   5.807   1.794
 9254WAT      O28003   8.230   3.495   9.337
 9254WAT     H128004   8.241   3.399   9.312
 9254WAT     H228005   8.321   3.536   9.348
 9255WAT      O28006   4.780   4.604   0.422
 9255WAT     H128007   4.828   4.645   0.344
 9255WAT     H228008   4.793   4.662   0.503
 9256WAT      O28009   5.646   7.951   3.621
 9256WAT     H128010   5.582   7.886   3.580
 9256WAT     H228011   5.709   7.985   3.551
 9257WAT      O28012   4.471   5.497   5.283
 9257WAT     H128013   4.532   5.426   5.319
 9257WAT     H228014   4.385   5.455   5.255
 9258WAT      O28015   9.153   3.339   8.752
 9258WAT     H128016   9.158   3.246   8.715
 9258WAT     H228017   9.093   3.394   8.693
 9259WAT      O28018   7.786   1.979   0.025
 9259WAT     H128019   7.861   2.044   0.011
 9259WAT     H228020   7.751   1.988   0.118
 9260WAT      O28021   8.277   6.591   2.786
 9260WAT     H128022   8.308   6.569   2.694
 9260WAT     H228023   8.353   6.578   2.850
 9261WAT      O28024   1.899   4.902   5.976
 9261WAT     H128025   1.909   4.888   5.877
 9261WAT     H228026   1.825   4.845   6.010
 9262WAT      O28027   1.107   0.118   9.122
 9262WAT     H128028   1.084   0.120   9.219
 9262WAT     H228029   1.195   0.164   9.107
 9263WAT      O28030   0.568   3.393   0.859
 9263WAT     H128031   0.600   3.476   0.814
 9263WAT     H228032   0.468   3.393   0.861
 9264WAT      O28033   8.511   0.657   0.511
 9264WAT     H128034   8.575   0.630   0.440
 9264WAT     H228035   8.556   0.655   0.600
 9265WAT      O28036   3.562   6.795   0.032
 9265WAT     H128037   3.555   6.805   0.131
 9265WAT     H228038   3.601   6.705   0.010
 9266WAT      O28039   5.199   5.176   0.219
 9266WAT     H128040   5.228   5.215   0.306
 9266WAT     H228041   5.107   5.137   0.230
 9267WAT      O28042   9.840   6.019   9.583
 9267WAT     H128043   9.934   6.044   9.562
 9267WAT     H228044   9.806   6.075   9.658
 9268WAT      O28045   5.347   7.250   9.278
 9268WAT     H128046   5.333   7.349   9.283
 9268WAT     H228047   5.414   7.231   9.206
 9269WAT      O28048   9.468   4.542   9.530
 9269WAT     H128049   9.495   4.476   9.460
 9269WAT     H228050   9.445   4.629   9.486
 9270WAT      O28051   9.029   5.048   6.459
 9270WAT     H128052   8.931   5.067   6.462
 9270WAT     H228053   9.044   4.951   6.441
 9271WAT      O28054   7.756   3.229   2.140
 9271WAT     H128055   7.809   3.276   2.211
 9271WAT     H228056   7.788   3.135   2.131
 9272WAT      O28057   3.307   8.930   5.908
 9272WAT     H128058   3.256   8.878   5.839
 9272WAT     H228059   3.248   8.946   5.988
 9273WAT      O28060   0.996   1.711   0.487
 9273WAT     H128061   1.049   1.686   0.406
 9273WAT     H228062   1.053   1.760   0.552
 9274WAT      O28063   0.933   1.629   7.979
 9274WAT     H128064   0.993   1.689   7.927
 9274WAT     H228065   0.848   1.677   8.001
 9275WAT      O28066   6.418   5.045   4.872
 9275WAT     H128067   6.473   5.048   4.956
 9275WAT     H228068   6.321   5.037   4.897
 9276WAT      O28069   3.359   4.132   1.429
 9276WAT     H128070   3.280   4.072   1.412
 9276WAT     H228071   3.411   4.096   1.507
 9277WAT      O28072   6.138   1.624   2.095
 9277WAT     H128073   6.082   1.549   2.130
 9277WAT     H228074   6.156   1.609   1.998
 9278WAT      O28075   4.029   6.784   1.222
 9278WAT     H128076   3.945   6.837   1.237
 9278WAT     H228077   4.092   6.801   1.298
 9279WAT      O28078   2.312   4.029   0.394
 9279WAT     H128079   2.385   4.095   0.377
 9279WAT     H228080   2.224   4.076   0.399
 9280WAT      O28081   8.686   0.388   2.592
 9280WAT     H128082   8.621   0.314   2.607
 9280WAT     H228083   8.707   0.433   2.679
 9281WAT      O28084   1.078   8.249   2.507
 9281WAT     H128085   1.149   8.306   2.466
 9281WAT     H228086   1.023   8.207   2.435
 9282WAT      O28087   7.562   3.010   0.759
 9282WAT     H128088   7.602   2.935   0.812
 9282WAT     H228089   7.475   2.981   0.720
 9283WAT      O28090   8.208   1.918   1.030
 9283WAT     H128091   8.170   1.963   1.111
 9283WAT     H228092   8.291   1.868   1.055
 9284WAT      O28093   0.629   2.958   2.878
 9284WAT     H128094   0.603   3.052   2.901
 9284WAT     H228095   0.720   2.939   2.916
 9285WAT      O28096   1.994   9.631   8.258
 9285WAT     H128097   1.936   9.557   8.292
 9285WAT     H228098   1.988   9.635   8.158
 9286WAT      O28099   3.258   5.991   4.389
 9286WAT     H128100   3.215   5.966   4.302
 9286WAT     H228101   3.333   5.928   4.407
 9287WAT      O28102   4.365   5.978   4.752
 9287WAT     H128103   4.303   6.057   4.751
 9287WAT     H228104   4.312   5.894   4.760
 9288WAT      O28105   0.860   4.062   8.275
 9288WAT     H128106   0.845   4.131   8.346
 9288WAT     H228107   0.777   4.051   8.221
 9289WAT      O28108   2.507   5.543   2.572
 9289WAT     H128109   2.586   5.484   2.588
 9289WAT     H228110   2.504   5.570   2.476
 9290WAT      O28111   8.956   0.416   8.680
 9290WAT     H128112   8.992   0.323   8.675
 9290WAT     H228113   8.952   0.445   8.776
 9291WAT      O28114   9.063   6.702   2.764
 9291WAT     H128115   9.080   6.750   2.850
 9291WAT     H228116   9.084   6.762   2.687
 9292WAT      O28117   4.839   3.981   8.600
 9292WAT     H128118   4.840   3.931   8.687
 9292WAT     H228119   4.887   3.929   8.530
 9293WAT      O28120   9.179   6.507   2.549
 9293WAT     H128121   9.195   6.549   2.638
 9293WAT     H228122   9.081   6.506   2.530
 9294WAT      O28123   8.610   6.112   1.327
 9294WAT     H128124   8.608   6.021   1.286
 9294WAT     H228125   8.525   6.160   1.305
 9295WAT      O28126   3.064   5.205   3.787
 9295WAT     H128127   3.098   5.151   3.864
 9295WAT     H228128   3.076   5.153   3.702
 9296WAT      O28129   5.750   3.264   4.152
 9296WAT     H128130   5.716   3.357   4.136
 9296WAT     H228131   5.697   3.222   4.226
 9297WAT      O28132   4.925   8.105   5.032
 9297WAT     H128133   4.879   8.077   4.948
 9297WAT     H228134   4.862   8.161   5.087
 9298WAT      O28135   4.004   2.941   8.545
 9298WAT     H128136   4.031   3.033   8.519
 9298WAT     H228137   4.070   2.903   8.610
 9299WAT      O28138   5.856   6.541   2.010
 9299WAT     H128139   5.885   6.598   1.932
 9299WAT     H228140   5.756   6.533   2.009
 9300WAT      O28141   2.075   9.676   9.026
 9300WAT     H128142   2.050   9.580   9.033
 9300WAT     H228143   1.992   9.732   9.019
 9301WAT      O28144   8.531   4.619   8.881
 9301WAT     H128145   8.522   4.528   8.841
 9301WAT     H228146   8.471   4.627   8.961
 9302WAT      O28147   3.260   2.834   5.169
 9302WAT     H128148   3.350   2.864   5.137
 9302WAT     H228149   3.244   2.869   5.262
 9303WAT      O28150   4.128   9.691   6.427
 9303WAT     H128151   4.124   9.591   6.428
 9303WAT     H228152   4.218   9.721   6.459
 9304WAT      O28153   6.229   7.805   2.620
 9304WAT     H128154   6.175   7.858   2.555
 9304WAT     H228155   6.269   7.867   2.688
 9305WAT      O28156   1.947   8.381   7.687
 9305WAT     H128157   2.018   8.387   7.757
 9305WAT     H228158   1.867   8.432   7.716
 9306WAT      O28159   2.949   3.441   3.932
 9306WAT     H128160   2.956   3.415   3.836
 9306WAT     H228161   2.875   3.390   3.976
 9307WAT      O28162   7.614   3.101   8.528
 9307WAT     H128163   7.592   3.075   8.622
 9307WAT     H228164   7.664   3.188   8.529
 9308WAT      O28165   5.181   7.715   7.470
 9308WAT     H128166   5.104   7.657   7.496
 9308WAT     H228167   5.266   7.663   7.477
 9309WAT      O28168   4.710   0.258   4.950
 9309WAT     H128169   4.707   0.326   5.023
 9309WAT     H228170   4.623   0.258   4.901
 9310WAT      O28171   4.739   4.783   3.742
 9310WAT     H128172   4.680   4.805   3.820
 9310WAT     H228173   4.730   4.854   3.673
 9311WAT      O28174   0.101   7.722   9.495
 9311WAT     H128175   0.194   7.711   9.527
 9311WAT     H228176   0.092   7.684   9.403
 9312WAT      O28177   4.259   4.098   0.899
 9312WAT     H128178   4.304   4.035   0.962
 9312WAT     H228179   4.323   4.124   0.827
 9313WAT      O28180   6.664   6.508   0.736
 9313WAT     H128181   6.663   6.597   0.691
 9313WAT     H228182   6.724   6.446   0.686
 9314WAT      O28183   3.572   3.855   6.065
 9314WAT     H128184   3.544   3.946   6.034
 9314WAT     H228185   3.672   3.853   6.074
 9315WAT      O28186   9.514   5.440   5.224
 9315WAT     H128187   9.524   5.434   5.125
 9315WAT     H228188   9.487   5.533   5.250
 9316WAT      O28189   4.365   2.027   8.418
 9316WAT     H128190   4.372   2.010   8.319
 9316WAT     H228191   4.295   1.967   8.457
 9317WAT      O28192   9.346   2.629   1.263
 9317WAT     H128193   9.329   2.533   1.286
 9317WAT     H228194   9.407   2.669   1.331
 9318WAT      O28195   2.520   2.098   4.461
 9318WAT     H128196   2.570   2.122   4.544
 9318WAT     H228197   2.492   2.181   4.413
 9319WAT      O28198   0.664   8.546   5.385
 9319WAT     H128199   0.709   8.457   5.380
 9319WAT     H228200   0.566   8.534   5.366
 9320WAT      O28201   6.730   8.466   9.341
 9320WAT     H128202   6.798   8.415   9.393
 9320WAT     H228203   6.773   8.507   9.261
 9321WAT      O28204   2.258   6.443   4.439
 9321WAT     H128205   2.346   6.402   4.415
 9321WAT     H228206   2.185   6.395   4.389
 9322WAT      O28207   1.010   0.854   5.678
 9322WAT     H128208   1.066   0.833   5.599
 9322WAT     H228209   1.060   0.831   5.762
 9323WAT      O28210   8.325   3.130   4.484
 9323WAT     H128211   8.330   3.107   4.582
 9323WAT     H228212   8.409   3.100   4.439
 9324WAT      O28213   1.868   5.096   0.887
 9324WAT     H128214   1.870   5.026   0.959
 9324WAT     H228215   1.801   5.070   0.817
 9325WAT      O28216   0.147   7.078   7.923
 9325WAT     H128217   0.125   7.174   7.940
 9325WAT     H228218   0.179   7.068   7.829
 9326WAT      O28219   5.832   8.532   7.611
 9326WAT     H128220   5.819   8.505   7.516
 9326WAT     H228221   5.751   8.506   7.665
 9327WAT      O28222   3.062   1.125   0.480
 9327WAT     H128223   3.104   1.039   0.450
 9327WAT     H228224   2.968   1.128   0.447
 9328WAT      O28225   5.785   4.986   5.397
 9328WAT     H128226   5.706   4.944   5.441
 9328WAT     H228227   5.867   4.934   5.419
 9329WAT      O28228   0.323   6.827   1.526
 9329WAT     H128229   0.260   6.749   1.529
 9329WAT     H228230   0.290   6.894   1.460
 9330WAT      O28231   8.118   5.367   1.820
 9330WAT     H128232   8.215   5.345   1.831
 9330WAT     H228233   8.067   5.286   1.794
 9331WAT      O28234   9.352   7.150   5.747
 9331WAT     H128235   9.254   7.169   5.752
 9331WAT     H228236   9.403   7.235   5.760
 9332WAT      O28237   0.312   6.595   2.643
 9332WAT     H128238   0.224   6.552   2.661
 9332WAT     H228239   0.377   6.526   2.611
 9333WAT      O28240   2.331   5.017   5.646
 9333WAT     H128241   2.314   5.115   5.636
 9333WAT     H228242   2.393   4.987   5.573
 9334WAT      O28243   9.701   8.437   5.148
 9334WAT     H128244   9.702   8.462   5.244
 9334WAT     H228245   9.705   8.338   5.138
 9335WAT      O28246   3.950   2.158   2.913
 9335WAT     H128247   3.993   2.071   2.887
 9335WAT     H228248   3.942   2.162   3.013
 9336WAT      O28249   6.742   3.469   4.434
 9336WAT     H128250   6.726   3.443   4.529
 9336WAT     H228251   6.716   3.393   4.374
 9337WAT      O28252   9.480   7.364   2.422
 9337WAT     H128253   9.481   7.420   2.505
 9337WAT     H228254   9.552   7.394   2.360
 9338WAT      O28255   8.521   4.540   3.671
 9338WAT     H128256   8.436   4.490   3.653
 9338WAT     H228257   8.563   4.505   3.754
 9339WAT      O28258   1.516   0.210   5.096
 9339WAT     H128259   1.538   0.117   5.128
 9339WAT     H228260   1.566   0.229   5.012
 9340WAT      O28261   7.382   8.444   0.407
 9340WAT     H128262   7.396   8.352   0.443
 9340WAT     H228263   7.470   8.483   0.380
 9341WAT      O28264   4.189   7.872   8.845
 9341WAT     H128265   4.264   7.816   8.810
 9341WAT     H228266   4.227   7.952   8.892
 9342WAT      O28267   3.591   6.574   1.752
 9342WAT     H128268   3.666   6.558   1.815
 9342WAT     H228269   3.615   6.539   1.661
 9343WAT      O28270   1.717   2.384   4.692
 9343WAT     H128271   1.698   2.388   4.594
 9343WAT     H228272   1.811   2.414   4.709
 9344WAT      O28273   6.265   5.911   9.464
 9344WAT     H128274   6.217   5.937   9.548
 9344WAT     H228275   6.264   5.988   9.400
 9345WAT      O28276   5.426   0.380   0.683
 9345WAT     H128277   5.385   0.364   0.773
 9345WAT     H228278   5.365   0.438   0.629
 9346WAT      O28279   2.759   1.879   3.341
 9346WAT     H128280   2.754   1.803   3.406
 9346WAT     H228281   2.821   1.855   3.267
 9347WAT      O28282   1.910   8.743   3.203
 9347WAT     H128283   1.820   8.786   3.207
 9347WAT     H228284   1.943   8.742   3.109
 9348WAT      O28285   3.714   7.988   7.303
 9348WAT     H128286   3.758   7.907   7.339
 9348WAT     H228287   3.742   8.003   7.208
 9349WAT      O28288   5.190   2.203   5.889
 9349WAT     H128289   5.285   2.209   5.860
 9349WAT     H228290   5.183   2.142   5.968
 9350WAT      O28291   7.962   3.299   3.329
 9350WAT     H128292   7.917   3.273   3.414
 9350WAT     H228293   8.054   3.259   3.326
 9351WAT      O28294   6.561   1.533   7.464
 9351WAT     H128295   6.654   1.535   7.429
 9351WAT     H228296   6.505   1.474   7.406
 9352WAT      O28297   1.074   8.529   4.406
 9352WAT     H128298   1.038   8.447   4.363
 9352WAT     H228299   1.083   8.602   4.338
 9353WAT      O28300   6.657   5.515   7.768
 9353WAT     H128301   6.734   5.524   7.705
 9353WAT     H228302   6.622   5.421   7.764
 9354WAT      O28303   0.884   3.537   4.207
 9354WAT     H128304   0.863   3.597   4.129
 9354WAT     H228305   0.828   3.455   4.201
 9355WAT      O28306   4.315   4.924   9.083
 9355WAT     H128307   4.376   4.906   9.006
 9355WAT     H228308   4.226   4.881   9.066
 9356WAT      O28309   4.890   0.076   7.084
 9356WAT     H128310   4.908   0.174   7.081
 9356WAT     H228311   4.892   0.039   6.991
 9357WAT      O28312   4.315   8.000   1.985
 9357WAT     H128313   4.387   7.987   1.917
 9357WAT     H228314   4.342   8.072   2.049
 9358WAT      O28315   1.939   6.364   7.698
 9358WAT     H128316   1.899   6.445   7.654
 9358WAT     H228317   1.893   6.349   7.786
 9359WAT      O28318   8.289   8.439   8.674
 9359WAT     H128319   8.336   8.358   8.709
 9359WAT     H228320   8.190   8.424   8.675
 9360WAT      O28321   2.525   1.630   4.525
 9360WAT     H128322   2.547   1.725   4.502
 9360WAT     H228323   2.507   1.623   4.623
 9361WAT      O28324   1.519   7.615   4.063
 9361WAT     H128325   1.442   7.585   4.007
 9361WAT     H228326   1.533   7.713   4.049
 9362WAT      O28327   0.737   0.662   8.607
 9362WAT     H128328   0.714   0.675   8.703
 9362WAT     H228329   0.664   0.700   8.550
 9363WAT      O28330   4.867   1.738   4.166
 9363WAT     H128331   4.868   1.654   4.220
 9363WAT     H228332   4.864   1.715   4.069
 9364WAT      O28333   2.618   2.066   6.250
 9364WAT     H128334   2.620   1.968   6.235
 9364WAT     H228335   2.529   2.102   6.220
 9365WAT      O28336   7.480   6.497   2.515
 9365WAT     H128337   7.430   6.498   2.429
 9365WAT     H228338   7.575   6.470   2.499
 9366WAT      O28339   1.127   4.422   6.545
 9366WAT     H128340   1.199   4.381   6.601
 9366WAT     H228341   1.115   4.518   6.572
 9367WAT      O28342   6.547   8.056   0.318
 9367WAT     H128343   6.543   8.096   0.226
 9367WAT     H228344   6.538   8.129   0.386
 9368WAT      O28345   7.234   9.576   6.451
 9368WAT     H128346   7.327   9.608   6.469
 9368WAT     H228347   7.172   9.654   6.446
 9369WAT      O28348   6.029   8.316   7.893
 9369WAT     H128349   5.995   8.250   7.825
 9369WAT     H228350   5.974   8.399   7.888
 9370WAT      O28351   1.798   8.861   4.620
 9370WAT     H128352   1.803   8.802   4.540
 9370WAT     H228353   1.886   8.905   4.635
 9371WAT      O28354   5.088   5.430   6.848
 9371WAT     H128355   5.158   5.362   6.873
 9371WAT     H228356   5.022   5.438   6.923
 9372WAT      O28357   9.628   6.859   9.380
 9372WAT     H128358   9.559   6.913   9.428
 9372WAT     H228359   9.666   6.913   9.304
 9373WAT      O28360   9.374   9.384   9.057
 9373WAT     H128361   9.283   9.413   9.087
 9373WAT     H228362   9.415   9.455   9.000
 9374WAT      O28363   8.542   8.910   1.601
 9374WAT     H128364   8.545   8.886   1.698
 9374WAT     H228365   8.586   8.837   1.547
 9375WAT      O28366   4.078   4.969   2.177
 9375WAT     H128367   4.030   5.057   2.179
 9375WAT     H228368   4.030   4.904   2.237
 9376WAT      O28369   5.897   2.270   3.175
 9376WAT     H128370   5.942   2.241   3.091
 9376WAT     H228371   5.902   2.197   3.243
 9377WAT      O28372   3.114   3.187   9.126
 9377WAT     H128373   3.117   3.262   9.060
 9377WAT     H228374   3.175   3.208   9.202
 9378WAT      O28375   3.049   1.728   5.151
 9378WAT     H128376   3.003   1.661   5.092
 9378WAT     H228377   2.981   1.791   5.189
 9379WAT      O28378   1.260   4.753   2.716
 9379WAT     H128379   1.327   4.679   2.717
 9379WAT     H228380   1.212   4.756   2.804
 9380WAT      O28381   0.445   6.294   0.867
 9380WAT     H128382   0.472   6.361   0.937
 9380WAT     H228383   0.443   6.203   0.908
 9381WAT      O28384   8.555   8.142   1.728
 9381WAT     H128385   8.568   8.220   1.667
 9381WAT     H228386   8.537   8.060   1.673
 9382WAT      O28387   6.234   9.320   6.695
 9382WAT     H128388   6.193   9.312   6.787
 9382WAT     H228389   6.220   9.235   6.645
 9383WAT      O28390   7.973   1.103   7.934
 9383WAT     H128391   7.938   1.061   7.851
 9383WAT     H228392   7.908   1.173   7.966
 9384WAT      O28393   9.158   1.110   8.481
 9384WAT     H128394   9.201   1.130   8.394
 9384WAT     H228395   9.058   1.117   8.472
 9385WAT      O28396   6.960   4.496   0.298
 9385WAT     H128397   6.861   4.481   0.310
 9385WAT     H228398   6.980   4.593   0.310
 9386WAT      O28399   6.615   4.720   0.697
 9386WAT     H128400   6.558   4.800   0.678
 9386WAT     H228401   6.703   4.730   0.650
 9387WAT      O28402   1.627   0.447   1.178
 9387WAT     H128403   1.530   0.438   1.200
 9387WAT     H228404   1.678   0.472   1.260
 9388WAT      O28405   3.334   0.073   0.599
 9388WAT     H128406   3.381   0.009   0.659
 9388WAT     H228407   3.399   0.110   0.532
 9389WAT      O28408   7.844   4.037   4.539
 9389WAT     H128409   7.813   4.001   4.451
 9389WAT     H228410   7.934   4.079   4.528
 9390WAT      O28411   9.647   6.634   8.123
 9390WAT     H128412   9.589   6.682   8.058
 9390WAT     H228413   9.631   6.536   8.117
 9391WAT      O28414   9.013   8.456   4.794
 9391WAT     H128415   9.026   8.540   4.847
 9391WAT     H228416   8.966   8.477   4.708
 9392WAT      O28417   3.748   1.170   8.922
 9392WAT     H128418   3.715   1.197   9.013
 9392WAT     H228419   3.682   1.109   8.879
 9393WAT      O28420   5.922   3.263   9.421
 9393WAT     H128421   5.832   3.234   9.452
 9393WAT     H228422   5.991   3.199   9.456
 9394WAT      O28423   7.106   8.913   0.829
 9394WAT     H128424   7.197   8.914   0.789
 9394WAT     H228425   7.040   8.949   0.762
 9395WAT      O28426   6.138   2.696   0.639
 9395WAT     H128427   6.162   2.682   0.735
 9395WAT     H228428   6.206   2.756   0.596
 9396WAT      O28429   7.100   6.884   1.571
 9396WAT     H128430   7.098   6.924   1.663
 9396WAT     H228431   7.042   6.803   1.569
 9397WAT      O28432   0.621   7.045   1.896
 9397WAT     H128433   0.567   6.998   1.826
 9397WAT     H228434   0.559   7.093   1.958
 9398WAT      O28435   9.403   2.392   4.420
 9398WAT     H128436   9.351   2.341   4.351
 9398WAT     H228437   9.484   2.340   4.445
 9399WAT      O28438   0.466   0.058   0.787
 9399WAT     H128439   0.481   0.142   0.839
 9399WAT     H228440   0.554   0.018   0.762
 9400WAT      O28441   9.284   5.276   1.448
 9400WAT     H128442   9.350   5.346   1.474
 9400WAT     H228443   9.278   5.271   1.348
 9401WAT      O28444   3.129   5.486   8.539
 9401WAT     H128445   3.051   5.451   8.486
 9401WAT     H228446   3.146   5.581   8.515
 9402WAT      O28447   2.852   6.819   6.785
 9402WAT     H128448   2.768   6.780   6.746
 9402WAT     H228449   2.932   6.778   6.740
 9403WAT      O28450   7.771   6.820   7.427
 9403WAT     H128451   7.812   6.763   7.498
 9403WAT     H228452   7.750   6.764   7.347
 9404WAT      O28453   6.995   6.692   4.874
 9404WAT     H128454   7.078   6.716   4.824
 9404WAT     H228455   6.947   6.775   4.902
 9405WAT      O28456   6.097   6.691   1.848
 9405WAT     H128457   6.135   6.620   1.908
 9405WAT     H228458   6.171   6.742   1.805
 9406WAT      O28459   8.717   5.816   3.428
 9406WAT     H128460   8.733   5.872   3.347
 9406WAT     H228461   8.796   5.824   3.489
 9407WAT      O28462   8.702   5.952   8.295
 9407WAT     H128463   8.794   5.970   8.259
 9407WAT     H228464   8.703   5.867   8.349
 9408WAT      O28465   3.536   6.405   2.153
 9408WAT     H128466   3.451   6.442   2.191
 9408WAT     H228467   3.523   6.309   2.130
 9409WAT      O28468   0.594   4.278   7.185
 9409WAT     H128469   0.544   4.352   7.142
 9409WAT     H228470   0.530   4.216   7.230
 9410WAT      O28471   6.581   4.162   0.727
 9410WAT     H128472   6.646   4.200   0.793
 9410WAT     H228473   6.550   4.235   0.665
 9411WAT      O28474   6.435   4.723   6.904
 9411WAT     H128475   6.446   4.624   6.900
 9411WAT     H228476   6.508   4.766   6.850
 9412WAT      O28477   5.834   8.512   4.792
 9412WAT     H128478   5.910   8.460   4.830
 9412WAT     H228479   5.860   8.550   4.704
 9413WAT      O28480   0.758   4.123   9.385
 9413WAT     H128481   0.788   4.104   9.292
 9413WAT     H228482   0.672   4.173   9.384
 9414WAT      O28483   6.013   2.421   8.580
 9414WAT     H128484   6.094   2.408   8.637
 9414WAT     H228485   6.038   2.468   8.496
 9415WAT      O28486   5.372   8.174   2.601
 9415WAT     H128487   5.408   8.155   2.510
 9415WAT     H228488   5.318   8.095   2.633
 9416WAT      O28489   8.952   3.880   5.643
 9416WAT     H128490   9.037   3.922   5.675
 9416WAT     H228491   8.876   3.943   5.655
 9417WAT      O28492   4.970   5.418   1.123
 9417WAT     H128493   4.879   5.380   1.138
 9417WAT     H228494   5.018   5.424   1.211
 9418WAT      O28495   6.357   8.794   3.395
 9418WAT     H128496   6.386   8.886   3.420
 9418WAT     H228497   6.263   8.779   3.428
 9419WAT      O28498   3.227   6.315   8.278
 9419WAT     H128499   3.165   6.286   8.204
 9419WAT     H228500   3.217   6.254   8.356
 9420WAT      O28501   5.784   4.985   2.347
 9420WAT     H128502   5.820   4.893   2.357
 9420WAT     H228503   5.707   4.998   2.410
 9421WAT      O28504   4.501   1.663   8.422
 9421WAT     H128505   4.539   1.741   8.472
 9421WAT     H228506   4.508   1.581   8.478
 9422WAT      O28507   6.550   7.103   7.503
 9422WAT     H128508   6.591   7.049   7.430
 9422WAT     H228509   6.573   7.062   7.592
 9423WAT      O28510   0.998   1.220   9.416
 9423WAT     H128511   1.055   1.223   9.333
 9423WAT     H228512   1.051   1.182   9.491
 9424WAT      O28513   0.269   0.313   8.352
 9424WAT     H128514   0.326   0.374   8.407
 9424WAT     H228515   0.246   0.357   8.266
 9425WAT      O28516   7.987   0.334   6.064
 9425WAT     H128517   8.052   0.403   6.095
 9425WAT     H228518   8.023   0.243   6.086
 9426WAT      O28519   2.904   4.784   6.723
 9426WAT     H128520   2.822   4.790   6.779
 9426WAT     H228521   2.938   4.876   6.704
 9427WAT      O28522   9.040   2.101   1.311
 9427WAT     H128523   8.988   2.041   1.371
 9427WAT     H228524   9.035   2.195   1.346
 9428WAT      O28525   1.594   9.217   0.226
 9428WAT     H128526   1.566   9.260   0.141
 9428WAT     H228527   1.526   9.150   0.254
 9429WAT      O28528   1.659   6.844   3.236
 9429WAT     H128529   1.689   6.939   3.242
 9429WAT     H228530   1.738   6.785   3.219
 9430WAT      O28531   4.538   3.012   7.568
 9430WAT     H128532   4.573   2.939   7.508
 9430WAT     H228533   4.458   2.978   7.617
 9431WAT      O28534   4.938   5.089   2.600
 9431WAT     H128535   4.987   5.155   2.543
 9431WAT     H228536   4.953   5.110   2.696
 9432WAT      O28537   3.890   5.564   6.404
 9432WAT     H128538   3.792   5.563   6.427
 9432WAT     H228539   3.903   5.523   6.314
 9433WAT      O28540   4.219   8.483   1.900
 9433WAT     H128541   4.210   8.399   1.846
 9433WAT     H228542   4.132   8.503   1.944
 9434WAT      O28543   4.437   3.069   8.358
 9434WAT     H128544   4.348   3.059   8.311
 9434WAT     H228545   4.492   2.987   8.340
 9435WAT      O28546   1.000   2.555   7.026
 9435WAT     H128547   1.038   2.464   7.006
 9435WAT     H228548   1.059   2.624   6.985
 9436WAT      O28549   7.306   0.342   1.534
 9436WAT     H128550   7.368   0.278   1.488
 9436WAT     H228551   7.322   0.339   1.633
 9437WAT      O28552   0.139   8.947   8.524
 9437WAT     H128553   0.077   9.026   8.523
 9437WAT     H228554   0.089   8.864   8.499
 9438WAT      O28555   7.187   5.228   7.455
 9438WAT     H128556   7.221   5.267   7.541
 9438WAT     H228557   7.164   5.302   7.392
 9439WAT      O28558   7.681   3.443   0.473
 9439WAT     H128559   7.768   3.462   0.520
 9439WAT     H228560   7.696   3.373   0.404
 9440WAT      O28561   7.421   2.968   9.140
 9440WAT     H128562   7.502   3.025   9.146
 9440WAT     H228563   7.343   3.016   9.180
 9441WAT      O28564   5.232   6.408   7.982
 9441WAT     H128565   5.280   6.456   7.909
 9441WAT     H228566   5.164   6.470   8.022
 9442WAT      O28567   6.977   9.592   1.353
 9442WAT     H128568   6.965   9.563   1.258
 9442WAT     H228569   7.063   9.557   1.388
 9443WAT      O28570   2.786   8.959   9.376
 9443WAT     H128571   2.694   8.941   9.340
 9443WAT     H228572   2.783   8.966   9.475
 9444WAT      O28573   9.199   1.226   8.915
 9444WAT     H128574   9.212   1.268   9.005
 9444WAT     H228575   9.235   1.287   8.844
 9445WAT      O28576   8.980   3.737   1.330
 9445WAT     H128577   9.019   3.711   1.242
 9445WAT     H228578   8.997   3.835   1.346
 9446WAT      O28579   5.643   5.030   6.789
 9446WAT     H128580   5.593   5.041   6.875
 9446WAT     H228581   5.728   5.083   6.792
 9447WAT      O28582   4.106   6.178   6.519
 9447WAT     H128583   4.044   6.232   6.462
 9447WAT     H228584   4.200   6.193   6.490
 9448WAT      O28585   7.477   5.048   6.993
 9448WAT     H128586   7.524   5.014   6.911
 9448WAT     H228587   7.456   4.971   7.053
 9449WAT      O28588   8.048   5.542   2.459
 9449WAT     H128589   8.062   5.475   2.532
 9449WAT     H228590   7.950   5.553   2.442
 9450WAT      O28591   4.972   1.940   6.754
 9450WAT     H128592   4.894   2.001   6.740
 9450WAT     H228593   4.999   1.942   6.850
 9451WAT      O28594   8.446   1.124   0.316
 9451WAT     H128595   8.359   1.134   0.268
 9451WAT     H228596   8.504   1.203   0.297
 9452WAT      O28597   8.289   2.369   7.003
 9452WAT     H128598   8.382   2.333   7.014
 9452WAT     H228599   8.273   2.440   7.071
 9453WAT      O28600   5.849   3.559   9.860
 9453WAT     H128601   5.809   3.469   9.841
 9453WAT     H228602   5.925   3.575   9.798
 9454WAT      O28603   3.513   9.593   8.085
 9454WAT     H128604   3.451   9.522   8.051
 9454WAT     H228605   3.530   9.660   8.013
 9455WAT      O28606   9.348   2.959   5.560
 9455WAT     H128607   9.348   3.057   5.582
 9455WAT     H228608   9.407   2.910   5.624
 9456WAT      O28609   7.030   3.433   4.745
 9456WAT     H128610   7.046   3.334   4.744
 9456WAT     H228611   6.986   3.458   4.832
 9457WAT      O28612   8.956   2.797   0.631
 9457WAT     H128613   9.048   2.760   0.617
 9457WAT     H228614   8.917   2.824   0.543
 9458WAT      O28615   0.609   1.365   5.122
 9458WAT     H128616   0.603   1.279   5.073
 9458WAT     H228617   0.694   1.412   5.097
 9459WAT      O28618   0.886   4.962   0.554
 9459WAT     H128619   0.844   5.023   0.621
 9459WAT     H228620   0.914   4.877   0.599
 9460WAT      O28621   8.758   3.390   3.748
 9460WAT     H128622   8.695   3.422   3.819
 9460WAT     H228623   8.722   3.306   3.708
 9461WAT      O28624   8.147   8.126   6.173
 9461WAT     H128625   8.172   8.031   6.155
 9461WAT     H228626   8.153   8.144   6.272
 9462WAT      O28627   3.015   3.099   3.336
 9462WAT     H128628   2.945   3.166   3.309
 9462WAT     H228629   3.056   3.059   3.254
 9463WAT      O28630   3.173   1.033   7.637
 9463WAT     H128631   3.209   0.964   7.700
 9463WAT     H228632   3.225   1.117   7.647
 9464WAT      O28633   1.231   9.338   7.850
 9464WAT     H128634   1.152   9.302   7.899
 9464WAT     H228635   1.285   9.395   7.912
 9465WAT      O28636   1.005   8.969   4.433
 9465WAT     H128637   1.093   8.960   4.386
 9465WAT     H228638   0.933   8.988   4.366
 9466WAT      O28639   8.585   2.182   5.230
 9466WAT     H128640   8.550   2.175   5.136
 9466WAT     H228641   8.598   2.279   5.253
 9467WAT      O28642   2.656   8.801   8.426
 9467WAT     H128643   2.673   8.867   8.499
 9467WAT     H228644   2.740   8.786   8.375
 9468WAT      O28645   0.582   2.686   8.961
 9468WAT     H128646   0.533   2.608   8.999
 9468WAT     H228647   0.530   2.723   8.884
 9469WAT      O28648   5.891   2.010   4.171
 9469WAT     H128649   5.806   1.965   4.145
 9469WAT     H228650   5.954   1.943   4.210
 9470WAT      O28651   4.632   2.016   4.957
 9470WAT     H128652   4.575   1.993   4.877
 9470WAT     H228653   4.681   2.100   4.940
 9471WAT      O28654   7.878   4.897   0.373
 9471WAT     H128655   7.795   4.935   0.331
 9471WAT     H228656   7.950   4.892   0.305
 9472WAT      O28657   1.407   2.623   7.064
 9472WAT     H128658   1.458   2.707   7.050
 9472WAT     H228659   1.470   2.545   7.062
 9473WAT      O28660   6.317   5.127   5.960
 9473WAT     H128661   6.232   5.151   5.912
 9473WAT     H228662   6.334   5.194   6.033
 9474WAT      O28663   8.406   4.866   2.307
 9474WAT     H128664   8.504   4.859   2.288
 9474WAT     H228665   8.392   4.916   2.393
 9475WAT      O28666   9.515   7.441   0.797
 9475WAT     H128667   9.602   7.403   0.766
 9475WAT     H228668   9.440   7.381   0.768
 9476WAT      O28669   3.693   3.026   7.165
 9476WAT     H128670   3.723   2.978   7.248
 9476WAT     H228671   3.645   3.109   7.190
 9477WAT      O28672   8.897   1.447   7.341
 9477WAT     H128673   8.803   1.422   7.323
 9477WAT     H228674   8.918   1.534   7.297
 9478WAT      O28675   5.138   8.563   5.628
 9478WAT     H128676   5.069   8.554   5.699
 9478WAT     H228677   5.098   8.608   5.548
 9479WAT      O28678   8.863   7.408   8.632
 9479WAT     H128679   8.905   7.366   8.713
 9479WAT     H228680   8.933   7.421   8.561
 9480WAT      O28681   7.077   4.454   8.358
 9480WAT     H128682   7.154   4.495   8.308
 9480WAT     H228683   7.112   4.408   8.440
 9481WAT      O28684   4.058   5.015   4.284
 9481WAT     H128685   3.987   5.017   4.214
 9481WAT     H228686   4.112   5.099   4.281
 9482WAT      O28687   1.694   3.093   4.320
 9482WAT     H128688   1.646   3.150   4.386
 9482WAT     H228689   1.668   2.998   4.333
 9483WAT      O28690   2.783   9.825   9.180
 9483WAT     H128691   2.731   9.902   9.217
 9483WAT     H228692   2.746   9.798   9.092
 9484WAT      O28693   8.841   8.444   0.162
 9484WAT     H128694   8.882   8.485   0.081
 9484WAT     H228695   8.806   8.353   0.140
 9485WAT      O28696   6.045   6.116   2.119
 9485WAT     H128697   6.098   6.085   2.198
 9485WAT     H228698   6.000   6.202   2.141
 9486WAT      O28699   4.002   1.542   5.397
 9486WAT     H128700   3.996   1.525   5.496
 9486WAT     H228701   3.931   1.489   5.350
 9487WAT      O28702   1.752   3.797   7.221
 9487WAT     H128703   1.808   3.849   7.285
 9487WAT     H228704   1.712   3.858   7.153
 9488WAT      O28705   9.046   7.566   2.591
 9488WAT     H128706   9.117   7.615   2.642
 9488WAT     H228707   9.083   7.480   2.556
 9489WAT      O28708   7.354   7.007   7.258
 9489WAT     H128709   7.310   7.019   7.347
 9489WAT     H228710   7.436   7.064   7.254
 9490WAT      O28711   7.354   2.810   9.649
 9490WAT     H128712   7.410   2.892   9.637
 9490WAT     H228713   7.390   2.737   9.590
 9491WAT      O28714   0.970   2.922   0.568
 9491WAT     H128715   1.023   2.858   0.624
 9491WAT     H228716   1.006   2.922   0.474
 9492WAT      O28717   6.698   3.608   3.712
 9492WAT     H128718   6.667   3.694   3.754
 9492WAT     H228719   6.779   3.626   3.657
 9493WAT      O28720   5.293   8.448   6.845
 9493WAT     H128721   5.391   8.425   6.845
 9493WAT     H228722   5.241   8.371   6.808
 9494WAT      O28723   7.922   6.474   6.750
 9494WAT     H128724   7.928   6.491   6.651
 9494WAT     H228725   7.917   6.375   6.766
 9495WAT      O28726   3.944   2.092   6.678
 9495WAT     H128727   3.886   2.035   6.736
 9495WAT     H228728   3.907   2.184   6.674
 9496WAT      O28729   0.757   4.059   5.275
 9496WAT     H128730   0.833   4.040   5.214
 9496WAT     H228731   0.765   4.002   5.357
 9497WAT      O28732   9.492   9.358   2.954
 9497WAT     H128733   9.561   9.347   2.883
 9497WAT     H228734   9.440   9.273   2.963
 9498WAT      O28735   8.421   6.109   2.215
 9498WAT     H128736   8.445   6.120   2.311
 9498WAT     H228737   8.329   6.072   2.207
 9499WAT      O28738   9.747   0.951   6.125
 9499WAT     H128739   9.725   1.012   6.049
 9499WAT     H228740   9.663   0.928   6.174
 9500WAT      O28741   1.390   3.881   9.577
 9500WAT     H128742   1.447   3.876   9.495
 9500WAT     H228743   1.431   3.943   9.643
 9501WAT      O28744   5.259   3.276   4.467
 9501WAT     H128745   5.219   3.285   4.375
 9501WAT     H228746   5.314   3.356   4.487
 9502WAT      O28747   4.449   5.591   6.763
 9502WAT     H128748   4.479   5.541   6.682
 9502WAT     H228749   4.442   5.688   6.742
 9503WAT      O28750   9.834   4.314   0.800
 9503WAT     H128751   9.788   4.275   0.721
 9503WAT     H228752   9.933   4.304   0.790
 9504WAT      O28753   4.513   2.015   1.201
 9504WAT     H128754   4.535   1.988   1.294
 9504WAT     H228755   4.596   2.013   1.145
 9505WAT      O28756   7.164   8.308   2.748
 9505WAT     H128757   7.193   8.369   2.821
 9505WAT     H228758   7.192   8.214   2.769
 9506WAT      O28759   1.373   6.801   0.400
 9506WAT     H128760   1.300   6.758   0.348
 9506WAT     H228761   1.336   6.876   0.455
 9507WAT      O28762   2.165   6.127   2.550
 9507WAT     H128763   2.209   6.117   2.461
 9507WAT     H228764   2.186   6.217   2.589
 9508WAT      O28765   2.571   4.697   1.872
 9508WAT     H128766   2.592   4.697   1.775
 9508WAT     H228767   2.524   4.782   1.896
 9509WAT      O28768   4.718   0.877   7.873
 9509WAT     H128769   4.691   0.787   7.840
 9509WAT     H228770   4.806   0.903   7.832
 9510WAT      O28771   2.202   9.465   0.585
 9510WAT     H128772   2.302   9.467   0.593
 9510WAT     H228773   2.176   9.434   0.494
 9511WAT      O28774   0.111   6.067   2.291
 9511WAT     H128775   0.097   6.134   2.219
 9511WAT     H228776   0.028   6.013   2.303
 9512WAT      O28777   1.529   8.229   7.431
 9512WAT     H128778   1.436   8.199   7.411
 9512WAT     H228779   1.583   8.150   7.462
 9513WAT      O28780   9.120   3.904   8.849
 9513WAT     H128781   9.071   3.977   8.803
 9513WAT     H228782   9.064   3.821   8.850
 9514WAT      O28783   0.333   1.132   5.058
 9514WAT     H128784   0.323   1.184   4.973
 9514WAT     H228785   0.340   1.035   5.036
 9515WAT      O28786   0.896   2.820   9.233
 9515WAT     H128787   0.891   2.764   9.150
 9515WAT     H228788   0.990   2.848   9.249
 9516WAT      O28789   1.766   8.352   0.703
 9516WAT     H128790   1.683   8.371   0.650
 9516WAT     H228791   1.810   8.269   0.667
 9517WAT      O28792   1.751   5.499   0.196
 9517WAT     H128793   1.672   5.502   0.135
 9517WAT     H228794   1.746   5.575   0.261
 9518WAT      O28795   3.503   6.630   5.258
 9518WAT     H128796   3.545   6.714   5.224
 9518WAT     H228797   3.479   6.641   5.354
 9519WAT      O28798   0.224   7.095   7.658
 9519WAT     H128799   0.299   7.160   7.669
 9519WAT     H228800   0.246   7.031   7.584
 9520WAT      O28801   0.561   4.703   1.480
 9520WAT     H128802   0.628   4.651   1.533
 9520WAT     H228803   0.526   4.778   1.536
 9521WAT      O28804   0.878   3.278   9.742
 9521WAT     H128805   0.786   3.305   9.770
 9521WAT     H228806   0.903   3.329   9.659
 9522WAT      O28807   2.985   7.192   5.322
 9522WAT     H128808   3.020   7.100   5.340
 9522WAT     H228809   2.900   7.185   5.271
 9523WAT      O28810   5.354   9.469   2.029
 9523WAT     H128811   5.431   9.470   1.965
 9523WAT     H228812   5.277   9.520   1.990
 9524WAT      O28813   5.567   1.760   8.189
 9524WAT     H128814   5.573   1.845   8.136
 9524WAT     H228815   5.614   1.772   8.276
 9525WAT      O28816   0.488   7.561   3.889
 9525WAT     H128817   0.465   7.474   3.844
 9525WAT     H228818   0.585   7.581   3.875
 9526WAT      O28819   8.534   5.785   7.924
 9526WAT     H128820   8.512   5.718   7.995
 9526WAT     H228821   8.631   5.775   7.899
 9527WAT      O28822   5.162   1.024   9.302
 9527WAT     H128823   5.148   0.962   9.379
 9527WAT     H228824   5.204   1.109   9.335
 9528WAT      O28825   4.642   8.674   4.487
 9528WAT     H128826   4.638   8.585   4.532
 9528WAT     H228827   4.624   8.663   4.389
 9529WAT      O28828   2.862   7.477   7.904
 9529WAT     H128829   2.841   7.571   7.931
 9529WAT     H228830   2.929   7.478   7.830
 9530WAT      O28831   6.748   4.370   5.982
 9530WAT     H128832   6.718   4.312   5.906
 9530WAT     H228833   6.829   4.421   5.954
 9531WAT      O28834   7.298   7.893   9.396
 9531WAT     H128835   7.234   7.818   9.412
 9531WAT     H228836   7.248   7.979   9.390
 9532WAT      O28837   4.888   8.487   3.461
 9532WAT     H128838   4.840   8.417   3.513
 9532WAT     H228839   4.823   8.558   3.433
 9533WAT      O28840   1.315   8.884   0.833
 9533WAT     H128841   1.275   8.812   0.889
 9533WAT     H228842   1.382   8.934   0.887
 9534WAT      O28843   0.468   8.729   7.032
 9534WAT     H128844   0.534   8.791   6.990
 9534WAT     H228845   0.512   8.679   7.107
 9535WAT      O28846   0.777   2.624   9.597
 9535WAT     H128847   0.745   2.564   9.524
 9535WAT     H228848   0.744   2.590   9.685
 9536WAT      O28849   2.575   5.432   7.541
 9536WAT     H128850   2.588   5.423   7.640
 9536WAT     H228851   2.506   5.502   7.524
 9537WAT      O28852   1.410   6.753   4.314
 9537WAT     H128853   1.331   6.761   4.374
 9537WAT     H228854   1.384   6.778   4.221
 9538WAT      O28855   4.611   7.498   5.226
 9538WAT     H128856   4.526   7.489   5.173
 9538WAT     H228857   4.652   7.407   5.237
 9539WAT      O28858   4.486   4.194   5.571
 9539WAT     H128859   4.446   4.116   5.521
 9539WAT     H228860   4.412   4.247   5.613
 9540WAT      O28861   3.394   6.589   2.474
 9540WAT     H128862   3.340   6.643   2.538
 9540WAT     H228863   3.429   6.648   2.401
 9541WAT      O28864   3.468   6.573   3.966
 9541WAT     H128865   3.395   6.642   3.958
 9541WAT     H228866   3.542   6.596   3.903
 9542WAT      O28867   9.204   7.519   0.246
 9542WAT     H128868   9.242   7.583   0.313
 9542WAT     H228869   9.137   7.460   0.291
 9543WAT      O28870   5.378   1.346   0.182
 9543WAT     H128871   5.353   1.249   0.188
 9543WAT     H228872   5.361   1.390   0.270
 9544WAT      O28873   4.882   8.568   2.502
 9544WAT     H128874   4.805   8.628   2.478
 9544WAT     H228875   4.967   8.607   2.468
 9545WAT      O28876   8.420   6.542   8.343
 9545WAT     H128877   8.414   6.624   8.286
 9545WAT     H228878   8.371   6.467   8.299
 9546WAT      O28879   9.865   5.496   0.666
 9546WAT     H128880   9.954   5.501   0.621
 9546WAT     H228881   9.878   5.507   0.765
 9547WAT      O28882   3.973   8.101   8.257
 9547WAT     H128883   3.894   8.061   8.303
 9547WAT     H228884   3.964   8.088   8.158
 9548WAT      O28885   0.222   4.363   7.287
 9548WAT     H128886   0.216   4.294   7.215
 9548WAT     H228887   0.132   4.375   7.329
 9549WAT      O28888   3.516   2.125   1.426
 9549WAT     H128889   3.571   2.067   1.366
 9549WAT     H228890   3.423   2.131   1.391
 9550WAT      O28891   9.764   1.287   4.849
 9550WAT     H128892   9.723   1.259   4.935
 9550WAT     H228893   9.813   1.373   4.862
 9551WAT      O28894   9.623   1.771   6.095
 9551WAT     H128895   9.694   1.701   6.101
 9551WAT     H228896   9.637   1.825   6.012
 9552WAT      O28897   8.039   8.307   5.031
 9552WAT     H128898   8.075   8.240   5.095
 9552WAT     H228899   8.114   8.354   4.985
 9553WAT      O28900   8.746   7.862   1.452
 9553WAT     H128901   8.720   7.816   1.367
 9553WAT     H228902   8.845   7.873   1.454
 9554WAT      O28903   9.500   0.743   0.629
 9554WAT     H128904   9.554   0.709   0.552
 9554WAT     H228905   9.410   0.771   0.597
 9555WAT      O28906   7.385   1.747   9.367
 9555WAT     H128907   7.296   1.731   9.411
 9555WAT     H228908   7.376   1.821   9.300
 9556WAT      O28909   3.886   2.369   4.657
 9556WAT     H128910   3.855   2.442   4.595
 9556WAT     H228911   3.809   2.308   4.677
 9557WAT      O28912   3.588   9.324   3.253
 9557WAT     H128913   3.632   9.333   3.163
 9557WAT     H228914   3.657   9.313   3.323
 9558WAT      O28915   5.390   3.165   0.256
 9558WAT     H128916   5.309   3.193   0.307
 9558WAT     H228917   5.374   3.180   0.158
 9559WAT      O28918   0.981   8.203   8.386
 9559WAT     H128919   0.914   8.269   8.353
 9559WAT     H228920   1.036   8.244   8.459
 9560WAT      O28921   3.229   1.355   5.048
 9560WAT     H128922   3.256   1.263   5.020
 9560WAT     H228923   3.256   1.372   5.143
 9561WAT      O28924   5.372   8.113   0.281
 9561WAT     H128925   5.391   8.183   0.212
 9561WAT     H228926   5.454   8.097   0.335
 9562WAT      O28927   7.911   0.988   8.768
 9562WAT     H128928   7.849   0.911   8.752
 9562WAT     H228929   7.968   0.969   8.847
 9563WAT      O28930   2.485   1.767   3.497
 9563WAT     H128931   2.418   1.718   3.552
 9563WAT     H228932   2.450   1.858   3.475
 9564WAT      O28933   5.527   7.407   3.427
 9564WAT     H128934   5.604   7.347   3.405
 9564WAT     H228935   5.533   7.435   3.523
 9565WAT      O28936   8.136   0.556   8.760
 9565WAT     H128937   8.163   0.651   8.746
 9565WAT     H228938   8.152   0.531   8.856
 9566WAT      O28939   1.140   7.325   5.447
 9566WAT     H128940   1.238   7.343   5.459
 9566WAT     H228941   1.118   7.237   5.490
 9567WAT      O28942   3.176   6.133   5.815
 9567WAT     H128943   3.256   6.080   5.785
 9567WAT     H228944   3.102   6.120   5.749
 9568WAT      O28945   9.219   4.982   1.136
 9568WAT     H128946   9.260   4.943   1.219
 9568WAT     H228947   9.218   5.081   1.143
 9569WAT      O28948   6.812   6.535   7.011
 9569WAT     H128949   6.816   6.635   7.005
 9569WAT     H228950   6.900   6.496   6.986
 9570WAT      O28951   8.988   0.655   0.790
 9570WAT     H128952   8.966   0.579   0.729
 9570WAT     H228953   9.013   0.620   0.880
 9571WAT      O28954   6.923   6.573   2.096
 9571WAT     H128955   6.879   6.597   2.183
 9571WAT     H228956   6.975   6.651   2.063
 9572WAT      O28957   6.235   3.691   5.886
 9572WAT     H128958   6.312   3.628   5.883
 9572WAT     H228959   6.238   3.751   5.807
 9573WAT      O28960   8.821   6.916   3.830
 9573WAT     H128961   8.870   6.984   3.885
 9573WAT     H228962   8.855   6.824   3.854
 9574WAT      O28963   5.003   8.572   4.786
 9574WAT     H128964   4.946   8.519   4.849
 9574WAT     H228965   4.994   8.535   4.694
 9575WAT      O28966   8.374   3.355   1.168
 9575WAT     H128967   8.278   3.338   1.144
 9575WAT     H228968   8.385   3.451   1.195
 9576WAT      O28969   6.498   8.118   3.109
 9576WAT     H128970   6.406   8.147   3.083
 9576WAT     H228971   6.495   8.023   3.140
 9577WAT      O28972   5.624   9.296   4.026
 9577WAT     H128973   5.600   9.279   3.931
 9577WAT     H228974   5.562   9.364   4.064
 9578WAT      O28975   3.294   7.824   0.721
 9578WAT     H128976   3.258   7.732   0.733
 9578WAT     H228977   3.238   7.889   0.773
 9579WAT      O28978   3.997   1.729   6.811
 9579WAT     H128979   4.043   1.775   6.735
 9579WAT     H228980   4.064   1.706   6.881
 9580WAT      O28981   8.163   5.382   4.532
 9580WAT     H128982   8.203   5.374   4.440
 9580WAT     H228983   8.231   5.353   4.600
 9581WAT      O28984   7.195   2.796   1.593
 9581WAT     H128985   7.200   2.764   1.498
 9581WAT     H228986   7.275   2.852   1.613
 9582WAT      O28987   8.774   8.926   3.422
 9582WAT     H128988   8.867   8.937   3.456
 9582WAT     H228989   8.767   8.840   3.371
 9583WAT      O28990   0.439   0.815   6.888
 9583WAT     H128991   0.490   0.826   6.803
 9583WAT     H228992   0.341   0.827   6.870
 9584WAT      O28993   0.091   2.263   6.212
 9584WAT     H128994   0.187   2.239   6.227
 9584WAT     H228995   0.064   2.333   6.278
 9585WAT      O28996   4.154   4.596   5.367
 9585WAT     H128997   4.086   4.527   5.390
 9585WAT     H228998   4.166   4.600   5.267
 9586WAT      O28999   4.084   3.712   2.576
 9586WAT     H129000   4.084   3.804   2.615
 9586WAT     H229001   3.991   3.675   2.578
 9587WAT      O29002   3.891   7.973   2.750
 9587WAT     H129003   3.812   7.933   2.797
 9587WAT     H229004   3.969   7.976   2.813
 9588WAT      O29005   8.312   8.564   1.445
 9588WAT     H129006   8.387   8.551   1.380
 9588WAT     H229007   8.232   8.598   1.396
 9589WAT      O29008   3.059   5.904   9.660
 9589WAT     H129009   3.059   5.939   9.566
 9589WAT     H229010   3.138   5.844   9.673
 9590WAT      O29011   8.108   9.045   6.420
 9590WAT     H129012   8.062   9.125   6.458
 9590WAT     H229013   8.046   8.967   6.422
 9591WAT      O29014   1.076   4.943   8.092
 9591WAT     H129015   1.138   5.019   8.071
 9591WAT     H229016   1.050   4.897   8.008
 9592WAT      O29017   2.411   6.185   6.136
 9592WAT     H129018   2.427   6.086   6.133
 9592WAT     H229019   2.345   6.211   6.066
 9593WAT      O29020   7.154   6.421   1.119
 9593WAT     H129021   7.105   6.334   1.116
 9593WAT     H229022   7.103   6.486   1.175
 9594WAT      O29023   3.200   8.359   3.146
 9594WAT     H129024   3.276   8.360   3.080
 9594WAT     H229025   3.131   8.425   3.119
 9595WAT      O29026   6.131   0.521   8.547
 9595WAT     H129027   6.152   0.595   8.611
 9595WAT     H229028   6.156   0.433   8.588
 9596WAT      O29029   2.645   3.425   6.515
 9596WAT     H129030   2.601   3.349   6.564
 9596WAT     H229031   2.656   3.401   6.419
 9597WAT      O29032   6.626   7.849   0.714
 9597WAT     H129033   6.668   7.823   0.801
 9597WAT     H229034   6.695   7.892   0.655
 9598WAT      O29035   6.498   9.141   4.720
 9598WAT     H129036   6.414   9.118   4.768
 9598WAT     H229037   6.573   9.084   4.753
 9599WAT      O29038   7.392   2.219   8.129
 9599WAT     H129039   7.362   2.147   8.191
 9599WAT     H229040   7.320   2.237   8.062
 9600WAT      O29041   9.371   9.819   6.703
 9600WAT     H129042   9.372   9.822   6.803
 9600WAT     H229043   9.465   9.807   6.670
 9601WAT      O29044   3.829   3.721   5.566
 9601WAT     H129045   3.825   3.773   5.480
 9601WAT     H229046   3.820   3.783   5.643
 9602WAT      O29047   0.993   7.349   6.049
 9602WAT     H129048   0.915   7.392   6.095
 9602WAT     H229049   0.993   7.376   5.953
 9603WAT      O29050   4.853   8.231   9.801
 9603WAT     H129051   4.937   8.176   9.789
 9603WAT     H229052   4.836   8.284   9.718
 9604WAT      O29053   6.776   7.083   6.849
 9604WAT     H129054   6.762   7.121   6.758
 9604WAT     H229055   6.818   7.152   6.908
 9605WAT      O29056   2.844   6.784   4.932
 9605WAT     H129057   2.807   6.784   4.839
 9605WAT     H229058   2.895   6.868   4.948
 9606WAT      O29059   7.588   3.685   0.375
 9606WAT     H129060   7.568   3.743   0.453
 9606WAT     H229061   7.596   3.590   0.405
 9607WAT      O29062   3.770   6.382   4.125
 9607WAT     H129063   3.752   6.481   4.124
 9607WAT     H229064   3.711   6.338   4.192
 9608WAT      O29065   2.559   1.324   9.683
 9608WAT     H129066   2.549   1.224   9.684
 9608WAT     H229067   2.630   1.350   9.617
 9609WAT      O29068   4.936   1.612   8.826
 9609WAT     H129069   4.955   1.591   8.922
 9609WAT     H229070   4.837   1.612   8.811
 9610WAT      O29071   4.210   3.894   4.109
 9610WAT     H129072   4.302   3.920   4.136
 9610WAT     H229073   4.175   3.825   4.172
 9611WAT      O29074   8.468   9.656   8.851
 9611WAT     H129075   8.523   9.639   8.932
 9611WAT     H229076   8.450   9.570   8.803
 9612WAT      O29077   8.490   3.618   9.273
 9612WAT     H129078   8.569   3.612   9.211
 9612WAT     H229079   8.506   3.690   9.340
 9613WAT      O29080   8.887   6.975   3.563
 9613WAT     H129081   8.863   6.938   3.653
 9613WAT     H229082   8.826   6.938   3.494
 9614WAT      O29083   6.976   7.431   3.483
 9614WAT     H129084   6.902   7.379   3.525
 9614WAT     H229085   6.994   7.513   3.538
 9615WAT      O29086   1.676   7.953   7.146
 9615WAT     H129087   1.647   8.009   7.069
 9615WAT     H229088   1.736   7.881   7.114
 9616WAT      O29089   7.237   3.049   3.137
 9616WAT     H129090   7.161   3.046   3.202
 9616WAT     H229091   7.234   2.967   3.080
 9617WAT      O29092   2.124   1.231   6.602
 9617WAT     H129093   2.081   1.318   6.579
 9617WAT     H229094   2.219   1.246   6.630
 9618WAT      O29095   8.826   9.436   9.193
 9618WAT     H129096   8.853   9.368   9.262
 9618WAT     H229097   8.732   9.465   9.211
 9619WAT      O29098   7.794   5.806   5.494
 9619WAT     H129099   7.719   5.745   5.469
 9619WAT     H229100   7.872   5.791   5.432
 9620WAT      O29101   5.455   5.983   1.977
 9620WAT     H129102   5.492   5.951   2.064
 9620WAT     H229103   5.510   6.060   1.944
 9621WAT      O29104   5.282   2.808   8.423
 9621WAT     H129105   5.237   2.896   8.434
 9621WAT     H229106   5.214   2.738   8.402
 9622WAT      O29107   8.348   0.210   2.138
 9622WAT     H129108   8.388   0.283   2.193
 9622WAT     H229109   8.253   0.196   2.165
 9623WAT      O29110   0.452   3.137   1.208
 9623WAT     H129111   0.504   3.218   1.185
 9623WAT     H229112   0.469   3.065   1.141
 9624WAT      O29113   4.048   9.354   1.391
 9624WAT     H129114   4.128   9.332   1.447
 9624WAT     H229115   3.984   9.408   1.445
 9625WAT      O29116   0.331   1.526   9.889
 9625WAT     H129117   0.368   1.603   9.942
 9625WAT     H229118   0.405   1.463   9.868
 9626WAT      O29119   4.176   7.716   5.130
 9626WAT     H129120   4.104   7.650   5.111
 9626WAT     H229121   4.252   7.702   5.067
 9627WAT      O29122   7.129   6.960   0.898
 9627WAT     H129123   7.119   6.994   0.804
 9627WAT     H229124   7.208   7.003   0.941
 9628WAT      O29125   8.392   4.765   4.774
 9628WAT     H129126   8.358   4.858   4.786
 9628WAT     H229127   8.320   4.700   4.800
 9629WAT      O29128   5.622   4.618   7.257
 9629WAT     H129129   5.567   4.543   7.295
 9629WAT     H229130   5.586   4.706   7.288
 9630WAT      O29131   2.729   3.816   2.648
 9630WAT     H129132   2.794   3.850   2.715
 9630WAT     H229133   2.770   3.741   2.596
 9631WAT      O29134   7.528   4.838   2.573
 9631WAT     H129135   7.480   4.779   2.508
 9631WAT     H229136   7.465   4.906   2.609
 9632WAT      O29137   0.441   2.316   0.078
 9632WAT     H129138   0.359   2.337   0.025
 9632WAT     H229139   0.486   2.236   0.039
 9633WAT      O29140   8.949   2.542   6.160
 9633WAT     H129141   8.876   2.605   6.132
 9633WAT     H229142   8.922   2.448   6.135
 9634WAT      O29143   1.942   3.698   0.136
 9634WAT     H129144   1.958   3.727   0.042
 9634WAT     H229145   1.929   3.778   0.194
 9635WAT      O29146   7.875   0.880   0.261
 9635WAT     H129147   7.794   0.935   0.279
 9635WAT     H229148   7.862   0.788   0.298
 9636WAT      O29149   9.205   0.328   0.104
 9636WAT     H129150   9.287   0.356   0.154
 9636WAT     H229151   9.226   0.325   0.006
 9637WAT      O29152   8.069   7.708   6.694
 9637WAT     H129153   8.130   7.630   6.682
 9637WAT     H229154   8.106   7.787   6.645
 9638WAT      O29155   4.987   3.798   8.755
 9638WAT     H129156   4.995   3.726   8.825
 9638WAT     H229157   5.021   3.884   8.793
 9639WAT      O29158   7.375   8.370   6.436
 9639WAT     H129159   7.357   8.304   6.509
 9639WAT     H229160   7.425   8.448   6.473
 9640WAT      O29161   8.934   8.524   9.802
 9640WAT     H129162   8.988   8.601   9.835
 9640WAT     H229163   8.962   8.501   9.709
 9641WAT      O29164   6.030   5.040   6.604
 9641WAT     H129165   6.012   5.082   6.515
 9641WAT     H229166   5.991   4.948   6.606
 9642WAT      O29167   5.187   8.230   1.888
 9642WAT     H129168   5.094   8.213   1.854
 9642WAT     H229169   5.254   8.204   1.819
 9643WAT      O29170   7.030   2.511   6.618
 9643WAT     H129171   7.000   2.482   6.527
 9643WAT     H229172   6.957   2.563   6.663
 9644WAT      O29173   9.147   4.740   6.970
 9644WAT     H129174   9.189   4.678   7.036
 9644WAT     H229175   9.063   4.778   7.010
 9645WAT      O29176   1.090   5.249   1.918
 9645WAT     H129177   1.094   5.162   1.868
 9645WAT     H229178   1.031   5.313   1.869
 9646WAT      O29179   5.698   0.290   4.196
 9646WAT     H129180   5.638   0.233   4.140
 9646WAT     H229181   5.779   0.237   4.222
 9647WAT      O29182   1.811   3.333   9.760
 9647WAT     H129183   1.874   3.343   9.683
 9647WAT     H229184   1.840   3.255   9.816
 9648WAT      O29185   9.390   1.145   3.079
 9648WAT     H129186   9.290   1.152   3.070
 9648WAT     H229187   9.413   1.131   3.175
 9649WAT      O29188   7.614   1.633   9.348
 9649WAT     H129189   7.522   1.669   9.331
 9649WAT     H229190   7.623   1.543   9.305
 9650WAT      O29191   2.863   2.106   1.699
 9650WAT     H129192   2.776   2.058   1.709
 9650WAT     H229193   2.887   2.149   1.786
 9651WAT      O29194   4.792   2.368   0.847
 9651WAT     H129195   4.811   2.274   0.874
 9651WAT     H229196   4.864   2.400   0.784
 9652WAT      O29197   3.480   3.573   7.182
 9652WAT     H129198   3.450   3.645   7.120
 9652WAT     H229199   3.400   3.528   7.223
 9653WAT      O29200   0.099   2.253   5.537
 9653WAT     H129201   0.154   2.336   5.535
 9653WAT     H229202   0.006   2.273   5.506
 9654WAT      O29203   1.634   1.195   5.930
 9654WAT     H129204   1.592   1.285   5.923
 9654WAT     H229205   1.732   1.202   5.910
 9655WAT      O29206   6.762   1.352   3.051
 9655WAT     H129207   6.833   1.398   3.104
 9655WAT     H229208   6.717   1.283   3.108
 9656WAT      O29209   1.515   7.961   2.875
 9656WAT     H129210   1.575   7.938   2.952
 9656WAT     H229211   1.432   7.905   2.880
 9657WAT      O29212   2.190   1.055   7.349
 9657WAT     H129213   2.155   1.033   7.440
 9657WAT     H229214   2.287   1.080   7.356
 9658WAT      O29215   1.199   1.498   1.071
 9658WAT     H129216   1.159   1.424   1.017
 9658WAT     H229217   1.296   1.478   1.088
 9659WAT      O29218   1.785   5.106   0.201
 9659WAT     H129219   1.780   5.099   0.101
 9659WAT     H229220   1.826   5.194   0.225
 9660WAT      O29221   0.268   5.661   8.607
 9660WAT     H129222   0.299   5.642   8.700
 9660WAT     H229223   0.338   5.630   8.542
 9661WAT      O29224   3.071   4.197   8.652
 9661WAT     H129225   3.040   4.102   8.653
 9661WAT     H229226   3.167   4.201   8.680
 9662WAT      O29227   2.731   3.034   7.806
 9662WAT     H129228   2.816   3.061   7.759
 9662WAT     H229229   2.654   3.084   7.766
 9663WAT      O29230   1.677   3.313   8.242
 9663WAT     H129231   1.618   3.328   8.322
 9663WAT     H229232   1.710   3.219   8.242
 9664WAT      O29233   5.143   7.700   5.246
 9664WAT     H129234   5.076   7.773   5.235
 9664WAT     H229235   5.230   7.727   5.205
 9665WAT      O29236   5.286   0.282   6.324
 9665WAT     H129237   5.368   0.324   6.284
 9665WAT     H229238   5.237   0.350   6.378
 9666WAT      O29239   7.349   8.957   2.023
 9666WAT     H129240   7.309   9.043   1.991
 9666WAT     H229241   7.318   8.940   2.117
 9667WAT      O29242   1.807   4.282   7.843
 9667WAT     H129243   1.863   4.309   7.765
 9667WAT     H229244   1.721   4.333   7.841
 9668WAT      O29245   0.478   4.595   0.992
 9668WAT     H129246   0.444   4.689   0.988
 9668WAT     H229247   0.403   4.532   0.972
 9669WAT      O29248   8.029   5.837   4.623
 9669WAT     H129249   8.053   5.915   4.682
 9669WAT     H229250   8.106   5.774   4.618
 9670WAT      O29251   5.650   6.957   3.421
 9670WAT     H129252   5.590   7.036   3.432
 9670WAT     H229253   5.602   6.886   3.369
 9671WAT      O29254   7.799   2.689   6.422
 9671WAT     H129255   7.775   2.632   6.500
 9671WAT     H229256   7.744   2.773   6.423
 9672WAT      O29257   1.887   2.311   4.226
 9672WAT     H129258   1.977   2.353   4.222
 9672WAT     H229259   1.839   2.326   4.139
 9673WAT      O29260   5.497   7.086   6.819
 9673WAT     H129261   5.446   7.005   6.850
 9673WAT     H229262   5.551   7.122   6.895
 9674WAT      O29263   6.012   8.135   4.966
 9674WAT     H129264   6.003   8.063   4.898
 9674WAT     H229265   6.106   8.135   5.002
 9675WAT      O29266   4.231   3.419   1.766
 9675WAT     H129267   4.329   3.435   1.763
 9675WAT     H229268   4.212   3.338   1.822
 9676WAT      O29269   6.901   3.283   1.179
 9676WAT     H129270   6.926   3.378   1.162
 9676WAT     H229271   6.811   3.281   1.224
 9677WAT      O29272   5.965   5.961   9.013
 9677WAT     H129273   5.971   6.019   8.933
 9677WAT     H229274   6.022   5.879   8.999
 9678WAT      O29275   7.898   0.783   4.651
 9678WAT     H129276   7.891   0.863   4.710
 9678WAT     H229277   7.813   0.730   4.656
 9679WAT      O29278   9.811   6.621   9.878
 9679WAT     H129279   9.906   6.592   9.891
 9679WAT     H229280   9.808   6.698   9.814
 9680WAT      O29281   4.517   2.251   8.460
 9680WAT     H129282   4.461   2.169   8.463
 9680WAT     H229283   4.594   2.237   8.398
 9681WAT      O29284   9.664   0.987   5.151
 9681WAT     H129285   9.578   0.955   5.192
 9681WAT     H229286   9.671   1.086   5.161
 9682WAT      O29287   3.951   8.498   8.212
 9682WAT     H129288   3.930   8.449   8.296
 9682WAT     H229289   4.046   8.530   8.215
 9683WAT      O29290   1.422   9.105   2.858
 9683WAT     H129291   1.335   9.068   2.891
 9683WAT     H229292   1.426   9.096   2.758
 9684WAT      O29293   2.697   0.673   8.954
 9684WAT     H129294   2.624   0.681   9.022
 9684WAT     H229295   2.700   0.756   8.899
 9685WAT      O29296   2.122   4.555   3.406
 9685WAT     H129297   2.150   4.499   3.328
 9685WAT     H229298   2.023   4.569   3.402
 9686WAT      O29299   5.965   6.483   3.537
 9686WAT     H129300   5.933   6.397   3.577
 9686WAT     H229301   5.894   6.553   3.548
 9687WAT      O29302   9.855   2.032   6.155
 9687WAT     H129303   9.913   2.112   6.174
 9687WAT     H229304   9.761   2.052   6.183
 9688WAT      O29305   4.166   5.418   1.157
 9688WAT     H129306   4.190   5.369   1.073
 9688WAT     H229307   4.135   5.510   1.135
 9689WAT      O29308   4.322   5.567   0.157
 9689WAT     H129309   4.389   5.636   0.129
 9689WAT     H229310   4.363   5.506   0.225
 9690WAT      O29311   0.638   7.296   8.802
 9690WAT     H129312   0.579   7.256   8.732
 9690WAT     H229313   0.583   7.356   8.861
 9691WAT      O29314   1.195   1.578   1.702
 9691WAT     H129315   1.210   1.649   1.771
 9691WAT     H229316   1.098   1.573   1.679
 9692WAT      O29317   0.200   8.420   1.818
 9692WAT     H129318   0.122   8.473   1.850
 9692WAT     H229319   0.262   8.480   1.767
 9693WAT      O29320   7.855   6.763   3.935
 9693WAT     H129321   7.904   6.706   4.000
 9693WAT     H229322   7.764   6.724   3.918
 9694WAT      O29323   7.379   4.723   2.399
 9694WAT     H129324   7.388   4.789   2.324
 9694WAT     H229325   7.290   4.736   2.444
 9695WAT      O29326   1.390   0.112   1.237
 9695WAT     H129327   1.383   0.056   1.319
 9695WAT     H229328   1.342   0.068   1.161
 9696WAT      O29329   2.172   6.204   7.193
 9696WAT     H129330   2.272   6.206   7.201
 9696WAT     H229331   2.132   6.267   7.260
 9697WAT      O29332   5.544   4.097   5.128
 9697WAT     H129333   5.553   4.161   5.204
 9697WAT     H229334   5.585   4.009   5.153
 9698WAT      O29335   1.435   0.519   4.265
 9698WAT     H129336   1.421   0.599   4.324
 9698WAT     H229337   1.366   0.520   4.192
 9699WAT      O29338   1.249   1.892   1.126
 9699WAT     H129339   1.231   1.986   1.096
 9699WAT     H229340   1.343   1.868   1.104
 9700WAT      O29341   0.934   8.167   2.257
 9700WAT     H129342   0.866   8.104   2.219
 9700WAT     H229343   1.016   8.165   2.200
 9701WAT      O29344   5.522   6.226   0.110
 9701WAT     H129345   5.619   6.231   0.130
 9701WAT     H229346   5.509   6.191   0.017
 9702WAT      O29347   4.698   3.686   2.428
 9702WAT     H129348   4.748   3.601   2.444
 9702WAT     H229349   4.750   3.745   2.366
 9703WAT      O29350   2.552   4.596   3.089
 9703WAT     H129351   2.454   4.617   3.093
 9703WAT     H229352   2.589   4.627   3.001
 9704WAT      O29353   4.763   4.309   6.150
 9704WAT     H129354   4.709   4.225   6.146
 9704WAT     H229355   4.702   4.387   6.166
 9705WAT      O29356   7.225   0.333   3.704
 9705WAT     H129357   7.225   0.329   3.604
 9705WAT     H229358   7.134   0.309   3.739
 9706WAT      O29359   1.317   7.769   9.793
 9706WAT     H129360   1.251   7.801   9.861
 9706WAT     H229361   1.272   7.703   9.733
 9707WAT      O29362   2.794   2.289   4.349
 9707WAT     H129363   2.822   2.217   4.285
 9707WAT     H229364   2.699   2.313   4.332
 9708WAT      O29365   5.513   6.879   1.543
 9708WAT     H129366   5.486   6.784   1.527
 9708WAT     H229367   5.536   6.922   1.455
 9709WAT      O29368   1.788   0.296   0.030
 9709WAT     H129369   1.705   0.297  -0.027
 9709WAT     H229370   1.762   0.307   0.126
 9710WAT      O29371   4.218   9.013   6.013
 9710WAT     H129372   4.177   8.925   5.992
 9710WAT     H229373   4.318   9.006   6.006
 9711WAT      O29374   9.746   7.251   5.273
 9711WAT     H129375   9.728   7.187   5.198
 9711WAT     H229376   9.720   7.208   5.360
 9712WAT      O29377   3.003   3.004   0.389
 9712WAT     H129378   3.044   2.919   0.358
 9712WAT     H229379   2.911   2.986   0.424
 9713WAT      O29380   4.472   8.703   2.688
 9713WAT     H129381   4.525   8.625   2.722
 9713WAT     H229382   4.489   8.783   2.746
 9714WAT      O29383   6.528   5.670   7.280
 9714WAT     H129384   6.479   5.678   7.367
 9714WAT     H229385   6.626   5.673   7.296
 9715WAT      O29386   8.538   1.344   0.681
 9715WAT     H129387   8.598   1.351   0.602
 9715WAT     H229388   8.531   1.433   0.726
 9716WAT      O29389   0.056   9.235   6.134
 9716WAT     H129390   0.051   9.265   6.038
 9716WAT     H229391   0.005   9.149   6.144
 9717WAT      O29392   8.582   3.371   5.766
 9717WAT     H129393   8.566   3.292   5.708
 9717WAT     H229394   8.681   3.387   5.773
 9718WAT      O29395   4.852   8.854   2.262
 9718WAT     H129396   4.783   8.840   2.333
 9718WAT     H229397   4.872   8.766   2.217
 9719WAT      O29398   5.290   9.537   3.671
 9719WAT     H129399   5.223   9.590   3.618
 9719WAT     H229400   5.379   9.581   3.665
 9720WAT      O29401   1.999   7.480   7.917
 9720WAT     H129402   2.012   7.401   7.858
 9720WAT     H229403   2.088   7.511   7.952
 9721WAT      O29404   2.149   0.678   7.356
 9721WAT     H129405   2.217   0.637   7.417
 9721WAT     H229406   2.083   0.607   7.329
 9722WAT      O29407   3.918   7.543   1.345
 9722WAT     H129408   3.975   7.562   1.425
 9722WAT     H229409   3.897   7.445   1.342
 9723WAT      O29410   3.251   3.275   5.419
 9723WAT     H129411   3.345   3.296   5.444
 9723WAT     H229412   3.217   3.344   5.356
 9724WAT      O29413   8.865   8.048   1.847
 9724WAT     H129414   8.817   7.961   1.843
 9724WAT     H229415   8.865   8.091   1.757
 9725WAT      O29416   6.219   5.332   1.432
 9725WAT     H129417   6.238   5.426   1.402
 9725WAT     H229418   6.300   5.295   1.476
 9726WAT      O29419   1.156   7.044   3.572
 9726WAT     H129420   1.085   7.015   3.509
 9726WAT     H229421   1.212   7.115   3.529
 9727WAT      O29422   9.339   7.930   8.939
 9727WAT     H129423   9.258   7.983   8.916
 9727WAT     H229424   9.338   7.844   8.888
 9728WAT      O29425   2.597   9.832   8.007
 9728WAT     H129426   2.501   9.855   8.025
 9728WAT     H229427   2.604   9.786   7.919
 9729WAT      O29428   2.806   0.721   5.375
 9729WAT     H129429   2.732   0.788   5.374
 9729WAT     H229430   2.842   0.709   5.283
 9730WAT      O29431   5.662   5.086   2.827
 9730WAT     H129432   5.735   5.147   2.856
 9730WAT     H229433   5.626   5.036   2.906
 9731WAT      O29434   4.545   8.517   3.249
 9731WAT     H129435   4.554   8.562   3.160
 9731WAT     H229436   4.520   8.421   3.235
 9732WAT      O29437   2.140   5.333   5.161
 9732WAT     H129438   2.074   5.407   5.168
 9732WAT     H229439   2.126   5.268   5.236
 9733WAT      O29440   0.355   4.169   5.184
 9733WAT     H129441   0.258   4.162   5.163
 9733WAT     H229442   0.367   4.216   5.272
 9734WAT      O29443   4.012   2.611   7.450
 9734WAT     H129444   4.036   2.663   7.368
 9734WAT     H229445   4.073   2.636   7.525
 9735WAT      O29446   4.972   6.885   6.908
 9735WAT     H129447   4.982   6.879   6.809
 9735WAT     H229448   4.975   6.981   6.936
 9736WAT      O29449   7.055   2.259   3.531
 9736WAT     H129450   7.147   2.298   3.525
 9736WAT     H229451   6.992   2.329   3.566
 9737WAT      O29452   4.070   8.593   3.120
 9737WAT     H129453   4.068   8.548   3.209
 9737WAT     H229454   4.157   8.574   3.075
 9738WAT      O29455   6.105   0.595   0.565
 9738WAT     H129456   6.060   0.511   0.536
 9738WAT     H229457   6.036   0.666   0.582
 9739WAT      O29458   5.434   0.124   9.695
 9739WAT     H129459   5.464   0.206   9.646
 9739WAT     H229460   5.463   0.131   9.791
 9740WAT      O29461   8.238   0.203   3.220
 9740WAT     H129462   8.225   0.221   3.122
 9740WAT     H229463   8.179   0.264   3.273
 9741WAT      O29464   0.180   2.989   1.540
 9741WAT     H129465   0.275   3.003   1.510
 9741WAT     H229466   0.119   3.046   1.484
 9742WAT      O29467   3.365   6.827   6.847
 9742WAT     H129468   3.285   6.836   6.788
 9742WAT     H229469   3.442   6.793   6.794
 9743WAT      O29470   8.445   3.193   8.535
 9743WAT     H129471   8.458   3.161   8.629
 9743WAT     H229472   8.347   3.201   8.516
 9744WAT      O29473   9.864   2.616   3.305
 9744WAT     H129474   9.914   2.530   3.290
 9744WAT     H229475   9.766   2.596   3.315
 9745WAT      O29476   2.091   7.486   1.962
 9745WAT     H129477   2.078   7.486   1.863
 9745WAT     H229478   2.179   7.444   1.984
 9746WAT      O29479   6.219   7.896   7.537
 9746WAT     H129480   6.268   7.944   7.464
 9746WAT     H229481   6.277   7.891   7.619
 9747WAT      O29482   8.969   9.093   8.941
 9747WAT     H129483   9.053   9.040   8.954
 9747WAT     H229484   8.902   9.066   9.010
 9748WAT      O29485   9.485   3.618   4.985
 9748WAT     H129486   9.398   3.605   4.938
 9748WAT     H229487   9.527   3.702   4.954
 9749WAT      O29488   3.913   1.468   2.307
 9749WAT     H129489   3.889   1.488   2.402
 9749WAT     H229490   3.874   1.380   2.280
 9750WAT      O29491   3.043   3.439   9.269
 9750WAT     H129492   2.995   3.353   9.289
 9750WAT     H229493   2.983   3.499   9.216
 9751WAT      O29494   1.674   4.173   5.411
 9751WAT     H129495   1.752   4.132   5.459
 9751WAT     H229496   1.629   4.239   5.471
 9752WAT      O29497   7.531   4.411   6.027
 9752WAT     H129498   7.503   4.507   6.036
 9752WAT     H229499   7.479   4.368   5.953
 9753WAT      O29500   8.844   1.789   3.992
 9753WAT     H129501   8.926   1.840   3.967
 9753WAT     H229502   8.801   1.833   4.072
 9754WAT      O29503   5.433   9.471   2.498
 9754WAT     H129504   5.520   9.506   2.534
 9754WAT     H229505   5.393   9.538   2.436
 9755WAT      O29506   5.781   5.893   4.199
 9755WAT     H129507   5.737   5.958   4.137
 9755WAT     H229508   5.767   5.924   4.293
 9756WAT      O29509   5.364   3.682   3.516
 9756WAT     H129510   5.325   3.773   3.527
 9756WAT     H229511   5.460   3.683   3.546
 9757WAT      O29512   6.426   3.389   6.147
 9757WAT     H129513   6.366   3.316   6.180
 9757WAT     H229514   6.419   3.396   6.047
 9758WAT      O29515   9.699   0.797   5.840
 9758WAT     H129516   9.761   0.851   5.896
 9758WAT     H229517   9.629   0.755   5.898
 9759WAT      O29518   8.269   6.526   2.049
 9759WAT     H129519   8.189   6.537   2.107
 9759WAT     H229520   8.261   6.585   1.968
 9760WAT      O29521   7.361   5.232   4.245
 9760WAT     H129522   7.424   5.167   4.202
 9760WAT     H229523   7.305   5.277   4.175
 9761WAT      O29524   3.196   4.542   3.162
 9761WAT     H129525   3.127   4.517   3.094
 9761WAT     H229526   3.190   4.480   3.240
 9762WAT      O29527   0.736   9.614   8.187
 9762WAT     H129528   0.682   9.537   8.219
 9762WAT     H229529   0.831   9.587   8.176
 9763WAT      O29530   2.572   8.670   4.988
 9763WAT     H129531   2.585   8.585   4.936
 9763WAT     H229532   2.660   8.715   5.000
 9764WAT      O29533   6.314   4.207   4.985
 9764WAT     H129534   6.360   4.125   5.018
 9764WAT     H229535   6.279   4.192   4.893
 9765WAT      O29536   3.126   3.924   6.733
 9765WAT     H129537   3.085   3.835   6.752
 9765WAT     H229538   3.225   3.914   6.726
 9766WAT      O29539   0.676   2.144   6.210
 9766WAT     H129540   0.707   2.092   6.130
 9766WAT     H229541   0.627   2.225   6.179
 9767WAT      O29542   7.438   4.753   9.582
 9767WAT     H129543   7.443   4.828   9.647
 9767WAT     H229544   7.382   4.679   9.621
 9768WAT      O29545   0.884   0.260   9.472
 9768WAT     H129546   0.871   0.310   9.387
 9768WAT     H229547   0.803   0.271   9.530
 9769WAT      O29548   0.925   9.198   5.244
 9769WAT     H129549   0.933   9.298   5.252
 9769WAT     H229550   0.941   9.171   5.149
 9770WAT      O29551   0.041   0.223   4.351
 9770WAT     H129552   0.047   0.286   4.428
 9770WAT     H229553   0.084   0.265   4.270
 9771WAT      O29554   2.528   4.130   1.996
 9771WAT     H129555   2.495   4.051   1.944
 9771WAT     H229556   2.453   4.194   2.012
 9772WAT      O29557   9.832   7.081   4.185
 9772WAT     H129558   9.837   7.166   4.238
 9772WAT     H229559   9.755   7.026   4.217
 9773WAT      O29560   0.585   3.967   7.570
 9773WAT     H129561   0.666   3.919   7.603
 9773WAT     H229562   0.574   4.053   7.620
 9774WAT      O29563   5.181   7.727   9.731
 9774WAT     H129564   5.222   7.807   9.687
 9774WAT     H229565   5.081   7.731   9.721
 9775WAT      O29566   2.656   6.051   5.090
 9775WAT     H129567   2.564   6.015   5.108
 9775WAT     H229568   2.712   5.981   5.047
 9776WAT      O29569   3.662   3.567   4.270
 9776WAT     H129570   3.722   3.519   4.334
 9776WAT     H229571   3.617   3.644   4.317
 9777WAT      O29572   8.397   3.313   7.576
 9777WAT     H129573   8.439   3.295   7.665
 9777WAT     H229574   8.300   3.287   7.580
 9778WAT      O29575   9.343   1.568   4.402
 9778WAT     H129576   9.434   1.611   4.401
 9778WAT     H229577   9.307   1.570   4.495
 9779WAT      O29578   1.051   0.551   3.901
 9779WAT     H129579   1.009   0.621   3.959
 9779WAT     H229580   1.129   0.510   3.949
 9780WAT      O29581   3.333   8.812   7.278
 9780WAT     H129582   3.376   8.863   7.353
 9780WAT     H229583   3.253   8.862   7.246
 9781WAT      O29584   0.671   5.396   9.212
 9781WAT     H129585   0.582   5.443   9.208
 9781WAT     H229586   0.693   5.375   9.307
 9782WAT      O29587   4.709   3.333   0.407
 9782WAT     H129588   4.733   3.394   0.331
 9782WAT     H229589   4.646   3.262   0.374
 9783WAT      O29590   7.428   1.984   1.310
 9783WAT     H129591   7.471   1.990   1.401
 9783WAT     H229592   7.360   1.911   1.310
 9784WAT      O29593   5.897   1.286   7.827
 9784WAT     H129594   5.800   1.290   7.803
 9784WAT     H229595   5.940   1.209   7.779
 9785WAT      O29596   8.808   4.818   6.682
 9785WAT     H129597   8.853   4.742   6.635
 9785WAT     H229598   8.790   4.891   6.616
 9786WAT      O29599   3.876   3.913   0.070
 9786WAT     H129600   3.962   3.908   0.119
 9786WAT     H229601   3.889   3.880  -0.024
 9787WAT      O29602   7.233   9.006   7.633
 9787WAT     H129603   7.177   9.088   7.619
 9787WAT     H229604   7.198   8.933   7.574
 9788WAT      O29605   8.464   2.528   7.547
 9788WAT     H129606   8.454   2.615   7.595
 9788WAT     H229607   8.425   2.455   7.603
 9789WAT      O29608   5.216   2.404   8.856
 9789WAT     H129609   5.226   2.492   8.901
 9789WAT     H229610   5.193   2.418   8.759
 9790WAT      O29611   4.185   2.056   3.828
 9790WAT     H129612   4.185   2.144   3.780
 9790WAT     H229613   4.095   2.040   3.869
 9791WAT      O29614   2.990   3.165   7.676
 9791WAT     H129615   2.973   3.241   7.738
 9791WAT     H229616   3.089   3.151   7.667
 9792WAT      O29617   1.723   5.991   7.350
 9792WAT     H129618   1.690   6.059   7.284
 9792WAT     H229619   1.816   6.014   7.378
 9793WAT      O29620   3.404   1.291   3.686
 9793WAT     H129621   3.382   1.234   3.606
 9793WAT     H229622   3.480   1.352   3.664
 9794WAT      O29623   7.890   7.128   5.152
 9794WAT     H129624   7.943   7.055   5.108
 9794WAT     H229625   7.802   7.138   5.105
 9795WAT      O29626   6.965   1.406   5.110
 9795WAT     H129627   7.050   1.387   5.160
 9795WAT     H229628   6.920   1.320   5.087
 9796WAT      O29629   6.923   3.571   9.667
 9796WAT     H129630   6.914   3.488   9.612
 9796WAT     H229631   7.016   3.578   9.702
 9797WAT      O29632   9.207   9.646   2.079
 9797WAT     H129633   9.301   9.682   2.079
 9797WAT     H229634   9.168   9.657   2.170
 9798WAT      O29635   0.655   7.694   8.630
 9798WAT     H129636   0.665   7.710   8.531
 9798WAT     H229637   0.643   7.782   8.676
 9799WAT      O29638   0.419   2.596   9.795
 9799WAT     H129639   0.343   2.635   9.848
 9799WAT     H229640   0.506   2.627   9.833
 9800WAT      O29641   5.878   3.608   8.212
 9800WAT     H129642   5.975   3.630   8.203
 9800WAT     H229643   5.835   3.671   8.277
 9801WAT      O29644   8.308   7.571   9.175
 9801WAT     H129645   8.230   7.599   9.120
 9801WAT     H229646   8.305   7.618   9.264
 9802WAT      O29647   4.334   8.930   1.652
 9802WAT     H129648   4.306   8.958   1.560
 9802WAT     H229649   4.255   8.936   1.713
 9803WAT      O29650   1.206   3.589   3.767
 9803WAT     H129651   1.281   3.652   3.783
 9803WAT     H229652   1.199   3.525   3.843
 9804WAT      O29653   5.891   6.644   1.658
 9804WAT     H129654   5.961   6.639   1.728
 9804WAT     H229655   5.847   6.734   1.661
 9805WAT      O29656   5.120   1.506   2.843
 9805WAT     H129657   5.126   1.606   2.854
 9805WAT     H229658   5.067   1.485   2.761
 9806WAT      O29659   6.585   5.046   5.082
 9806WAT     H129660   6.685   5.046   5.086
 9806WAT     H229661   6.550   5.131   5.121
 9807WAT      O29662   9.694   1.580   5.803
 9807WAT     H129663   9.724   1.628   5.886
 9807WAT     H229664   9.729   1.628   5.722
 9808WAT      O29665   7.844   6.289   7.668
 9808WAT     H129666   7.756   6.335   7.680
 9808WAT     H229667   7.846   6.206   7.724
 9809WAT      O29668   7.997   6.966   2.306
 9809WAT     H129669   8.032   7.052   2.342
 9809WAT     H229670   7.898   6.960   2.321
 9810WAT      O29671   3.674   9.178   5.472
 9810WAT     H129672   3.738   9.104   5.489
 9810WAT     H229673   3.581   9.147   5.487
 9811WAT      O29674   4.198   2.185   4.203
 9811WAT     H129675   4.156   2.253   4.142
 9811WAT     H229676   4.250   2.119   4.148
 9812WAT      O29677   5.328   1.107   0.049
 9812WAT     H129678   5.330   1.078  -0.047
 9812WAT     H229679   5.243   1.156   0.067
 9813WAT      O29680   7.283   1.656   0.677
 9813WAT     H129681   7.234   1.599   0.743
 9813WAT     H229682   7.333   1.727   0.725
 9814WAT      O29683   2.313   6.214   1.115
 9814WAT     H129684   2.340   6.178   1.205
 9814WAT     H229685   2.376   6.178   1.046
 9815WAT      O29686   2.776   2.953   0.920
 9815WAT     H129687   2.862   2.941   0.871
 9815WAT     H229688   2.733   2.864   0.935
 9816WAT      O29689   0.175   4.144   6.662
 9816WAT     H129690   0.158   4.109   6.570
 9816WAT     H229691   0.266   4.115   6.691
 9817WAT      O29692   4.985   7.622   4.468
 9817WAT     H129693   4.921   7.696   4.490
 9817WAT     H229694   4.946   7.535   4.497
 9818WAT      O29695   4.892   7.892   8.139
 9818WAT     H129696   4.911   7.835   8.219
 9818WAT     H229697   4.848   7.837   8.068
 9819WAT      O29698   3.494   7.662   7.100
 9819WAT     H129699   3.528   7.743   7.147
 9819WAT     H229700   3.397   7.673   7.081
 9820WAT      O29701   2.433   6.763   7.773
 9820WAT     H129702   2.465   6.693   7.709
 9820WAT     H229703   2.511   6.813   7.809
 9821WAT      O29704   6.399   4.136   0.191
 9821WAT     H129705   6.335   4.154   0.266
 9821WAT     H229706   6.352   4.086   0.119
 9822WAT      O29707   1.615   5.940   7.043
 9822WAT     H129708   1.565   5.982   7.119
 9822WAT     H229709   1.646   5.849   7.069
 9823WAT      O29710   0.151   4.522   2.462
 9823WAT     H129711   0.198   4.610   2.473
 9823WAT     H229712   0.080   4.531   2.392
 9824WAT      O29713   2.182   9.754   0.202
 9824WAT     H129714   2.196   9.853   0.198
 9824WAT     H229715   2.245   9.709   0.139
 9825WAT      O29716   1.677   0.144   1.739
 9825WAT     H129717   1.647   0.175   1.649
 9825WAT     H229718   1.771   0.175   1.756
 9826WAT      O29719   2.531   9.082   7.669
 9826WAT     H129720   2.565   9.024   7.743
 9826WAT     H229721   2.529   9.030   7.583
 9827WAT      O29722   6.168   0.998   6.090
 9827WAT     H129723   6.140   1.050   6.009
 9827WAT     H229724   6.266   1.011   6.106
 9828WAT      O29725   4.276   2.562   6.391
 9828WAT     H129726   4.321   2.515   6.315
 9828WAT     H229727   4.246   2.652   6.361
 9829WAT      O29728   6.635   3.237   1.723
 9829WAT     H129729   6.620   3.335   1.710
 9829WAT     H229730   6.701   3.204   1.656
 9830WAT      O29731   7.852   9.241   4.304
 9830WAT     H129732   7.872   9.157   4.353
 9830WAT     H229733   7.869   9.320   4.363
 9831WAT      O29734   1.788   9.627   0.047
 9831WAT     H129735   1.782   9.539   0.001
 9831WAT     H229736   1.880   9.640   0.083
 9832WAT      O29737   1.608   3.071   0.643
 9832WAT     H129738   1.644   3.029   0.560
 9832WAT     H229739   1.653   3.030   0.723
 9833WAT      O29740   6.048   5.261   0.065
 9833WAT     H129741   6.111   5.218   0.001
 9833WAT     H229742   6.015   5.193   0.130
 9834WAT      O29743   5.698   1.736   8.455
 9834WAT     H129744   5.760   1.732   8.533
 9834WAT     H229745   5.609   1.700   8.481
 9835WAT      O29746   4.761   7.532   3.451
 9835WAT     H129747   4.722   7.442   3.473
 9835WAT     H229748   4.743   7.595   3.526
 9836WAT      O29749   1.090   3.161   2.099
 9836WAT     H129750   1.033   3.084   2.071
 9836WAT     H229751   1.033   3.237   2.127
 9837WAT      O29752   8.770   6.129   6.566
 9837WAT     H129753   8.855   6.097   6.607
 9837WAT     H229754   8.702   6.147   6.637
 9838WAT      O29755   4.558   9.749   4.351
 9838WAT     H129756   4.514   9.660   4.351
 9838WAT     H229757   4.647   9.742   4.397
 9839WAT      O29758   5.610   4.836   4.682
 9839WAT     H129759   5.634   4.916   4.628
 9839WAT     H229760   5.661   4.757   4.648
 9840WAT      O29761   8.175   1.612   8.530
 9840WAT     H129762   8.249   1.660   8.576
 9840WAT     H229763   8.093   1.669   8.528
 9841WAT      O29764   9.077   0.583   9.270
 9841WAT     H129765   9.062   0.520   9.194
 9841WAT     H229766   8.990   0.600   9.317
 9842WAT      O29767   0.255   9.200   5.667
 9842WAT     H129768   0.333   9.176   5.610
 9842WAT     H229769   0.271   9.289   5.709
 9843WAT      O29770   1.757   7.769   4.758
 9843WAT     H129771   1.703   7.851   4.739
 9843WAT     H229772   1.855   7.793   4.756
 9844WAT      O29773   9.373   0.854   0.214
 9844WAT     H129774   9.367   0.771   0.159
 9844WAT     H229775   9.365   0.934   0.155
 9845WAT      O29776   1.580   6.932   6.464
 9845WAT     H129777   1.599   6.989   6.384
 9845WAT     H229778   1.516   6.980   6.525
 9846WAT      O29779   5.888   4.432   8.615
 9846WAT     H129780   5.802   4.480   8.632
 9846WAT     H229781   5.935   4.417   8.702
 9847WAT      O29782   1.829   1.313   2.545
 9847WAT     H129783   1.814   1.238   2.481
 9847WAT     H229784   1.911   1.296   2.598
 9848WAT      O29785   7.487   6.077   1.035
 9848WAT     H129786   7.393   6.047   1.043
 9848WAT     H229787   7.507   6.143   1.107
 9849WAT      O29788   2.068   6.349   3.023
 9849WAT     H129789   2.076   6.249   3.024
 9849WAT     H229790   2.000   6.378   3.090
 9850WAT      O29791   7.777   8.397   2.785
 9850WAT     H129792   7.785   8.321   2.721
 9850WAT     H229793   7.843   8.386   2.859
 9851WAT      O29794   4.239   8.111   7.811
 9851WAT     H129795   4.209   8.073   7.723
 9851WAT     H229796   4.334   8.140   7.804
 9852WAT      O29797   4.729   8.171   2.449
 9852WAT     H129798   4.638   8.211   2.461
 9852WAT     H229799   4.784   8.228   2.389
 9853WAT      O29800   8.657   5.625   5.032
 9853WAT     H129801   8.731   5.594   4.972
 9853WAT     H229802   8.693   5.641   5.124
 9854WAT      O29803   1.047   5.339   1.020
 9854WAT     H129804   1.050   5.248   0.977
 9854WAT     H229805   1.047   5.329   1.119
 9855WAT      O29806   7.154   8.847   8.232
 9855WAT     H129807   7.071   8.866   8.286
 9855WAT     H229808   7.206   8.931   8.220
 9856WAT      O29809   7.844   6.863   1.393
 9856WAT     H129810   7.832   6.777   1.443
 9856WAT     H229811   7.911   6.920   1.440
 9857WAT      O29812   4.793   7.970   6.781
 9857WAT     H129813   4.880   7.964   6.734
 9857WAT     H229814   4.737   8.041   6.738
 9858WAT      O29815   2.992   1.428   8.164
 9858WAT     H129816   2.919   1.372   8.123
 9858WAT     H229817   3.058   1.452   8.093
 9859WAT      O29818   0.247   3.180   3.071
 9859WAT     H129819   0.241   3.099   3.129
 9859WAT     H229820   0.252   3.152   2.975
 9860WAT      O29821   9.271   5.776   3.907
 9860WAT     H129822   9.352   5.748   3.856
 9860WAT     H229823   9.230   5.855   3.862
 9861WAT      O29824   2.560   6.934   3.420
 9861WAT     H129825   2.654   6.964   3.408
 9861WAT     H229826   2.505   7.010   3.457
 9862WAT      O29827   1.407   1.609   9.067
 9862WAT     H129828   1.314   1.572   9.069
 9862WAT     H229829   1.454   1.584   9.152
 9863WAT      O29830   9.269   3.890   2.667
 9863WAT     H129831   9.345   3.918   2.725
 9863WAT     H229832   9.260   3.953   2.590
 9864WAT      O29833   1.370   7.584   4.740
 9864WAT     H129834   1.447   7.520   4.735
 9864WAT     H229835   1.380   7.654   4.669
 9865WAT      O29836   4.642   4.692   7.811
 9865WAT     H129837   4.618   4.728   7.901
 9865WAT     H229838   4.676   4.766   7.753
 9866WAT      O29839   6.549   2.322   3.148
 9866WAT     H129840   6.465   2.305   3.199
 9866WAT     H229841   6.627   2.314   3.209
 9867WAT      O29842   8.800   2.445   9.283
 9867WAT     H129843   8.825   2.350   9.262
 9867WAT     H229844   8.883   2.499   9.299
 9868WAT      O29845   4.015   7.580   3.070
 9868WAT     H129846   4.051   7.494   3.106
 9868WAT     H229847   4.090   7.635   3.033
 9869WAT      O29848   8.886   6.207   5.737
 9869WAT     H129849   8.794   6.180   5.766
 9869WAT     H229850   8.900   6.304   5.756
 9870WAT      O29851   3.927   9.077   3.776
 9870WAT     H129852   3.957   8.982   3.771
 9870WAT     H229853   3.849   9.090   3.714
 9871WAT      O29854   4.130   4.982   6.649
 9871WAT     H129855   4.116   4.949   6.556
 9871WAT     H229856   4.152   5.080   6.648
 9872WAT      O29857   7.639   2.557   7.541
 9872WAT     H129858   7.580   2.503   7.602
 9872WAT     H229859   7.613   2.539   7.446
 9873WAT      O29860   0.614   1.475   6.357
 9873WAT     H129861   0.585   1.402   6.294
 9873WAT     H229862   0.627   1.560   6.306
 9874WAT      O29863   8.488   8.231   2.716
 9874WAT     H129864   8.465   8.149   2.663
 9874WAT     H229865   8.573   8.270   2.682
 9875WAT      O29866   9.169   2.793   4.915
 9875WAT     H129867   9.205   2.711   4.869
 9875WAT     H229868   9.072   2.782   4.932
 9876WAT      O29869   5.491   3.112   5.296
 9876WAT     H129870   5.539   3.049   5.357
 9876WAT     H229871   5.532   3.203   5.305
 9877WAT      O29872   7.068   5.888   0.821
 9877WAT     H129873   7.004   5.814   0.842
 9877WAT     H229874   7.034   5.974   0.858
 9878WAT      O29875   2.051   6.547   8.526
 9878WAT     H129876   2.013   6.596   8.447
 9878WAT     H229877   2.099   6.465   8.495
 9879WAT      O29878   8.036   3.541   2.311
 9879WAT     H129879   7.998   3.603   2.243
 9879WAT     H229880   8.100   3.590   2.370
 9880WAT      O29881   9.190   5.274   3.333
 9880WAT     H129882   9.240   5.352   3.371
 9880WAT     H229883   9.097   5.273   3.369
 9881WAT      O29884   4.547   7.470   9.093
 9881WAT     H129885   4.555   7.568   9.110
 9881WAT     H229886   4.454   7.448   9.063
 9882WAT      O29887   4.218   6.925   9.040
 9882WAT     H129888   4.147   6.855   9.032
 9882WAT     H229889   4.199   7.000   8.977
 9883WAT      O29890   4.279   7.334   9.030
 9883WAT     H129891   4.221   7.297   9.103
 9883WAT     H229892   4.222   7.353   8.949
 9884WAT      O29893   7.302   0.763   0.344
 9884WAT     H129894   7.293   0.734   0.440
 9884WAT     H229895   7.398   0.784   0.325
 9885WAT      O29896   5.364   7.105   3.539
 9885WAT     H129897   5.393   7.111   3.444
 9885WAT     H229898   5.271   7.142   3.548
 9886WAT      O29899   3.653   9.155   0.219
 9886WAT     H129900   3.682   9.069   0.259
 9886WAT     H229901   3.564   9.180   0.255
 9887WAT      O29902   3.767   9.338   1.571
 9887WAT     H129903   3.715   9.296   1.497
 9887WAT     H229904   3.776   9.436   1.553
 9888WAT      O29905   4.218   0.475   9.691
 9888WAT     H129906   4.271   0.391   9.704
 9888WAT     H229907   4.126   0.462   9.729
 9889WAT      O29908   8.287   8.325   2.097
 9889WAT     H129909   8.259   8.248   2.154
 9889WAT     H229910   8.386   8.340   2.109
 9890WAT      O29911   2.482   3.012   5.053
 9890WAT     H129912   2.510   3.033   4.959
 9890WAT     H229913   2.438   2.922   5.055
 9891WAT      O29914   0.652   9.240   4.904
 9891WAT     H129915   0.579   9.172   4.908
 9891WAT     H229916   0.644   9.302   4.982
 9892WAT      O29917   3.701   5.819   3.253
 9892WAT     H129918   3.616   5.768   3.237
 9892WAT     H229919   3.770   5.757   3.292
 9893WAT      O29920   2.973   2.496   4.291
 9893WAT     H129921   2.943   2.449   4.208
 9893WAT     H229922   2.902   2.559   4.322
 9894WAT      O29923   5.269   6.767   1.980
 9894WAT     H129924   5.198   6.812   1.926
 9894WAT     H229925   5.286   6.820   2.063
 9895WAT      O29926   7.310   2.919   0.658
 9895WAT     H129927   7.250   2.861   0.713
 9895WAT     H229928   7.255   2.973   0.594
 9896WAT      O29929   5.208   4.601   1.061
 9896WAT     H129930   5.304   4.582   1.045
 9896WAT     H229931   5.176   4.672   0.998
 9897WAT      O29932   1.383   5.451   1.719
 9897WAT     H129933   1.467   5.472   1.769
 9897WAT     H229934   1.316   5.525   1.735
 9898WAT      O29935   4.450   5.835   7.127
 9898WAT     H129936   4.499   5.910   7.172
 9898WAT     H229937   4.500   5.749   7.142
 9899WAT      O29938   0.180   4.891   3.606
 9899WAT     H129939   0.204   4.888   3.703
 9899WAT     H229940   0.157   4.799   3.574
 9900WAT      O29941   8.693   7.847   3.345
 9900WAT     H129942   8.634   7.916   3.387
 9900WAT     H229943   8.778   7.840   3.397
 9901WAT      O29944   1.317   5.397   9.531
 9901WAT     H129945   1.353   5.442   9.449
 9901WAT     H229946   1.293   5.302   9.508
 9902WAT      O29947   7.864   3.231   3.571
 9902WAT     H129948   7.786   3.294   3.581
 9902WAT     H229949   7.935   3.255   3.637
 9903WAT      O29950   4.029   8.835   3.788
 9903WAT     H129951   3.988   8.760   3.736
 9903WAT     H229952   4.069   8.799   3.872
 9904WAT      O29953   7.366   6.668   6.487
 9904WAT     H129954   7.448   6.611   6.496
 9904WAT     H229955   7.360   6.730   6.565
 9905WAT      O29956   7.185   4.709   2.030
 9905WAT     H129957   7.270   4.663   2.056
 9905WAT     H229958   7.139   4.742   2.113
 9906WAT      O29959   4.267   2.363   2.199
 9906WAT     H129960   4.288   2.458   2.174
 9906WAT     H229961   4.195   2.363   2.268
 9907WAT      O29962   8.407   0.095   2.730
 9907WAT     H129963   8.423  -0.003   2.740
 9907WAT     H229964   8.484   0.146   2.768
 9908WAT      O29965   7.010   1.509   9.203
 9908WAT     H129966   7.074   1.474   9.272
 9908WAT     H229967   7.015   1.453   9.121
 9909WAT      O29968   5.775   8.728   4.933
 9909WAT     H129969   5.802   8.645   4.885
 9909WAT     H229970   5.852   8.791   4.937
 9910WAT      O29971   1.050   8.572   4.783
 9910WAT     H129972   1.065   8.671   4.775
 9910WAT     H229973   1.122   8.532   4.841
 9911WAT      O29974   0.666   5.341   5.279
 9911WAT     H129975   0.697   5.418   5.224
 9911WAT     H229976   0.654   5.371   5.374
 9912WAT      O29977   5.277   5.051   1.541
 9912WAT     H129978   5.205   5.036   1.608
 9912WAT     H229979   5.249   5.013   1.453
 9913WAT      O29980   2.796   9.749   2.544
 9913WAT     H129981   2.799   9.724   2.641
 9913WAT     H229982   2.889   9.768   2.512
 9914WAT      O29983   1.544   1.364   3.168
 9914WAT     H129984   1.540   1.368   3.267
 9914WAT     H229985   1.638   1.347   3.139
 9915WAT      O29986   5.562   4.299   9.338
 9915WAT     H129987   5.635   4.246   9.294
 9915WAT     H229988   5.520   4.360   9.271
 9916WAT      O29989   7.179   9.351   7.007
 9916WAT     H129990   7.261   9.338   6.950
 9916WAT     H229991   7.163   9.268   7.060
 9917WAT      O29992   7.398   7.759   7.429
 9917WAT     H129993   7.493   7.776   7.454
 9917WAT     H229994   7.391   7.670   7.384
 9918WAT      O29995   3.819   6.213   1.333
 9918WAT     H129996   3.810   6.190   1.430
 9918WAT     H229997   3.870   6.140   1.286
 9919WAT      O29998   0.206   0.960   5.683
 9919WAT     H129999   0.284   0.948   5.621
 9919WAT     H230000   0.133   0.897   5.657
 9920WAT      O30001   9.777   6.849   7.303
 9920WAT     H130002   9.870   6.869   7.335
 9920WAT     H230003   9.774   6.857   7.203
 9921WAT      O30004   3.372   8.919   3.287
 9921WAT     H130005   3.302   8.867   3.335
 9921WAT     H230006   3.366   9.015   3.312
 9922WAT      O30007   6.362   6.734   2.779
 9922WAT     H130008   6.362   6.834   2.787
 9922WAT     H230009   6.447   6.704   2.736
 9923WAT      O30010   8.001   2.633   2.598
 9923WAT     H130011   8.094   2.611   2.626
 9923WAT     H230012   7.966   2.708   2.655
 9924WAT      O30013   4.551   1.880   1.441
 9924WAT     H130014   4.568   1.783   1.426
 9924WAT     H230015   4.454   1.893   1.462
 9925WAT      O30016   3.762   7.977   6.702
 9925WAT     H130017   3.697   7.912   6.741
 9925WAT     H230018   3.750   8.066   6.746
 9926WAT      O30019   3.091   7.609   1.082
 9926WAT     H130020   3.026   7.660   1.027
 9926WAT     H230021   3.184   7.630   1.053
 9927WAT      O30022   1.872   0.479   0.663
 9927WAT     H130023   1.856   0.565   0.616
 9927WAT     H230024   1.848   0.402   0.603
 9928WAT      O30025   1.744   8.335   9.182
 9928WAT     H130026   1.696   8.279   9.115
 9928WAT     H230027   1.741   8.290   9.271
 9929WAT      O30028   5.760   7.183   1.584
 9929WAT     H130029   5.670   7.184   1.540
 9929WAT     H230030   5.828   7.223   1.523
 9930WAT      O30031   9.776   0.893   1.400
 9930WAT     H130032   9.838   0.916   1.325
 9930WAT     H230033   9.782   0.964   1.470
 9931WAT      O30034   0.232   7.077   0.825
 9931WAT     H130035   0.137   7.063   0.855
 9931WAT     H230036   0.241   7.168   0.785
 9932WAT      O30037   0.238   5.332   1.780
 9932WAT     H130038   0.145   5.295   1.775
 9932WAT     H230039   0.295   5.289   1.709
 9933WAT      O30040   8.926   1.907   2.238
 9933WAT     H130041   8.904   2.005   2.234
 9933WAT     H230042   9.023   1.893   2.219
 9934WAT      O30043   1.664   0.769   0.073
 9934WAT     H130044   1.631   0.778   0.167
 9934WAT     H230045   1.716   0.684   0.063
 9935WAT      O30046   2.735   7.645   3.236
 9935WAT     H130047   2.778   7.714   3.177
 9935WAT     H230048   2.687   7.579   3.179
 9936WAT      O30049   3.263   8.869   4.953
 9936WAT     H130050   3.343   8.813   4.974
 9936WAT     H230051   3.292   8.955   4.911
 9937WAT      O30052   7.393   5.696   0.452
 9937WAT     H130053   7.492   5.710   0.445
 9937WAT     H230054   7.346   5.757   0.388
 9938WAT      O30055   4.254   4.699   6.109
 9938WAT     H130056   4.165   4.738   6.134
 9938WAT     H230057   4.260   4.605   6.142
 9939WAT      O30058   3.520   5.964   8.701
 9939WAT     H130059   3.479   5.886   8.654
 9939WAT     H230060   3.516   6.045   8.642
 9940WAT      O30061   3.120   8.689   5.468
 9940WAT     H130062   3.193   8.720   5.407
 9940WAT     H230063   3.076   8.608   5.429
 9941WAT      O30064   4.937   7.918   3.843
 9941WAT     H130065   5.000   7.952   3.913
 9941WAT     H230066   4.960   7.960   3.755
 9942WAT      O30067   7.350   5.582   1.892
 9942WAT     H130068   7.376   5.529   1.973
 9942WAT     H230069   7.254   5.567   1.871
 9943WAT      O30070   4.614   5.842   8.443
 9943WAT     H130071   4.618   5.777   8.520
 9943WAT     H230072   4.685   5.818   8.377
 9944WAT      O30073   8.984   5.546   7.139
 9944WAT     H130074   8.951   5.625   7.191
 9944WAT     H230075   8.923   5.529   7.062
 9945WAT      O30076   5.747   1.711   0.288
 9945WAT     H130077   5.812   1.738   0.359
 9945WAT     H230078   5.758   1.770   0.208
 9946WAT      O30079   4.202   9.294   0.869
 9946WAT     H130080   4.232   9.350   0.792
 9946WAT     H230081   4.281   9.268   0.925
 9947WAT      O30082   1.787   5.548   3.910
 9947WAT     H130083   1.805   5.626   3.850
 9947WAT     H230084   1.779   5.465   3.855
 9948WAT      O30085   1.620   9.213   4.438
 9948WAT     H130086   1.698   9.158   4.467
 9948WAT     H230087   1.547   9.153   4.405
 9949WAT      O30088   5.135   9.133   5.393
 9949WAT     H130089   5.217   9.110   5.444
 9949WAT     H230090   5.137   9.089   5.304
 9950WAT      O30091   6.834   3.499   3.978
 9950WAT     H130092   6.855   3.597   3.987
 9950WAT     H230093   6.909   3.446   4.016
 9951WAT      O30094   2.815   6.822   1.585
 9951WAT     H130095   2.736   6.820   1.646
 9951WAT     H230096   2.890   6.769   1.625
 9952WAT      O30097   9.652   4.469   3.800
 9952WAT     H130098   9.609   4.559   3.805
 9952WAT     H230099   9.746   4.478   3.769
 9953WAT      O30100   6.769   2.481   7.634
 9953WAT     H130101   6.844   2.415   7.633
 9953WAT     H230102   6.750   2.508   7.729
 9954WAT      O30103   5.903   1.306   6.826
 9954WAT     H130104   5.928   1.395   6.789
 9954WAT     H230105   5.953   1.290   6.911
 9955WAT      O30106   3.661   0.891   3.471
 9955WAT     H130107   3.696   0.979   3.502
 9955WAT     H230108   3.620   0.901   3.381
 9956WAT      O30109   9.425   5.882   4.335
 9956WAT     H130110   9.502   5.940   4.364
 9956WAT     H230111   9.353   5.885   4.405
 9957WAT      O30112   2.366   1.196   8.302
 9957WAT     H130113   2.337   1.279   8.350
 9957WAT     H230114   2.372   1.120   8.368
 9958WAT      O30115   7.257   1.194   7.933
 9958WAT     H130116   7.295   1.203   8.025
 9958WAT     H230117   7.314   1.244   7.868
 9959WAT      O30118   5.000   6.796   5.788
 9959WAT     H130119   4.944   6.714   5.776
 9959WAT     H230120   5.071   6.779   5.857
 9960WAT      O30121   7.680   7.283   4.935
 9960WAT     H130122   7.741   7.308   4.860
 9960WAT     H230123   7.656   7.186   4.927
 9961WAT      O30124   1.675   4.006   4.648
 9961WAT     H130125   1.701   3.947   4.572
 9961WAT     H230126   1.629   4.087   4.612
 9962WAT      O30127   5.014   1.520   5.279
 9962WAT     H130128   4.965   1.564   5.204
 9962WAT     H230129   4.999   1.572   5.363
 9963WAT      O30130   2.043   6.421   4.626
 9963WAT     H130131   1.950   6.451   4.605
 9963WAT     H230132   2.098   6.423   4.543
 9964WAT      O30133   9.768   4.181   3.678
 9964WAT     H130134   9.809   4.226   3.599
 9964WAT     H230135   9.680   4.140   3.651
 9965WAT      O30136   3.620   6.089   4.647
 9965WAT     H130137   3.615   6.187   4.631
 9965WAT     H230138   3.611   6.041   4.560
 9966WAT      O30139   8.450   8.416   5.672
 9966WAT     H130140   8.522   8.347   5.661
 9966WAT     H230141   8.429   8.427   5.769
 9967WAT      O30142   7.125   9.531   4.884
 9967WAT     H130143   7.176   9.469   4.825
 9967WAT     H230144   7.117   9.492   4.975
 9968WAT      O30145   5.287   2.140   6.982
 9968WAT     H130146   5.350   2.073   7.020
 9968WAT     H230147   5.282   2.219   7.042
 9969WAT      O30148   7.210   2.941   4.666
 9969WAT     H130149   7.276   2.899   4.729
 9969WAT     H230150   7.129   2.883   4.660
 9970WAT      O30151   6.789   0.835   8.676
 9970WAT     H130152   6.709   0.777   8.663
 9970WAT     H230153   6.824   0.865   8.587
 9971WAT      O30154   5.711   6.031   0.404
 9971WAT     H130155   5.793   6.061   0.453
 9971WAT     H230156   5.686   6.101   0.336
 9972WAT      O30157   9.617   8.572   6.046
 9972WAT     H130158   9.621   8.517   6.130
 9972WAT     H230159   9.604   8.668   6.070
 9973WAT      O30160   4.778   6.082   3.986
 9973WAT     H130161   4.752   6.046   3.896
 9973WAT     H230162   4.702   6.135   4.023
 9974WAT      O30163   7.856   2.059   0.940
 9974WAT     H130164   7.889   1.974   0.902
 9974WAT     H230165   7.932   2.113   0.975
 9975WAT      O30166   1.390   0.483   2.744
 9975WAT     H130167   1.374   0.518   2.837
 9975WAT     H230168   1.335   0.536   2.679
 9976WAT      O30169   0.234   6.069   4.545
 9976WAT     H130170   0.182   6.091   4.628
 9976WAT     H230171   0.212   6.134   4.473
 9977WAT      O30172   8.400   4.574   9.540
 9977WAT     H130173   8.365   4.562   9.633
 9977WAT     H230174   8.487   4.622   9.542
 9978WAT      O30175   0.449   6.366   4.955
 9978WAT     H130176   0.390   6.386   5.033
 9978WAT     H230177   0.449   6.268   4.936
 9979WAT      O30178   8.252   1.042   7.397
 9979WAT     H130179   8.184   0.972   7.416
 9979WAT     H230180   8.208   1.132   7.394
 9980WAT      O30181   1.203   8.593   6.299
 9980WAT     H130182   1.161   8.684   6.305
 9980WAT     H230183   1.166   8.544   6.221
 9981WAT      O30184   0.701   5.131   5.754
 9981WAT     H130185   0.732   5.036   5.751
 9981WAT     H230186   0.758   5.187   5.693
 9982WAT      O30187   5.346   7.042   2.995
 9982WAT     H130188   5.434   7.016   2.956
 9982WAT     H230189   5.296   6.960   3.023
 9983WAT      O30190   4.185   2.288   6.558
 9983WAT     H130191   4.208   2.350   6.483
 9983WAT     H230192   4.085   2.275   6.561
 9984WAT      O30193   0.320   6.224   5.352
 9984WAT     H130194   0.227   6.223   5.389
 9984WAT     H230195   0.351   6.130   5.338
 9985WAT      O30196   6.815   9.346   3.170
 9985WAT     H130197   6.734   9.400   3.145
 9985WAT     H230198   6.795   9.249   3.157
 9986WAT      O30199   4.977   3.042   9.071
 9986WAT     H130200   4.960   3.121   9.129
 9986WAT     H230201   5.071   3.009   9.086
 9987WAT      O30202   6.591   6.136   7.629
 9987WAT     H130203   6.571   6.061   7.693
 9987WAT     H230204   6.539   6.122   7.544
 9988WAT      O30205   6.202   0.462   7.010
 9988WAT     H130206   6.122   0.459   6.950
 9988WAT     H230207   6.250   0.549   6.998
 9989WAT      O30208   3.806   1.975   8.626
 9989WAT     H130209   3.866   2.001   8.702
 9989WAT     H230210   3.727   2.036   8.624
 9990WAT      O30211   9.163   5.502   1.794
 9990WAT     H130212   9.159   5.569   1.867
 9990WAT     H230213   9.134   5.544   1.708
 9991WAT      O30214   3.592   1.752   9.022
 9991WAT     H130215   3.543   1.715   9.101
 9991WAT     H230216   3.561   1.845   9.004
 9992WAT      O30217   2.939   2.393   2.762
 9992WAT     H130218   3.034   2.363   2.763
 9992WAT     H230219   2.888   2.339   2.695
 9993WAT      O30220   9.178   1.865   8.238
 9993WAT     H130221   9.201   1.769   8.253
 9993WAT     H230222   9.260   1.921   8.252
 9994WAT      O30223   2.394   7.083   0.652
 9994WAT     H130224   2.419   7.171   0.692
 9994WAT     H230225   2.454   7.012   0.689
 9995WAT      O30226   5.138   3.424   2.072
 9995WAT     H130227   5.169   3.423   2.167
 9995WAT     H230228   5.046   3.463   2.068
 9996WAT      O30229   8.494   2.417   8.558
 9996WAT     H130230   8.504   2.341   8.494
 9996WAT     H230231   8.535   2.393   8.646
 9997WAT      O30232   5.562   5.269   3.159
 9997WAT     H130233   5.509   5.335   3.211
 9997WAT     H230234   5.540   5.277   3.062
 9998WAT      O30235   1.231   1.970   6.482
 9998WAT     H130236   1.198   2.014   6.565
 9998WAT     H230237   1.331   1.977   6.478
 9999WAT      O30238   3.811   8.085   2.184
 9999WAT     H130239   3.889   8.068   2.244
 9999WAT     H230240   3.795   8.005   2.127
10000WAT      O30241   2.481   7.506   8.928
10000WAT     H130242   2.565   7.481   8.975
10000WAT     H230243   2.471   7.452   8.844
10001WAT      O30244   4.514   0.270   3.737
10001WAT     H130245   4.458   0.335   3.688
10001WAT     H230246   4.497   0.178   3.703
10002WAT      O30247   7.826   5.507   5.350
10002WAT     H130248   7.883   5.480   5.428
10002WAT     H230249   7.736   5.536   5.382
10003WAT      O30250   8.984   2.840   6.484
10003WAT     H130251   9.023   2.805   6.399
10003WAT     H230252   8.903   2.895   6.465
10004WAT      O30253   7.820   8.275   4.900
10004WAT     H130254   7.812   8.284   4.801
10004WAT     H230255   7.916   8.265   4.926
10005WAT      O30256   0.781   6.404   5.291
10005WAT     H130257   0.688   6.399   5.328
10005WAT     H230258   0.792   6.489   5.240
10006WAT      O30259   1.536   8.900   8.317
10006WAT     H130260   1.582   8.816   8.346
10006WAT     H230261   1.578   8.979   8.362
10007WAT      O30262   6.427   1.675   2.121
10007WAT     H130263   6.476   1.671   2.034
10007WAT     H230264   6.330   1.653   2.106
10008WAT      O30265   3.930   3.174   9.477
10008WAT     H130266   3.848   3.164   9.421
10008WAT     H230267   4.000   3.225   9.427
10009WAT      O30268   8.955   4.311   4.909
10009WAT     H130269   8.970   4.376   4.835
10009WAT     H230270   9.029   4.319   4.976
10010WAT      O30271   2.457   7.393   5.253
10010WAT     H130272   2.522   7.414   5.325
10010WAT     H230273   2.461   7.464   5.182
10011WAT      O30274   7.691   6.925   9.133
10011WAT     H130275   7.689   7.004   9.195
10011WAT     H230276   7.726   6.955   9.043
10012WAT      O30277   9.330   3.530   1.671
10012WAT     H130278   9.265   3.468   1.628
10012WAT     H230279   9.422   3.512   1.638
10013WAT      O30280   0.515   2.410   1.222
10013WAT     H130281   0.521   2.493   1.167
10013WAT     H230282   0.441   2.419   1.289
10014WAT      O30283   9.001   5.873   3.218
10014WAT     H130284   9.079   5.919   3.177
10014WAT     H230285   8.933   5.853   3.148
10015WAT      O30286   8.137   3.192   5.609
10015WAT     H130287   8.096   3.266   5.663
10015WAT     H230288   8.188   3.131   5.670
10016WAT      O30289   3.591   1.019   5.449
10016WAT     H130290   3.537   0.948   5.495
10016WAT     H230291   3.685   0.988   5.437
10017WAT      O30292   5.425   1.785   9.810
10017WAT     H130293   5.377   1.867   9.839
10017WAT     H230294   5.376   1.743   9.734
10018WAT      O30295   8.375   9.801   7.398
10018WAT     H130296   8.422   9.841   7.476
10018WAT     H230297   8.278   9.792   7.418
10019WAT      O30298   7.371   8.346   3.313
10019WAT     H130299   7.273   8.331   3.320
10019WAT     H230300   7.392   8.383   3.222
10020WAT      O30301   8.340   1.708   5.772
10020WAT     H130302   8.278   1.631   5.789
10020WAT     H230303   8.429   1.673   5.745
10021WAT      O30304   3.536   7.753   0.802
10021WAT     H130305   3.588   7.822   0.851
10021WAT     H230306   3.450   7.792   0.770
10022WAT      O30307   9.038   8.998   4.989
10022WAT     H130308   8.957   8.941   4.979
10022WAT     H230309   9.063   9.037   4.900
10023WAT      O30310   2.312   2.903   3.135
10023WAT     H130311   2.212   2.898   3.127
10023WAT     H230312   2.343   2.992   3.103
10024WAT      O30313   8.451   5.839   1.761
10024WAT     H130314   8.430   5.778   1.684
10024WAT     H230315   8.385   5.822   1.835
10025WAT      O30316   1.647   2.340   2.488
10025WAT     H130317   1.708   2.418   2.491
10025WAT     H230318   1.673   2.274   2.559
10026WAT      O30319   9.694   8.374   6.667
10026WAT     H130320   9.790   8.387   6.644
10026WAT     H230321   9.654   8.462   6.693
10027WAT      O30322   4.312   9.701   5.077
10027WAT     H130323   4.302   9.608   5.113
10027WAT     H230324   4.407   9.715   5.049
10028WAT      O30325   3.272   2.935   3.139
10028WAT     H130326   3.184   2.899   3.166
10028WAT     H230327   3.262   2.988   3.054
10029WAT      O30328   7.884   4.419   0.878
10029WAT     H130329   7.936   4.455   0.801
10029WAT     H230330   7.883   4.486   0.952
10030WAT      O30331   2.013   2.830   5.993
10030WAT     H130332   1.982   2.838   6.088
10030WAT     H230333   2.021   2.734   5.968
10031WAT      O30334   6.624   8.116   4.732
10031WAT     H130335   6.590   8.066   4.811
10031WAT     H230336   6.573   8.201   4.721
10032WAT      O30337   2.478   8.495   2.552
10032WAT     H130338   2.547   8.461   2.615
10032WAT     H230339   2.465   8.593   2.566
10033WAT      O30340   2.596   2.288   5.302
10033WAT     H130341   2.642   2.375   5.322
10033WAT     H230342   2.553   2.254   5.386
10034WAT      O30343   0.475   7.044   2.594
10034WAT     H130344   0.492   7.113   2.523
10034WAT     H230345   0.456   7.090   2.681
10035WAT      O30346   1.268   3.092   9.162
10035WAT     H130347   1.298   3.045   9.079
10035WAT     H230348   1.221   3.027   9.222
10036WAT      O30349   0.715   5.622   7.329
10036WAT     H130350   0.645   5.551   7.327
10036WAT     H230351   0.727   5.660   7.238
10037WAT      O30352   8.666   5.991   7.143
10037WAT     H130353   8.594   5.924   7.123
10037WAT     H230354   8.754   5.957   7.110
10038WAT      O30355   5.765   8.974   7.674
10038WAT     H130356   5.801   9.054   7.723
10038WAT     H230357   5.816   8.892   7.702
10039WAT      O30358   6.250   4.765   7.094
10039WAT     H130359   6.192   4.833   7.048
10039WAT     H230360   6.319   4.732   7.030
10040WAT      O30361   8.099   9.680   7.840
10040WAT     H130362   8.068   9.587   7.859
10040WAT     H230363   8.085   9.737   7.922
10041WAT      O30364   2.780   5.743   8.738
10041WAT     H130365   2.720   5.822   8.733
10041WAT     H230366   2.839   5.750   8.819
10042WAT      O30367   2.809   6.783   3.804
10042WAT     H130368   2.735   6.802   3.740
10042WAT     H230369   2.802   6.689   3.837
10043WAT      O30370   8.664   1.284   9.127
10043WAT     H130371   8.639   1.256   9.035
10043WAT     H230372   8.666   1.204   9.187
10044WAT      O30373   1.914   2.461   0.601
10044WAT     H130374   2.000   2.415   0.623
10044WAT     H230375   1.853   2.397   0.553
10045WAT      O30376   7.598   3.361   9.356
10045WAT     H130377   7.630   3.437   9.300
10045WAT     H230378   7.508   3.382   9.394
10046WAT      O30379   0.815   9.027   4.251
10046WAT     H130380   0.846   9.081   4.172
10046WAT     H230381   0.765   9.086   4.314
10047WAT      O30382   9.197   1.029   2.110
10047WAT     H130383   9.180   1.071   2.199
10047WAT     H230384   9.256   0.949   2.122
10048WAT      O30385   7.235   7.321   9.707
10048WAT     H130386   7.203   7.325   9.801
10048WAT     H230387   7.322   7.369   9.700
10049WAT      O30388   1.259   3.018   2.257
10049WAT     H130389   1.197   3.075   2.202
10049WAT     H230390   1.207   2.971   2.328
10050WAT      O30391   9.206   8.373   2.705
10050WAT     H130392   9.253   8.312   2.768
10050WAT     H230393   9.184   8.324   2.620
10051WAT      O30394   1.765   9.761   3.215
10051WAT     H130395   1.727   9.759   3.123
10051WAT     H230396   1.854   9.807   3.214
10052WAT      O30397   2.830   3.569   3.519
10052WAT     H130398   2.767   3.577   3.442
10052WAT     H230399   2.913   3.622   3.500
10053WAT      O30400   2.794   8.274   3.510
10053WAT     H130401   2.808   8.189   3.460
10053WAT     H230402   2.845   8.271   3.596
10054WAT      O30403   1.360   6.180   1.286
10054WAT     H130404   1.426   6.126   1.235
10054WAT     H230405   1.271   6.134   1.287
10055WAT      O30406   7.136   9.218   8.680
10055WAT     H130407   7.117   9.127   8.716
10055WAT     H230408   7.104   9.287   8.746
10056WAT      O30409   2.421   4.600   7.318
10056WAT     H130410   2.344   4.621   7.379
10056WAT     H230411   2.388   4.585   7.225
10057WAT      O30412   7.648   7.037   8.237
10057WAT     H130413   7.702   6.971   8.287
10057WAT     H230414   7.707   7.088   8.174
10058WAT      O30415   4.515   4.827   1.561
10058WAT     H130416   4.580   4.877   1.504
10058WAT     H230417   4.424   4.833   1.522
10059WAT      O30418   9.136   7.307   6.442
10059WAT     H130419   9.130   7.244   6.364
10059WAT     H230420   9.147   7.400   6.409
10060WAT      O30421   4.532   7.871   8.015
10060WAT     H130422   4.520   7.876   7.916
10060WAT     H230423   4.599   7.939   8.043
10061WAT      O30424   9.067   1.516   1.059
10061WAT     H130425   8.984   1.470   1.091
10061WAT     H230426   9.053   1.550   0.966
10062WAT      O30427   4.472   1.153   5.298
10062WAT     H130428   4.534   1.194   5.232
10062WAT     H230429   4.400   1.219   5.322
10063WAT      O30430   6.998   9.591   0.312
10063WAT     H130431   7.072   9.542   0.357
10063WAT     H230432   6.995   9.566   0.215
10064WAT      O30433   1.238   3.162   4.319
10064WAT     H130434   1.254   3.261   4.316
10064WAT     H230435   1.239   3.125   4.227
10065WAT      O30436   2.558   5.198   2.345
10065WAT     H130437   2.621   5.173   2.419
10065WAT     H230438   2.474   5.144   2.354
10066WAT      O30439   5.056   1.152   1.987
10066WAT     H130440   5.063   1.186   1.893
10066WAT     H230441   5.033   1.228   2.048
10067WAT      O30442   9.602   1.616   8.683
10067WAT     H130443   9.508   1.652   8.679
10067WAT     H230444   9.642   1.618   8.591
10068WAT      O30445   9.044   4.618   3.344
10068WAT     H130446   9.084   4.702   3.379
10068WAT     H230447   9.040   4.549   3.416
10069WAT      O30448   9.510   9.820   4.615
10069WAT     H130449   9.502   9.777   4.705
10069WAT     H230450   9.441   9.892   4.607
10070WAT      O30451   9.203   6.503   5.895
10070WAT     H130452   9.239   6.500   5.801
10070WAT     H230453   9.123   6.443   5.902
10071WAT      O30454   1.531   8.917   3.820
10071WAT     H130455   1.566   8.823   3.815
10071WAT     H230456   1.589   8.971   3.881
10072WAT      O30457   9.677   1.481   9.731
10072WAT     H130458   9.747   1.552   9.736
10072WAT     H230459   9.700   1.407   9.795
10073WAT      O30460   1.814   7.424   5.726
10073WAT     H130461   1.734   7.382   5.768
10073WAT     H230462   1.789   7.463   5.638
10074WAT      O30463   1.152   5.775   7.889
10074WAT     H130464   1.229   5.834   7.912
10074WAT     H230465   1.124   5.792   7.794
10075WAT      O30466   5.812   1.100   0.788
10075WAT     H130467   5.881   1.067   0.852
10075WAT     H230468   5.828   1.058   0.698
10076WAT      O30469   3.216   1.809   5.508
10076WAT     H130470   3.236   1.888   5.450
10076WAT     H230471   3.185   1.733   5.451
10077WAT      O30472   6.397   0.499   5.916
10077WAT     H130473   6.388   0.403   5.887
10077WAT     H230474   6.306   0.535   5.937
10078WAT      O30475   4.468   0.278   6.846
10078WAT     H130476   4.400   0.271   6.919
10078WAT     H230477   4.462   0.369   6.804
10079WAT      O30478   3.433   8.996   2.513
10079WAT     H130479   3.361   9.004   2.582
10079WAT     H230480   3.523   9.002   2.558
10080WAT      O30481   8.114   0.923   8.965
10080WAT     H130482   8.054   0.885   9.036
10080WAT     H230483   8.150   1.011   8.997
10081WAT      O30484   0.171   0.656   4.701
10081WAT     H130485   0.173   0.755   4.686
10081WAT     H230486   0.256   0.616   4.667
10082WAT      O30487   5.459   3.857   8.338
10082WAT     H130488   5.406   3.935   8.304
10082WAT     H230489   5.416   3.823   8.422
10083WAT      O30490   9.660   1.209   8.262
10083WAT     H130491   9.612   1.295   8.244
10083WAT     H230492   9.593   1.137   8.284
10084WAT      O30493   5.205   2.674   5.227
10084WAT     H130494   5.151   2.627   5.297
10084WAT     H230495   5.302   2.656   5.241
10085WAT      O30496   6.454   3.757   2.347
10085WAT     H130497   6.421   3.731   2.438
10085WAT     H230498   6.379   3.752   2.282
10086WAT      O30499   9.502   4.608   4.611
10086WAT     H130500   9.515   4.533   4.547
10086WAT     H230501   9.574   4.607   4.680
10087WAT      O30502   2.441   8.539   1.922
10087WAT     H130503   2.410   8.540   2.017
10087WAT     H230504   2.431   8.447   1.884
10088WAT      O30505   8.183   2.633   8.455
10088WAT     H130506   8.242   2.712   8.439
10088WAT     H230507   8.099   2.661   8.502
10089WAT      O30508   4.552   5.918   6.116
10089WAT     H130509   4.469   5.928   6.172
10089WAT     H230510   4.527   5.878   6.028
10090WAT      O30511   6.007   9.261   5.159
10090WAT     H130512   6.038   9.356   5.159
10090WAT     H230513   5.954   9.244   5.075
10091WAT      O30514   2.689   5.731   3.865
10091WAT     H130515   2.629   5.664   3.909
10091WAT     H230516   2.754   5.684   3.805
10092WAT      O30517   1.467   4.946   2.334
10092WAT     H130518   1.420   4.955   2.422
10092WAT     H230519   1.459   5.031   2.283
10093WAT      O30520   4.888   9.791   9.604
10093WAT     H130521   4.818   9.806   9.674
10093WAT     H230522   4.950   9.869   9.601
10094WAT      O30523   0.598   3.987   5.656
10094WAT     H130524   0.566   3.933   5.734
10094WAT     H230525   0.524   3.999   5.591
10095WAT      O30526   9.102   7.717   1.356
10095WAT     H130527   9.096   7.673   1.267
10095WAT     H230528   9.178   7.678   1.408
10096WAT      O30529   1.363   6.164   9.082
10096WAT     H130530   1.312   6.161   9.168
10096WAT     H230531   1.426   6.087   9.078
10097WAT      O30532   6.366   1.737   3.518
10097WAT     H130533   6.327   1.816   3.565
10097WAT     H230534   6.463   1.728   3.542
10098WAT      O30535   6.582   9.140   6.533
10098WAT     H130536   6.589   9.040   6.536
10098WAT     H230537   6.567   9.169   6.438
10099WAT      O30538   9.400   8.257   7.560
10099WAT     H130539   9.399   8.201   7.477
10099WAT     H230540   9.321   8.319   7.559
10100WAT      O30541   6.608   8.508   6.500
10100WAT     H130542   6.573   8.561   6.577
10100WAT     H230543   6.700   8.540   6.477
10101WAT      O30544   3.940   1.571   2.718
10101WAT     H130545   3.962   1.489   2.665
10101WAT     H230546   4.024   1.605   2.762
10102WAT      O30547   7.847   1.992   4.500
10102WAT     H130548   7.850   2.081   4.454
10102WAT     H230549   7.756   1.951   4.487
10103WAT      O30550   1.756   2.354   3.970
10103WAT     H130551   1.791   2.447   3.960
10103WAT     H230552   1.659   2.353   3.949
10104WAT      O30553   4.481   3.797   8.224
10104WAT     H130554   4.398   3.852   8.215
10104WAT     H230555   4.461   3.714   8.275
10105WAT      O30556   1.234   3.819   1.849
10105WAT     H130557   1.328   3.831   1.879
10105WAT     H230558   1.200   3.906   1.811
10106WAT      O30559   1.328   1.971   0.652
10106WAT     H130560   1.424   1.946   0.638
10106WAT     H230561   1.322   2.064   0.688
10107WAT      O30562   1.727   5.664   9.388
10107WAT     H130563   1.678   5.715   9.317
10107WAT     H230564   1.708   5.704   9.477
10108WAT      O30565   8.974   0.534   4.691
10108WAT     H130566   8.912   0.587   4.749
10108WAT     H230567   9.045   0.593   4.654
10109WAT      O30568   6.930   5.067   2.222
10109WAT     H130569   6.946   5.061   2.123
10109WAT     H230570   6.887   5.155   2.244
10110WAT      O30571   3.233   2.747   0.568
10110WAT     H130572   3.301   2.814   0.597
10110WAT     H230573   3.276   2.679   0.509
10111WAT      O30574   5.825   8.293   1.496
10111WAT     H130575   5.790   8.200   1.507
10111WAT     H230576   5.869   8.301   1.407
10112WAT      O30577   0.626   7.228   0.794
10112WAT     H130578   0.565   7.261   0.866
10112WAT     H230579   0.671   7.306   0.751
10113WAT      O30580   4.953   8.722   9.630
10113WAT     H130581   4.943   8.761   9.538
10113WAT     H230582   4.902   8.637   9.635
10114WAT      O30583   2.596   8.479   6.095
10114WAT     H130584   2.693   8.488   6.072
10114WAT     H230585   2.585   8.408   6.164
10115WAT      O30586   2.417   3.711   7.297
10115WAT     H130587   2.327   3.744   7.267
10115WAT     H230588   2.407   3.659   7.382
10116WAT      O30589   4.204   1.851   5.032
10116WAT     H130590   4.276   1.901   5.080
10116WAT     H230591   4.147   1.915   4.982
10117WAT      O30592   9.374   6.095   3.589
10117WAT     H130593   9.359   6.180   3.537
10117WAT     H230594   9.472   6.086   3.608
10118WAT      O30595   4.781   7.829   9.255
10118WAT     H130596   4.748   7.877   9.336
10118WAT     H230597   4.706   7.777   9.215
10119WAT      O30598   7.698   9.578   6.830
10119WAT     H130599   7.757   9.618   6.900
10119WAT     H230600   7.667   9.650   6.768
10120WAT      O30601   4.555   6.718   3.216
10120WAT     H130602   4.519   6.807   3.187
10120WAT     H230603   4.654   6.723   3.224
10121WAT      O30604   5.075   7.240   2.620
10121WAT     H130605   5.116   7.215   2.708
10121WAT     H230606   5.135   7.305   2.573
10122WAT      O30607   0.271   2.790   1.177
10122WAT     H130608   0.209   2.712   1.173
10122WAT     H230609   0.229   2.869   1.133
10123WAT      O30610   9.755   2.246   9.332
10123WAT     H130611   9.835   2.223   9.387
10123WAT     H230612   9.680   2.272   9.392
10124WAT      O30613   3.552   4.853   1.992
10124WAT     H130614   3.474   4.807   2.034
10124WAT     H230615   3.535   4.865   1.894
10125WAT      O30616   7.230   6.562   9.569
10125WAT     H130617   7.202   6.496   9.499
10125WAT     H230618   7.183   6.648   9.554
10126WAT      O30619   0.467   8.805   2.940
10126WAT     H130620   0.464   8.892   2.990
10126WAT     H230621   0.437   8.819   2.846
10127WAT      O30622   5.718   9.257   1.426
10127WAT     H130623   5.680   9.221   1.511
10127WAT     H230624   5.743   9.180   1.366
10128WAT      O30625   1.382   1.272   8.886
10128WAT     H130626   1.303   1.212   8.874
10128WAT     H230627   1.452   1.250   8.817
10129WAT      O30628   4.247   3.422   4.898
10129WAT     H130629   4.241   3.427   4.998
10129WAT     H230630   4.321   3.360   4.872
10130WAT      O30631   0.864   4.876   0.953
10130WAT     H130632   0.963   4.863   0.947
10130WAT     H230633   0.818   4.803   0.901
10131WAT      O30634   4.512   3.309   7.286
10131WAT     H130635   4.543   3.216   7.269
10131WAT     H230636   4.522   3.330   7.384
10132WAT      O30637   2.008   0.283   5.303
10132WAT     H130638   2.012   0.183   5.304
10132WAT     H230639   1.916   0.314   5.326
10133WAT      O30640   6.637   7.840   1.639
10133WAT     H130641   6.549   7.850   1.685
10133WAT     H230642   6.652   7.743   1.617
10134WAT      O30643   6.916   2.042   6.402
10134WAT     H130644   6.887   2.027   6.307
10134WAT     H230645   7.010   2.011   6.414
10135WAT      O30646   4.377   8.043   1.301
10135WAT     H130647   4.453   7.991   1.263
10135WAT     H230648   4.337   8.101   1.230
10136WAT      O30649   6.210   7.767   1.157
10136WAT     H130650   6.202   7.690   1.221
10136WAT     H230651   6.289   7.823   1.183
10137WAT      O30652   0.589   0.907   9.112
10137WAT     H130653   0.570   0.826   9.058
10137WAT     H230654   0.612   0.881   9.206
10138WAT      O30655   0.700   7.903   7.196
10138WAT     H130656   0.605   7.891   7.168
10138WAT     H230657   0.754   7.827   7.162
10139WAT      O30658   2.950   4.675   1.914
10139WAT     H130659   2.958   4.662   1.815
10139WAT     H230660   3.039   4.706   1.950
10140WAT      O30661   5.126   0.262   9.338
10140WAT     H130662   5.090   0.206   9.263
10140WAT     H230663   5.078   0.349   9.340
10141WAT      O30664   4.598   7.485   6.082
10141WAT     H130665   4.692   7.461   6.109
10141WAT     H230666   4.598   7.575   6.039
10142WAT      O30667   9.124   4.679   3.907
10142WAT     H130668   9.124   4.646   4.001
10142WAT     H230669   9.192   4.628   3.854
10143WAT      O30670   8.000   3.101   4.552
10143WAT     H130671   8.076   3.037   4.547
10143WAT     H230672   8.031   3.187   4.594
10144WAT      O30673   6.921   0.827   6.274
10144WAT     H130674   6.945   0.901   6.337
10144WAT     H230675   6.821   0.819   6.269
10145WAT      O30676   2.611   1.887   8.716
10145WAT     H130677   2.646   1.970   8.760
10145WAT     H230678   2.538   1.912   8.652
10146WAT      O30679   7.114   5.357   1.642
10146WAT     H130680   7.052   5.280   1.658
10146WAT     H230681   7.208   5.329   1.663
10147WAT      O30682   0.473   8.478   7.516
10147WAT     H130683   0.494   8.576   7.518
10147WAT     H230684   0.553   8.428   7.484
10148WAT      O30685   2.715   6.912   5.260
10148WAT     H130686   2.695   6.850   5.184
10148WAT     H230687   2.743   7.001   5.225
10149WAT      O30688   3.304   3.164   8.373
10149WAT     H130689   3.327   3.127   8.283
10149WAT     H230690   3.205   3.171   8.382
10150WAT      O30691   4.144   3.607   0.264
10150WAT     H130692   4.097   3.528   0.226
10150WAT     H230693   4.125   3.614   0.362
10151WAT      O30694   2.547   5.509   1.609
10151WAT     H130695   2.509   5.440   1.548
10151WAT     H230696   2.565   5.593   1.557
10152WAT      O30697   2.416   3.037   4.252
10152WAT     H130698   2.355   3.103   4.208
10152WAT     H230699   2.509   3.074   4.254
10153WAT      O30700   7.139   0.621   2.052
10153WAT     H130701   7.236   0.598   2.042
10153WAT     H230702   7.128   0.720   2.061
10154WAT      O30703   3.838   9.744   1.937
10154WAT     H130704   3.871   9.755   2.031
10154WAT     H230705   3.785   9.825   1.911
10155WAT      O30706   9.712   6.051   7.371
10155WAT     H130707   9.689   6.143   7.339
10155WAT     H230708   9.811   6.043   7.382
10156WAT      O30709   0.412   4.434   9.556
10156WAT     H130710   0.458   4.510   9.510
10156WAT     H230711   0.316   4.457   9.570
10157WAT      O30712   5.357   7.761   5.065
10157WAT     H130713   5.320   7.777   4.973
10157WAT     H230714   5.457   7.757   5.060
10158WAT      O30715   8.431   0.940   5.396
10158WAT     H130716   8.393   0.923   5.487
10158WAT     H230717   8.406   1.032   5.366
10159WAT      O30718   0.760   3.485   5.473
10159WAT     H130719   0.765   3.497   5.373
10159WAT     H230720   0.773   3.389   5.496
10160WAT      O30721   2.676   1.521   2.003
10160WAT     H130722   2.597   1.576   1.977
10160WAT     H230723   2.753   1.581   2.022
10161WAT      O30724   0.901   0.998   9.185
10161WAT     H130725   0.994   1.033   9.199
10161WAT     H230726   0.906   0.902   9.159
10162WAT      O30727   2.740   2.734   1.690
10162WAT     H130728   2.685   2.728   1.773
10162WAT     H230729   2.834   2.760   1.713
10163WAT      O30730   8.038   6.535   6.091
10163WAT     H130731   7.967   6.476   6.130
10163WAT     H230732   7.995   6.609   6.039
10164WAT      O30733   9.164   1.428   4.045
10164WAT     H130734   9.168   1.366   3.966
10164WAT     H230735   9.078   1.478   4.043
10165WAT      O30736   8.838   7.101   1.521
10165WAT     H130737   8.796   7.111   1.612
10165WAT     H230738   8.852   7.191   1.480
10166WAT      O30739   6.552   3.369   8.485
10166WAT     H130740   6.478   3.407   8.541
10166WAT     H230741   6.539   3.270   8.474
10167WAT      O30742   3.164   8.098   7.072
10167WAT     H130743   3.246   8.155   7.073
10167WAT     H230744   3.083   8.156   7.085
10168WAT      O30745   6.111   3.132   2.969
10168WAT     H130746   6.095   3.058   3.034
10168WAT     H230747   6.058   3.212   2.996
10169WAT      O30748   9.357   4.196   2.276
10169WAT     H130749   9.396   4.169   2.188
10169WAT     H230750   9.430   4.225   2.337
10170WAT      O30751   0.688   1.616   4.557
10170WAT     H130752   0.683   1.635   4.459
10170WAT     H230753   0.702   1.518   4.571
10171WAT      O30754   6.311   2.866   8.564
10171WAT     H130755   6.339   2.787   8.618
10171WAT     H230756   6.282   2.836   8.473
10172WAT      O30757   7.679   3.840   1.129
10172WAT     H130758   7.612   3.820   1.199
10172WAT     H230759   7.765   3.868   1.171
10173WAT      O30760   8.905   0.170   2.841
10173WAT     H130761   8.941   0.253   2.798
10173WAT     H230762   8.913   0.094   2.777
10174WAT      O30763   4.668   6.444   5.904
10174WAT     H130764   4.626   6.490   5.983
10174WAT     H230765   4.600   6.385   5.860
10175WAT      O30766   3.954   5.005   7.946
10175WAT     H130767   3.860   5.007   7.981
10175WAT     H230768   3.963   5.072   7.872
10176WAT      O30769   1.620   3.316   7.949
10176WAT     H130770   1.635   3.411   7.921
10176WAT     H230771   1.636   3.307   8.047
10177WAT      O30772   8.350   8.058   0.231
10177WAT     H130773   8.423   8.051   0.299
10177WAT     H230774   8.269   8.099   0.273
10178WAT      O30775   5.922   5.222   1.101
10178WAT     H130776   5.930   5.148   1.034
10178WAT     H230777   5.829   5.258   1.102
10179WAT      O30778   3.660   1.408   3.657
10179WAT     H130779   3.670   1.354   3.741
10179WAT     H230780   3.695   1.355   3.579
10180WAT      O30781   4.201   5.777   7.028
10180WAT     H130782   4.194   5.691   6.979
10180WAT     H230783   4.298   5.804   7.035
10181WAT      O30784   2.014   0.321   0.994
10181WAT     H130785   2.096   0.301   0.940
10181WAT     H230786   1.977   0.410   0.967
10182WAT      O30787   9.074   5.617   9.516
10182WAT     H130788   9.025   5.581   9.595
10182WAT     H230789   9.018   5.605   9.434
10183WAT      O30790   4.316   3.283   0.100
10183WAT     H130791   4.249   3.210   0.113
10183WAT     H230792   4.318   3.310   0.003
10184WAT      O30793   6.750   6.225   9.560
10184WAT     H130794   6.807   6.216   9.641
10184WAT     H230795   6.794   6.178   9.483
10185WAT      O30796   2.522   4.696   0.874
10185WAT     H130797   2.534   4.689   0.775
10185WAT     H230798   2.532   4.606   0.915
10186WAT      O30799   7.725   5.691   1.068
10186WAT     H130800   7.797   5.678   1.000
10186WAT     H230801   7.746   5.771   1.125
10187WAT      O30802   3.995   1.648   0.590
10187WAT     H130803   4.081   1.647   0.640
10187WAT     H230804   4.012   1.651   0.492
10188WAT      O30805   5.214   6.098   8.824
10188WAT     H130806   5.236   6.181   8.875
10188WAT     H230807   5.248   6.106   8.730
10189WAT      O30808   7.022   3.614   1.070
10189WAT     H130809   7.014   3.609   0.971
10189WAT     H230810   7.111   3.578   1.098
10190WAT      O30811   3.563   3.921   3.083
10190WAT     H130812   3.662   3.932   3.069
10190WAT     H230813   3.539   3.825   3.077
10191WAT      O30814   8.265   3.422   0.402
10191WAT     H130815   8.325   3.440   0.479
10191WAT     H230816   8.235   3.509   0.362
10192WAT      O30817   7.130   7.022   3.699
10192WAT     H130818   7.091   7.113   3.695
10192WAT     H230819   7.171   7.007   3.789
10193WAT      O30820   0.084   0.752   8.693
10193WAT     H130821   0.171   0.796   8.671
10193WAT     H230822   0.020   0.765   8.618
10194WAT      O30823   9.762   1.788   9.225
10194WAT     H130824   9.688   1.785   9.292
10194WAT     H230825   9.843   1.744   9.262
10195WAT      O30826   5.009   6.509   1.303
10195WAT     H130827   5.051   6.457   1.228
10195WAT     H230828   5.006   6.606   1.277
10196WAT      O30829   0.531   6.890   1.097
10196WAT     H130830   0.541   6.849   1.187
10196WAT     H230831   0.540   6.989   1.104
10197WAT      O30832   1.497   7.732   7.692
10197WAT     H130833   1.524   7.821   7.726
10197WAT     H230834   1.566   7.698   7.628
10198WAT      O30835   4.805   4.881   4.198
10198WAT     H130836   4.708   4.903   4.212
10198WAT     H230837   4.860   4.964   4.210
10199WAT      O30838   5.849   1.273   2.137
10199WAT     H130839   5.841   1.287   2.039
10199WAT     H230840   5.761   1.290   2.182
10200WAT      O30841   4.921   0.502   6.115
10200WAT     H130842   4.898   0.594   6.085
10200WAT     H230843   5.011   0.477   6.079
10201WAT      O30844   2.610   3.842   7.197
10201WAT     H130845   2.661   3.876   7.276
10201WAT     H230846   2.524   3.801   7.228
10202WAT      O30847   1.811   2.502   8.009
10202WAT     H130848   1.888   2.491   8.073
10202WAT     H230849   1.834   2.459   7.922
10203WAT      O30850   5.269   5.846   7.950
10203WAT     H130851   5.184   5.797   7.969
10203WAT     H230852   5.267   5.883   7.857
10204WAT      O30853   0.066   2.693   2.783
10204WAT     H130854   0.083   2.767   2.717
10204WAT     H230855   0.095   2.723   2.874
10205WAT      O30856   8.478   1.240   9.735
10205WAT     H130857   8.456   1.149   9.770
10205WAT     H230858   8.408   1.269   9.670
10206WAT      O30859   3.832   8.545   8.978
10206WAT     H130860   3.740   8.515   8.999
10206WAT     H230861   3.835   8.582   8.884
10207WAT      O30862   7.471   3.419   1.611
10207WAT     H130863   7.538   3.384   1.544
10207WAT     H230864   7.498   3.389   1.702
10208WAT      O30865   7.601   5.511   9.166
10208WAT     H130866   7.549   5.460   9.097
10208WAT     H230867   7.624   5.601   9.129
10209WAT      O30868   6.033   8.066   6.977
10209WAT     H130869   6.072   8.042   7.066
10209WAT     H230870   6.091   8.029   6.904
10210WAT      O30871   1.704   4.355   3.105
10210WAT     H130872   1.684   4.396   3.194
10210WAT     H230873   1.619   4.339   3.055
10211WAT      O30874   2.103   5.172   9.844
10211WAT     H130875   2.013   5.133   9.864
10211WAT     H230876   2.163   5.159   9.923
10212WAT      O30877   3.176   0.202   0.322
10212WAT     H130878   3.135   0.135   0.384
10212WAT     H230879   3.155   0.177   0.228
10213WAT      O30880   7.212   7.231   2.507
10213WAT     H130881   7.265   7.250   2.425
10213WAT     H230882   7.133   7.292   2.511
10214WAT      O30883   3.012   8.193   1.991
10214WAT     H130884   2.935   8.225   1.936
10214WAT     H230885   2.983   8.179   2.085
10215WAT      O30886   9.114   9.645   8.135
10215WAT     H130887   9.088   9.726   8.188
10215WAT     H230888   9.103   9.563   8.192
10216WAT      O30889   2.598   4.929   6.666
10216WAT     H130890   2.617   5.026   6.683
10216WAT     H230891   2.628   4.904   6.574
10217WAT      O30892   5.043   0.617   3.556
10217WAT     H130893   4.957   0.586   3.516
10217WAT     H230894   5.046   0.591   3.653
10218WAT      O30895   5.075   5.798   9.397
10218WAT     H130896   5.078   5.818   9.495
10218WAT     H230897   5.096   5.881   9.346
10219WAT      O30898   0.455   2.625   8.103
10219WAT     H130899   0.384   2.599   8.168
10219WAT     H230900   0.435   2.716   8.066
10220WAT      O30901   4.182   5.312   4.486
10220WAT     H130902   4.216   5.261   4.407
10220WAT     H230903   4.216   5.406   4.482
10221WAT      O30904   7.902   1.881   7.650
10221WAT     H130905   7.862   1.913   7.736
10221WAT     H230906   7.840   1.904   7.574
10222WAT      O30907   7.933   2.746   8.565
10222WAT     H130908   7.944   2.843   8.587
10222WAT     H230909   7.883   2.737   8.479
10223WAT      O30910   7.498   6.195   2.412
10223WAT     H130911   7.579   6.245   2.442
10223WAT     H230912   7.520   6.098   2.406
10224WAT      O30913   4.148   2.579   3.682
10224WAT     H130914   4.070   2.597   3.622
10224WAT     H230915   4.232   2.610   3.638
10225WAT      O30916   0.778   4.232   1.833
10225WAT     H130917   0.740   4.209   1.744
10225WAT     H230918   0.830   4.317   1.826
10226WAT      O30919   9.109   8.847   6.158
10226WAT     H130920   9.042   8.870   6.227
10226WAT     H230921   9.182   8.915   6.158
10227WAT      O30922   0.606   4.967   0.201
10227WAT     H130923   0.603   5.015   0.113
10227WAT     H230924   0.696   4.981   0.243
10228WAT      O30925   4.825   2.890   0.894
10228WAT     H130926   4.818   2.984   0.860
10228WAT     H230927   4.829   2.891   0.994
10229WAT      O30928   2.915   5.766   9.009
10229WAT     H130929   2.890   5.852   9.054
10229WAT     H230930   2.989   5.722   9.060
10230WAT      O30931   9.322   2.385   9.567
10230WAT     H130932   9.323   2.286   9.575
10230WAT     H230933   9.395   2.424   9.622
10231WAT      O30934   9.164   7.019   7.107
10231WAT     H130935   9.147   7.032   7.205
10231WAT     H230936   9.255   7.053   7.084
10232WAT      O30937   0.220   3.633   1.342
10232WAT     H130938   0.203   3.535   1.356
10232WAT     H230939   0.235   3.651   1.244
10233WAT      O30940   1.166   7.410   5.163
10233WAT     H130941   1.141   7.365   5.249
10233WAT     H230942   1.083   7.445   5.119
10234WAT      O30943   0.553   2.982   1.002
10234WAT     H130944   0.611   2.910   1.041
10234WAT     H230945   0.606   3.037   0.938
10235WAT      O30946   2.375   8.103   4.730
10235WAT     H130947   2.385   8.007   4.708
10235WAT     H230948   2.386   8.116   4.829
10236WAT      O30949   7.013   5.425   1.352
10236WAT     H130950   7.050   5.439   1.443
10236WAT     H230951   6.943   5.493   1.333
10237WAT      O30952   9.096   8.852   6.495
10237WAT     H130953   9.173   8.842   6.432
10237WAT     H230954   9.021   8.900   6.449
10238WAT      O30955   7.276   8.575   0.620
10238WAT     H130956   7.348   8.526   0.571
10238WAT     H230957   7.206   8.604   0.555
10239WAT      O30958   5.169   7.294   4.475
10239WAT     H130959   5.099   7.354   4.513
10239WAT     H230960   5.130   7.239   4.401
10240WAT      O30961   6.584   6.133   0.990
10240WAT     H130962   6.602   6.053   0.932
10240WAT     H230963   6.607   6.111   1.085
10241WAT      O30964   0.837   9.704   7.209
10241WAT     H130965   0.759   9.764   7.225
10241WAT     H230966   0.921   9.751   7.238
10242WAT      O30967   3.322   8.336   4.573
10242WAT     H130968   3.343   8.369   4.665
10242WAT     H230969   3.227   8.304   4.570
10243WAT      O30970   9.758   3.251   0.859
10243WAT     H130971   9.783   3.232   0.954
10243WAT     H230972   9.689   3.185   0.829
10244WAT      O30973   5.265   2.298   9.460
10244WAT     H130974   5.317   2.372   9.501
10244WAT     H230975   5.259   2.313   9.361
10245WAT      O30976   1.323   0.122   4.796
10245WAT     H130977   1.269   0.196   4.838
10245WAT     H230978   1.325   0.043   4.857
10246WAT      O30979   2.319   0.344   2.669
10246WAT     H130980   2.372   0.371   2.749
10246WAT     H230981   2.359   0.263   2.628
10247WAT      O30982   6.498   9.168   7.966
10247WAT     H130983   6.522   9.099   7.898
10247WAT     H230984   6.543   9.145   8.053
10248WAT      O30985   2.050   7.516   7.191
10248WAT     H130986   1.996   7.439   7.223
10248WAT     H230987   2.064   7.509   7.092
10249WAT      O30988   8.563   8.239   4.273
10249WAT     H130989   8.607   8.301   4.209
10249WAT     H230990   8.530   8.158   4.225
10250WAT      O30991   0.370   5.081   7.435
10250WAT     H130992   0.407   5.076   7.342
10250WAT     H230993   0.433   5.037   7.498
10251WAT      O30994   5.877   8.810   7.005
10251WAT     H130995   5.848   8.725   6.960
10251WAT     H230996   5.860   8.803   7.103
10252WAT      O30997   5.982   1.377   1.340
10252WAT     H130998   6.075   1.352   1.312
10252WAT     H230999   5.916   1.318   1.294
10253WAT      O31000   8.264   8.812   2.231
10253WAT     H131001   8.226   8.876   2.164
10253WAT     H231002   8.320   8.863   2.296
10254WAT      O31003   4.005   3.320   4.751
10254WAT     H131004   4.096   3.278   4.756
10254WAT     H231005   3.980   3.334   4.656
10255WAT      O31006   5.629   9.229   1.658
10255WAT     H131007   5.708   9.246   1.718
10255WAT     H231008   5.566   9.165   1.703
10256WAT      O31009   7.061   6.861   8.143
10256WAT     H131010   7.015   6.895   8.061
10256WAT     H231011   7.154   6.832   8.118
10257WAT      O31012   8.245   8.233   1.521
10257WAT     H131013   8.307   8.262   1.593
10257WAT     H231014   8.275   8.271   1.433
10258WAT      O31015   0.979   7.831   3.913
10258WAT     H131016   0.992   7.745   3.963
10258WAT     H231017   1.003   7.817   3.817
10259WAT      O31018   6.877   2.666   2.244
10259WAT     H131019   6.885   2.760   2.209
10259WAT     H231020   6.783   2.634   2.232
10260WAT      O31021   9.287   7.976   7.477
10260WAT     H131022   9.271   7.994   7.380
10260WAT     H231023   9.260   8.056   7.530
10261WAT      O31024   3.144   6.932   0.751
10261WAT     H131025   3.213   6.954   0.820
10261WAT     H231026   3.170   6.848   0.703
10262WAT      O31027   3.567   2.602   5.917
10262WAT     H131028   3.491   2.603   5.852
10262WAT     H231029   3.542   2.656   5.998
10263WAT      O31030   1.823   5.692   8.010
10263WAT     H131031   1.756   5.755   8.051
10263WAT     H231032   1.775   5.628   7.949
10264WAT      O31033   2.924   4.430   2.754
10264WAT     H131034   2.904   4.510   2.697
10264WAT     H231035   2.851   4.363   2.745
10265WAT      O31036   1.870   3.376   8.722
10265WAT     H131037   1.778   3.364   8.758
10265WAT     H231038   1.901   3.292   8.678
10266WAT      O31039   7.372   6.105   3.337
10266WAT     H131040   7.276   6.115   3.361
10266WAT     H231041   7.430   6.136   3.413
10267WAT      O31042   9.305   9.346   6.727
10267WAT     H131043   9.284   9.409   6.652
10267WAT     H231044   9.273   9.254   6.703
10268WAT      O31045   3.736   0.184   2.829
10268WAT     H131046   3.757   0.240   2.909
10268WAT     H231047   3.764   0.232   2.746
10269WAT      O31048   0.727   2.600   4.183
10269WAT     H131049   0.659   2.616   4.113
10269WAT     H231050   0.694   2.530   4.247
10270WAT      O31051   9.295   5.726   9.566
10270WAT     H131052   9.204   5.693   9.542
10270WAT     H231053   9.324   5.684   9.652
10271WAT      O31054   5.883   3.376   8.023
10271WAT     H131055   5.978   3.391   8.054
10271WAT     H231056   5.849   3.459   7.980
10272WAT      O31057   6.441   1.100   3.450
10272WAT     H131058   6.479   1.105   3.542
10272WAT     H231059   6.490   1.163   3.390
10273WAT      O31060   2.418   3.088   7.036
10273WAT     H131061   2.354   3.042   7.097
10273WAT     H231062   2.469   3.158   7.087
10274WAT      O31063   9.772   9.561   7.670
10274WAT     H131064   9.817   9.498   7.608
10274WAT     H231065   9.772   9.653   7.630
10275WAT      O31066   4.818   0.155   2.238
10275WAT     H131067   4.879   0.228   2.209
10275WAT     H231068   4.818   0.148   2.338
10276WAT      O31069   7.297   3.618   4.145
10276WAT     H131070   7.362   3.552   4.184
10276WAT     H231071   7.284   3.598   4.048
10277WAT      O31072   6.741   3.775   9.723
10277WAT     H131073   6.654   3.741   9.759
10277WAT     H231074   6.803   3.698   9.707
10278WAT      O31075   8.322   3.992   5.688
10278WAT     H131076   8.333   4.091   5.696
10278WAT     H231077   8.321   3.967   5.591
10279WAT      O31078   9.635   2.646   6.470
10279WAT     H131079   9.604   2.739   6.489
10279WAT     H231080   9.563   2.596   6.422
10280WAT      O31081   6.944   3.263   0.247
10280WAT     H131082   6.853   3.231   0.277
10280WAT     H231083   6.980   3.199   0.178
10281WAT      O31084   0.282   6.411   5.151
10281WAT     H131085   0.286   6.496   5.202
10281WAT     H231086   0.300   6.334   5.212
10282WAT      O31087   4.127   3.807   1.984
10282WAT     H131088   4.142   3.882   1.920
10282WAT     H231089   4.096   3.726   1.933
10283WAT      O31090   2.395   2.180   0.921
10283WAT     H131091   2.458   2.236   0.975
10283WAT     H231092   2.329   2.136   0.983
10284WAT      O31093   9.203   7.784   7.190
10284WAT     H131094   9.136   7.729   7.240
10284WAT     H231095   9.226   7.739   7.104
10285WAT      O31096   5.991   9.598   5.841
10285WAT     H131097   6.005   9.567   5.747
10285WAT     H231098   6.038   9.536   5.904
10286WAT      O31099   5.153   7.983   3.999
10286WAT     H131100   5.209   8.065   3.995
10286WAT     H231101   5.101   7.982   4.084
10287WAT      O31102   1.963   4.162   2.722
10287WAT     H131103   1.986   4.247   2.675
10287WAT     H231104   1.944   4.090   2.655
10288WAT      O31105   6.481   7.992   8.350
10288WAT     H131106   6.430   8.035   8.276
10288WAT     H231107   6.417   7.947   8.412
10289WAT      O31108   0.266   8.770   2.394
10289WAT     H131109   0.203   8.770   2.316
10289WAT     H231110   0.333   8.697   2.383
10290WAT      O31111   3.670   7.445   4.025
10290WAT     H131112   3.686   7.445   4.124
10290WAT     H231113   3.584   7.493   4.005
10291WAT      O31114   0.403   0.162   7.276
10291WAT     H131115   0.410   0.257   7.248
10291WAT     H231116   0.363   0.157   7.368
10292WAT      O31117   0.297   2.967   2.281
10292WAT     H131118   0.315   3.036   2.351
10292WAT     H231119   0.199   2.964   2.261
10293WAT      O31120   2.557   4.519   8.294
10293WAT     H131121   2.535   4.535   8.198
10293WAT     H231122   2.550   4.604   8.345
10294WAT      O31123   8.599   7.852   2.741
10294WAT     H131124   8.652   7.874   2.658
10294WAT     H231125   8.662   7.827   2.814
10295WAT      O31126   0.111   3.149   9.009
10295WAT     H131127   0.140   3.138   9.104
10295WAT     H231128   0.062   3.235   8.999
10296WAT      O31129   6.051   5.969   8.536
10296WAT     H131130   6.077   6.024   8.457
10296WAT     H231131   6.090   5.878   8.528
10297WAT      O31132   4.021   0.443   0.995
10297WAT     H131133   3.971   0.381   0.935
10297WAT     H231134   4.119   0.436   0.977
10298WAT      O31135   7.990   6.449   6.477
10298WAT     H131136   8.086   6.423   6.491
10298WAT     H231137   7.955   6.404   6.394
10299WAT      O31138   4.159   3.514   3.575
10299WAT     H131139   4.173   3.517   3.476
10299WAT     H231140   4.191   3.426   3.611
10300WAT      O31141   9.695   2.856   3.797
10300WAT     H131142   9.736   2.811   3.718
10300WAT     H231143   9.763   2.866   3.869
10301WAT      O31144   2.412   7.749   8.949
10301WAT     H131145   2.442   7.654   8.942
10301WAT     H231146   2.402   7.788   8.857
10302WAT      O31147   1.574   0.995   2.047
10302WAT     H131148   1.627   0.923   2.002
10302WAT     H231149   1.627   1.080   2.047
10303WAT      O31150   8.825   2.388   3.106
10303WAT     H131151   8.758   2.457   3.081
10303WAT     H231152   8.779   2.302   3.129
10304WAT      O31153   3.797   9.287   2.020
10304WAT     H131154   3.744   9.363   1.984
10304WAT     H231155   3.811   9.299   2.118
10305WAT      O31156   3.828   6.413   3.864
10305WAT     H131157   3.822   6.415   3.964
10305WAT     H231158   3.847   6.505   3.830
10306WAT      O31159   4.567   1.805   3.346
10306WAT     H131160   4.540   1.864   3.422
10306WAT     H231161   4.645   1.845   3.298
10307WAT      O31162   3.946   8.221   9.714
10307WAT     H131163   3.901   8.285   9.776
10307WAT     H231164   3.993   8.151   9.768
10308WAT      O31165   1.342   8.525   0.356
10308WAT     H131166   1.362   8.430   0.334
10308WAT     H231167   1.256   8.530   0.407
10309WAT      O31168   4.655   3.648   1.429
10309WAT     H131169   4.662   3.656   1.330
10309WAT     H231170   4.699   3.727   1.472
10310WAT      O31171   4.419   8.896   8.988
10310WAT     H131172   4.443   8.946   8.904
10310WAT     H231173   4.402   8.962   9.062
10311WAT      O31174   1.028   7.682   5.701
10311WAT     H131175   1.023   7.686   5.601
10311WAT     H231176   0.983   7.762   5.740
10312WAT      O31177   7.850   5.587   6.680
10312WAT     H131178   7.928   5.648   6.696
10312WAT     H231179   7.791   5.586   6.761
10313WAT      O31180   5.003   3.296   8.049
10313WAT     H131181   4.909   3.270   8.028
10313WAT     H231182   5.007   3.392   8.075
10314WAT      O31183   6.710   8.978   3.313
10314WAT     H131184   6.810   8.977   3.307
10314WAT     H231185   6.672   8.966   3.221
10315WAT      O31186   7.357   1.768   2.987
10315WAT     H131187   7.367   1.673   2.958
10315WAT     H231188   7.275   1.777   3.043
10316WAT      O31189   4.695   1.154   2.053
10316WAT     H131190   4.623   1.173   2.119
10316WAT     H231191   4.746   1.073   2.082
10317WAT      O31192   3.135   0.054   5.364
10317WAT     H131193   3.108   0.111   5.286
10317WAT     H231194   3.083   0.081   5.445
10318WAT      O31195   1.122   2.133   4.861
10318WAT     H131196   1.074   2.146   4.774
10318WAT     H231197   1.107   2.039   4.893
10319WAT      O31198   5.520   0.112   0.108
10319WAT     H131199   5.554   0.045   0.174
10319WAT     H231200   5.424   0.094   0.087
10320WAT      O31201   5.981   6.154   7.845
10320WAT     H131202   5.957   6.058   7.858
10320WAT     H231203   5.952   6.183   7.754
10321WAT      O31204   2.907   0.977   5.578
10321WAT     H131205   2.858   0.971   5.491
10321WAT     H231206   2.991   1.029   5.564
10322WAT      O31207   8.595   2.466   5.208
10322WAT     H131208   8.685   2.508   5.200
10322WAT     H231209   8.528   2.536   5.232
10323WAT      O31210   0.013   4.215   0.110
10323WAT     H131211  -0.050   4.291   0.096
10323WAT     H231212   0.055   4.190   0.023
10324WAT      O31213   0.593   6.797   2.460
10324WAT     H131214   0.553   6.868   2.518
10324WAT     H231215   0.656   6.838   2.395
10325WAT      O31216   4.997   7.511   1.845
10325WAT     H131217   5.050   7.457   1.779
10325WAT     H231218   4.915   7.547   1.800
10326WAT      O31219   0.344   5.670   4.413
10326WAT     H131220   0.372   5.591   4.358
10326WAT     H231221   0.351   5.647   4.510
10327WAT      O31222   2.789   6.522   3.493
10327WAT     H131223   2.797   6.424   3.472
10327WAT     H231224   2.743   6.533   3.581
10328WAT      O31225   5.080   0.405   2.971
10328WAT     H131226   5.048   0.344   2.898
10328WAT     H231227   5.050   0.499   2.952
10329WAT      O31228   9.700   4.435   2.616
10329WAT     H131229   9.679   4.509   2.679
10329WAT     H231230   9.729   4.354   2.667
10330WAT      O31231   8.039   7.352   5.170
10330WAT     H131232   7.995   7.263   5.166
10330WAT     H231233   8.024   7.394   5.259
10331WAT      O31234   1.742   6.455   0.496
10331WAT     H131235   1.842   6.451   0.502
10331WAT     H231236   1.704   6.483   0.584
10332WAT      O31237   7.341   1.687   2.324
10332WAT     H131238   7.318   1.782   2.346
10332WAT     H231239   7.325   1.629   2.404
10333WAT      O31240   5.173   7.608   3.271
10333WAT     H131241   5.125   7.618   3.183
10333WAT     H231242   5.110   7.628   3.346
10334WAT      O31243   2.714   8.207   0.641
10334WAT     H131244   2.669   8.277   0.696
10334WAT     H231245   2.728   8.241   0.548
10335WAT      O31246   8.934   9.231   6.406
10335WAT     H131247   8.942   9.224   6.505
10335WAT     H231248   8.906   9.324   6.380
10336WAT      O31249   6.645   9.819   8.461
10336WAT     H131250   6.730   9.784   8.421
10336WAT     H231251   6.602   9.747   8.515
10337WAT      O31252   9.084   3.921   1.806
10337WAT     H131253   9.179   3.922   1.836
10337WAT     H231254   9.056   3.827   1.786
10338WAT      O31255   1.649   1.501   0.939
10338WAT     H131256   1.633   1.536   0.846
10338WAT     H231257   1.717   1.428   0.935
10339WAT      O31258   2.863   7.797   9.455
10339WAT     H131259   2.910   7.710   9.442
10339WAT     H231260   2.845   7.840   9.367
10340WAT      O31261   2.239   2.950   2.373
10340WAT     H131262   2.261   2.887   2.298
10340WAT     H231263   2.161   2.915   2.424
10341WAT      O31264   4.602   2.354   0.642
10341WAT     H131265   4.632   2.261   0.666
10341WAT     H231266   4.519   2.349   0.588
10342WAT      O31267   5.952   8.705   6.041
10342WAT     H131268   5.994   8.718   6.131
10342WAT     H231269   5.853   8.717   6.048
10343WAT      O31270   9.704   9.210   3.238
10343WAT     H131271   9.733   9.131   3.291
10343WAT     H231272   9.676   9.181   3.146
10344WAT      O31273   5.660   4.555   2.051
10344WAT     H131274   5.571   4.545   2.095
10344WAT     H231275   5.699   4.464   2.033
10345WAT      O31276   6.889   6.999   2.691
10345WAT     H131277   6.803   7.048   2.706
10345WAT     H231278   6.965   7.057   2.722
10346WAT      O31279   0.934   8.948   8.289
10346WAT     H131280   0.847   8.914   8.325
10346WAT     H231281   1.010   8.908   8.340
10347WAT      O31282   1.217   2.796   0.980
10347WAT     H131283   1.189   2.806   1.076
10347WAT     H231284   1.317   2.805   0.974
10348WAT      O31285   0.976   7.033   8.975
10348WAT     H131286   1.034   7.113   8.960
10348WAT     H231287   0.911   7.024   8.900
10349WAT      O31288   7.170   7.262   0.064
10349WAT     H131289   7.267   7.239   0.072
10349WAT     H231290   7.121   7.184   0.024
10350WAT      O31291   5.386   9.001   3.854
10350WAT     H131292   5.450   9.075   3.838
10350WAT     H231293   5.341   8.976   3.768
10351WAT      O31294   6.146   5.772   7.340
10351WAT     H131295   6.213   5.723   7.396
10351WAT     H231296   6.142   5.868   7.368
10352WAT      O31297   8.243   2.269   5.580
10352WAT     H131298   8.302   2.212   5.523
10352WAT     H231299   8.272   2.365   5.572
10353WAT      O31300   9.662   1.618   2.669
10353WAT     H131301   9.738   1.655   2.614
10353WAT     H231302   9.658   1.665   2.757
10354WAT      O31303   1.041   7.587   2.113
10354WAT     H131304   0.960   7.575   2.171
10354WAT     H231305   1.100   7.657   2.153
10355WAT      O31306   9.642   8.222   3.780
10355WAT     H131307   9.683   8.234   3.871
10355WAT     H231308   9.557   8.273   3.775
10356WAT      O31309   7.507   9.621   9.802
10356WAT     H131310   7.426   9.670   9.769
10356WAT     H231311   7.588   9.652   9.753
10357WAT      O31312   3.030   2.990   5.630
10357WAT     H131313   3.020   2.961   5.726
10357WAT     H231314   2.940   2.989   5.586
10358WAT      O31315   9.779   7.135   6.314
10358WAT     H131316   9.681   7.151   6.312
10358WAT     H231317   9.799   7.044   6.277
10359WAT      O31318   1.493   0.530   9.653
10359WAT     H131319   1.586   0.555   9.627
10359WAT     H231320   1.453   0.472   9.581
10360WAT      O31321   5.565   8.861   8.753
10360WAT     H131322   5.549   8.902   8.842
10360WAT     H231323   5.537   8.765   8.755
10361WAT      O31324   4.205   5.131   2.504
10361WAT     H131325   4.125   5.140   2.444
10361WAT     H231326   4.249   5.043   2.487
10362WAT      O31327   6.024   0.778   3.839
10362WAT     H131328   6.045   0.682   3.860
10362WAT     H231329   6.041   0.795   3.742
10363WAT      O31330   1.753   6.957   7.685
10363WAT     H131331   1.659   6.963   7.718
10363WAT     H231332   1.760   7.003   7.596
10364WAT      O31333   4.543   3.331   5.235
10364WAT     H131334   4.583   3.327   5.143
10364WAT     H231335   4.512   3.424   5.254
10365WAT      O31336   7.284   2.114   0.436
10365WAT     H131337   7.323   2.056   0.364
10365WAT     H231338   7.346   2.115   0.514
10366WAT      O31339   7.450   1.589   0.480
10366WAT     H131340   7.534   1.553   0.519
10366WAT     H231341   7.389   1.619   0.553
10367WAT      O31342   6.214   6.381   0.260
10367WAT     H131343   6.259   6.434   0.331
10367WAT     H231344   6.254   6.404   0.171
10368WAT      O31345   0.429   3.392   9.626
10368WAT     H131346   0.414   3.449   9.545
10368WAT     H231347   0.367   3.422   9.699
10369WAT      O31348   5.572   4.600   6.916
10369WAT     H131349   5.542   4.525   6.976
10369WAT     H231350   5.548   4.579   6.821
10370WAT      O31351   4.692   2.242   3.147
10370WAT     H131352   4.743   2.315   3.194
10370WAT     H231353   4.756   2.172   3.114
10371WAT      O31354   5.237   5.697   1.274
10371WAT     H131355   5.318   5.756   1.269
10371WAT     H231356   5.205   5.691   1.368
10372WAT      O31357   6.722   4.262   6.466
10372WAT     H131358   6.655   4.189   6.456
10372WAT     H231359   6.767   4.280   6.379
10373WAT      O31360   1.684   9.241   7.205
10373WAT     H131361   1.610   9.175   7.195
10373WAT     H231362   1.771   9.194   7.209
10374WAT      O31363   9.044   3.798   6.085
10374WAT     H131364   9.086   3.887   6.097
10374WAT     H231365   8.955   3.808   6.040
10375WAT      O31366   9.788   3.399   5.169
10375WAT     H131367   9.724   3.376   5.242
10375WAT     H231368   9.738   3.424   5.087
10376WAT      O31369   1.801   4.743   4.314
10376WAT     H131370   1.820   4.772   4.408
10376WAT     H231371   1.759   4.652   4.315
10377WAT      O31372   9.084   0.457   3.884
10377WAT     H131373   9.026   0.499   3.954
10377WAT     H231374   9.093   0.520   3.807
10378WAT      O31375   0.086   2.286   4.064
10378WAT     H131376   0.069   2.383   4.048
10378WAT     H231377   0.069   2.235   3.980
10379WAT      O31378   3.001   2.477   0.830
10379WAT     H131379   3.011   2.562   0.779
10379WAT     H231380   3.090   2.431   0.836
10380WAT      O31381   6.308   1.590   0.781
10380WAT     H131382   6.278   1.685   0.785
10380WAT     H231383   6.228   1.530   0.787
10381WAT      O31384   3.995   5.645   7.213
10381WAT     H131385   3.954   5.560   7.244
10381WAT     H231386   4.067   5.673   7.276
10382WAT      O31387   3.250   7.796   1.926
10382WAT     H131388   3.281   7.720   1.982
10382WAT     H231389   3.251   7.769   1.829
10383WAT      O31390   7.813   6.244   0.435
10383WAT     H131391   7.832   6.294   0.351
10383WAT     H231392   7.743   6.175   0.417
10384WAT      O31393   1.025   7.349   2.563
10384WAT     H131394   1.042   7.256   2.598
10384WAT     H231395   0.929   7.358   2.538
10385WAT      O31396   7.173   0.354   5.601
10385WAT     H131397   7.266   0.325   5.624
10385WAT     H231398   7.129   0.284   5.544
10386WAT      O31399   8.285   5.870   4.122
10386WAT     H131400   8.190   5.863   4.151
10386WAT     H231401   8.331   5.939   4.178
10387WAT      O31402   8.014   1.891   6.786
10387WAT     H131403   8.077   1.907   6.710
10387WAT     H231404   8.065   1.892   6.872
10388WAT      O31405   8.143   2.020   4.868
10388WAT     H131406   8.172   2.108   4.906
10388WAT     H231407   8.050   2.029   4.832
10389WAT      O31408   8.581   9.663   8.272
10389WAT     H131409   8.535   9.652   8.184
10389WAT     H231410   8.670   9.617   8.269
10390WAT      O31411   0.823   2.137   4.117
10390WAT     H131412   0.737   2.136   4.167
10390WAT     H231413   0.837   2.227   4.077
10391WAT      O31414   7.704   6.925   4.284
10391WAT     H131415   7.645   6.846   4.267
10391WAT     H231416   7.780   6.899   4.344
10392WAT      O31417   3.344   9.099   4.774
10392WAT     H131418   3.426   9.045   4.755
10392WAT     H231419   3.364   9.196   4.763
10393WAT      O31420   6.632   9.367   8.714
10393WAT     H131421   6.632   9.368   8.814
10393WAT     H231422   6.726   9.372   8.681
10394WAT      O31423   4.561   2.913   2.873
10394WAT     H131424   4.489   2.851   2.841
10394WAT     H231425   4.570   2.989   2.809
10395WAT      O31426   8.738   9.072   8.571
10395WAT     H131427   8.735   9.005   8.645
10395WAT     H231428   8.737   9.164   8.610
10396WAT      O31429   4.989   5.735   7.655
10396WAT     H131430   5.031   5.803   7.595
10396WAT     H231431   4.986   5.769   7.748
10397WAT      O31432   7.057   0.963   4.856
10397WAT     H131433   7.029   1.049   4.898
10397WAT     H231434   7.047   0.970   4.757
10398WAT      O31435   4.183   6.706   8.633
10398WAT     H131436   4.186   6.625   8.575
10398WAT     H231437   4.145   6.681   8.722
10399WAT      O31438   2.392   8.040   0.320
10399WAT     H131439   2.440   8.032   0.408
10399WAT     H231440   2.438   8.107   0.262
10400WAT      O31441   3.031   0.909   7.417
10400WAT     H131442   3.089   0.831   7.396
10400WAT     H231443   3.063   0.953   7.501
10401WAT      O31444   1.505   8.798   5.296
10401WAT     H131445   1.423   8.855   5.288
10401WAT     H231446   1.527   8.785   5.393
10402WAT      O31447   7.057   5.130   0.969
10402WAT     H131448   7.024   5.161   1.058
10402WAT     H231449   7.002   5.053   0.938
10403WAT      O31450   1.449   9.275   1.207
10403WAT     H131451   1.386   9.267   1.130
10403WAT     H231452   1.525   9.335   1.181
10404WAT      O31453   5.480   2.805   8.843
10404WAT     H131454   5.546   2.748   8.793
10404WAT     H231455   5.528   2.852   8.918
10405WAT      O31456   2.288   8.440   9.825
10405WAT     H131457   2.235   8.480   9.751
10405WAT     H231458   2.381   8.421   9.794
10406WAT      O31459   6.228   4.095   8.085
10406WAT     H131460   6.252   4.189   8.062
10406WAT     H231461   6.273   4.033   8.020
10407WAT      O31462   7.017   8.504   6.884
10407WAT     H131463   7.001   8.469   6.792
10407WAT     H231464   7.112   8.533   6.893
10408WAT      O31465   6.687   4.081   4.395
10408WAT     H131466   6.635   4.063   4.312
10408WAT     H231467   6.721   4.175   4.394
10409WAT      O31468   7.936   3.949   9.798
10409WAT     H131469   8.004   3.928   9.728
10409WAT     H231470   7.848   3.970   9.755
10410WAT      O31471   2.275   0.767   2.790
10410WAT     H131472   2.358   0.815   2.761
10410WAT     H231473   2.250   0.699   2.722
10411WAT      O31474   8.891   4.880   4.194
10411WAT     H131475   8.924   4.794   4.154
10411WAT     H231476   8.864   4.942   4.121
10412WAT      O31477   0.381   0.315   7.556
10412WAT     H131478   0.320   0.238   7.538
10412WAT     H231479   0.339   0.375   7.625
10413WAT      O31480   0.263   4.827   7.293
10413WAT     H131481   0.192   4.883   7.250
10413WAT     H231482   0.302   4.765   7.225
10414WAT      O31483   2.212   2.133   5.566
10414WAT     H131484   2.261   2.048   5.545
10414WAT     H231485   2.136   2.113   5.628
10415WAT      O31486   1.916   0.393   4.295
10415WAT     H131487   1.834   0.428   4.250
10415WAT     H231488   1.997   0.435   4.253
10416WAT      O31489   2.888   1.155   6.739
10416WAT     H131490   2.838   1.237   6.769
10416WAT     H231491   2.956   1.181   6.670
10417WAT      O31492   4.682   8.261   9.174
10417WAT     H131493   4.707   8.240   9.268
10417WAT     H231494   4.765   8.262   9.117
10418WAT      O31495   2.537   0.532   5.789
10418WAT     H131496   2.558   0.623   5.826
10418WAT     H231497   2.598   0.513   5.712
10419WAT      O31498   9.109   8.009   0.979
10419WAT     H131499   9.147   7.948   0.909
10419WAT     H231500   9.170   8.012   1.058
10420WAT      O31501   8.622   3.910   1.801
10420WAT     H131502   8.672   3.916   1.887
10420WAT     H231503   8.643   3.823   1.756
10421WAT      O31504   6.988   5.556   4.856
10421WAT     H131505   6.998   5.626   4.786
10421WAT     H231506   6.995   5.597   4.947
10422WAT      O31507   1.447   7.696   1.525
10422WAT     H131508   1.534   7.687   1.575
10422WAT     H231509   1.427   7.610   1.479
10423WAT      O31510   9.281   9.182   9.197
10423WAT     H131511   9.207   9.228   9.246
10423WAT     H231512   9.317   9.241   9.126
10424WAT      O31513   9.500   4.891   9.615
10424WAT     H131514   9.572   4.898   9.685
10424WAT     H231515   9.411   4.884   9.660
10425WAT      O31516   2.375   4.145   2.287
10425WAT     H131517   2.297   4.111   2.340
10425WAT     H231518   2.356   4.133   2.189
10426WAT      O31519   8.912   9.839   0.229
10426WAT     H131520   8.941   9.853   0.134
10426WAT     H231521   8.919   9.741   0.251
10427WAT      O31522   5.568   2.678   9.869
10427WAT     H131523   5.613   2.673   9.958
10427WAT     H231524   5.472   2.703   9.880
10428WAT      O31525   7.341   9.220   7.469
10428WAT     H131526   7.267   9.246   7.530
10428WAT     H231527   7.358   9.294   7.404
10429WAT      O31528   4.818   5.777   8.268
10429WAT     H131529   4.909   5.742   8.294
10429WAT     H231530   4.829   5.847   8.197
10430WAT      O31531   6.088   6.791   7.471
10430WAT     H131532   6.079   6.715   7.407
10430WAT     H231533   6.152   6.859   7.434
10431WAT      O31534   8.814   4.431   0.409
10431WAT     H131535   8.762   4.459   0.329
10431WAT     H231536   8.843   4.336   0.398
10432WAT      O31537   4.667   3.897   5.324
10432WAT     H131538   4.745   3.836   5.340
10432WAT     H231539   4.606   3.857   5.256
10433WAT      O31540   2.353   3.491   8.739
10433WAT     H131541   2.384   3.579   8.702
10433WAT     H231542   2.430   3.443   8.780
10434WAT      O31543   2.581   0.005   7.074
10434WAT     H131544   2.644   0.075   7.041
10434WAT     H231545   2.619  -0.039   7.155
10435WAT      O31546   6.997   1.056   7.473
10435WAT     H131547   6.903   1.021   7.469
10435WAT     H231548   7.045   1.033   7.389
10436WAT      O31549   1.223   9.572   7.713
10436WAT     H131550   1.175   9.539   7.631
10436WAT     H231551   1.239   9.496   7.775
10437WAT      O31552   3.057   3.952   6.167
10437WAT     H131553   2.997   4.023   6.204
10437WAT     H231554   3.045   3.945   6.068
10438WAT      O31555   0.772   5.801   3.755
10438WAT     H131556   0.677   5.833   3.756
10438WAT     H231557   0.804   5.797   3.660
10439WAT      O31558   4.183   7.204   3.815
10439WAT     H131559   4.093   7.234   3.846
10439WAT     H231560   4.244   7.194   3.894
10440WAT      O31561   1.550   2.161   7.638
10440WAT     H131562   1.508   2.212   7.563
10440WAT     H231563   1.595   2.079   7.602
10441WAT      O31564   9.019   0.019   9.609
10441WAT     H131565   9.098  -0.033   9.579
10441WAT     H231566   9.007   0.098   9.549
10442WAT      O31567   8.264   7.011   6.108
10442WAT     H131568   8.339   7.050   6.161
10442WAT     H231569   8.207   6.955   6.167
10443WAT      O31570   7.764   4.987   9.712
10443WAT     H131571   7.700   5.003   9.637
10443WAT     H231572   7.742   5.049   9.788
10444WAT      O31573   5.919   1.035   1.012
10444WAT     H131574   5.906   1.102   1.085
10444WAT     H231575   5.935   0.944   1.051
10445WAT      O31576   1.889   1.683   4.180
10445WAT     H131577   1.820   1.721   4.119
10445WAT     H231578   1.883   1.583   4.180
10446WAT      O31579   3.171   5.146   9.064
10446WAT     H131580   3.109   5.193   9.126
10446WAT     H231581   3.263   5.143   9.104
10447WAT      O31582   8.390   5.083   1.288
10447WAT     H131583   8.461   5.017   1.263
10447WAT     H231584   8.412   5.123   1.377
10448WAT      O31585   5.734   3.391   2.093
10448WAT     H131586   5.817   3.426   2.135
10448WAT     H231587   5.678   3.345   2.163
10449WAT      O31588   3.902   1.705   8.743
10449WAT     H131589   3.916   1.617   8.699
10449WAT     H231590   3.843   1.762   8.686
10450WAT      O31591   6.884   7.222   9.353
10450WAT     H131592   6.921   7.144   9.302
10450WAT     H231593   6.952   7.296   9.356
10451WAT      O31594   9.130   9.649   3.130
10451WAT     H131595   9.197   9.589   3.175
10451WAT     H231596   9.044   9.648   3.182
10452WAT      O31597   4.936   9.365   7.051
10452WAT     H131598   4.920   9.281   7.103
10452WAT     H231599   4.850   9.416   7.044
10453WAT      O31600   0.900   3.933   4.714
10453WAT     H131601   0.889   4.030   4.694
10453WAT     H231602   0.831   3.905   4.781
10454WAT      O31603   4.832   6.529   3.787
10454WAT     H131604   4.921   6.529   3.832
10454WAT     H231605   4.838   6.580   3.701
10455WAT      O31606   4.421   3.486   2.163
10455WAT     H131607   4.364   3.542   2.224
10455WAT     H231608   4.490   3.544   2.120
10456WAT      O31609   3.531   0.767   5.087
10456WAT     H131610   3.563   0.692   5.143
10456WAT     H231611   3.591   0.778   5.008
10457WAT      O31612   7.666   8.004   8.014
10457WAT     H131613   7.736   7.945   7.975
10457WAT     H231614   7.707   8.090   8.043
10458WAT      O31615   2.050   3.630   5.583
10458WAT     H131616   2.150   3.639   5.581
10458WAT     H231617   2.024   3.565   5.655
10459WAT      O31618   7.242   5.148   9.710
10459WAT     H131619   7.160   5.197   9.739
10459WAT     H231620   7.222   5.092   9.630
10460WAT      O31621   3.214   9.805   8.872
10460WAT     H131622   3.304   9.837   8.903
10460WAT     H231623   3.143   9.863   8.911
10461WAT      O31624   8.262   0.805   9.460
10461WAT     H131625   8.342   0.800   9.400
10461WAT     H231626   8.239   0.713   9.492
10462WAT      O31627   9.841   2.170   4.281
10462WAT     H131628   9.905   2.117   4.336
10462WAT     H231629   9.885   2.194   4.194
10463WAT      O31630   5.647   9.034   4.932
10463WAT     H131631   5.615   9.049   4.839
10463WAT     H231632   5.667   8.937   4.946
10464WAT      O31633   1.002   4.261   9.072
10464WAT     H131634   1.009   4.275   8.973
10464WAT     H231635   0.945   4.181   9.090
10465WAT      O31636   7.350   3.261   0.302
10465WAT     H131637   7.370   3.207   0.384
10465WAT     H231638   7.275   3.324   0.322
10466WAT      O31639   2.224   0.819   5.478
10466WAT     H131640   2.306   0.836   5.424
10466WAT     H231641   2.242   0.747   5.545
10467WAT      O31642   1.177   7.304   1.836
10467WAT     H131643   1.208   7.367   1.764
10467WAT     H231644   1.222   7.328   1.922
10468WAT      O31645   6.000   9.298   8.833
10468WAT     H131646   5.912   9.298   8.786
10468WAT     H231647   6.013   9.211   8.879
10469WAT      O31648   3.852   1.076   2.453
10469WAT     H131649   3.760   1.052   2.486
10469WAT     H231650   3.845   1.116   2.361
10470WAT      O31651   0.956   9.540   8.823
10470WAT     H131652   0.914   9.612   8.879
10470WAT     H231653   0.938   9.559   8.726
10471WAT      O31654   7.911   8.218   4.050
10471WAT     H131655   7.856   8.288   4.005
10471WAT     H231656   7.981   8.262   4.107
10472WAT      O31657   6.486   3.828   8.908
10472WAT     H131658   6.441   3.754   8.857
10472WAT     H231659   6.447   3.833   9.000
10473WAT      O31660   4.138   9.734   3.165
10473WAT     H131661   4.067   9.725   3.095
10473WAT     H231662   4.228   9.722   3.124
10474WAT      O31663   1.269   7.694   4.968
10474WAT     H131664   1.291   7.621   4.903
10474WAT     H231665   1.177   7.729   4.949
10475WAT      O31666   9.118   7.851   8.483
10475WAT     H131667   9.052   7.925   8.471
10475WAT     H231668   9.107   7.811   8.574
10476WAT      O31669   1.285   7.112   6.177
10476WAT     H131670   1.301   7.047   6.103
10476WAT     H231671   1.203   7.086   6.227
10477WAT      O31672   6.381   1.161   1.962
10477WAT     H131673   6.443   1.100   2.011
10477WAT     H231674   6.310   1.106   1.917
10478WAT      O31675   9.165   4.153   7.975
10478WAT     H131676   9.259   4.180   7.997
10478WAT     H231677   9.133   4.087   8.042
10479WAT      O31678   1.468   8.811   2.582
10479WAT     H131679   1.443   8.844   2.490
10479WAT     H231680   1.566   8.823   2.596
10480WAT      O31681   3.574   4.747   2.866
10480WAT     H131682   3.536   4.659   2.895
10480WAT     H231683   3.633   4.733   2.786
10481WAT      O31684   7.015   0.763   3.828
10481WAT     H131685   7.025   0.789   3.924
10481WAT     H231686   7.000   0.665   3.821
10482WAT      O31687   3.334   5.811   9.156
10482WAT     H131688   3.423   5.765   9.162
10482WAT     H231689   3.263   5.742   9.144
10483WAT      O31690   2.019   7.875   4.803
10483WAT     H131691   2.026   7.837   4.711
10483WAT     H231692   2.007   7.974   4.797
10484WAT      O31693   4.899   7.721   0.754
10484WAT     H131694   4.810   7.744   0.795
10484WAT     H231695   4.885   7.686   0.662
10485WAT      O31696   9.769   0.000   8.329
10485WAT     H131697   9.684   0.032   8.372
10485WAT     H231698   9.809   0.075   8.277
10486WAT      O31699   2.809   7.212   7.954
10486WAT     H131700   2.791   7.162   8.038
10486WAT     H231701   2.823   7.309   7.975
10487WAT      O31702   6.537   2.021   8.636
10487WAT     H131703   6.633   2.028   8.663
10487WAT     H231704   6.523   1.941   8.578
10488WAT      O31705   0.524   6.181   6.899
10488WAT     H131706   0.506   6.279   6.906
10488WAT     H231707   0.623   6.165   6.901
10489WAT      O31708   0.178   1.043   1.845
10489WAT     H131709   0.256   1.095   1.809
10489WAT     H231710   0.152   0.972   1.780
10490WAT      O31711   8.940   0.699   3.563
10490WAT     H131712   9.024   0.699   3.618
10490WAT     H231713   8.871   0.642   3.607
10491WAT      O31714   5.278   6.928   2.210
10491WAT     H131715   5.234   7.018   2.198
10491WAT     H231716   5.239   6.883   2.291
10492WAT      O31717   6.859   1.961   2.575
10492WAT     H131718   6.903   1.879   2.613
10492WAT     H231719   6.802   1.935   2.498
10493WAT      O31720   8.955   2.473   5.809
10493WAT     H131721   8.943   2.435   5.717
10493WAT     H231722   8.967   2.572   5.802
10494WAT      O31723   4.422   0.344   1.193
10494WAT     H131724   4.386   0.383   1.277
10494WAT     H231725   4.521   0.358   1.189
10495WAT      O31726   6.443   2.659   3.402
10495WAT     H131727   6.542   2.668   3.402
10495WAT     H231728   6.410   2.654   3.308
10496WAT      O31729   3.429   9.784   1.130
10496WAT     H131730   3.341   9.786   1.177
10496WAT     H231731   3.415   9.762   1.034
10497WAT      O31732   9.783   5.274   1.552
10497WAT     H131733   9.705   5.290   1.612
10497WAT     H231734   9.800   5.176   1.545
10498WAT      O31735   8.550   0.104   7.844
10498WAT     H131736   8.630   0.101   7.904
10498WAT     H231737   8.498   0.188   7.862
10499WAT      O31738   8.208   8.753   7.857
10499WAT     H131739   8.216   8.824   7.926
10499WAT     H231740   8.217   8.793   7.766
10500WAT      O31741   5.616   0.416   9.120
10500WAT     H131742   5.592   0.328   9.161
10500WAT     H231743   5.705   0.445   9.154
10501WAT      O31744   0.397   5.514   9.246
10501WAT     H131745   0.381   5.465   9.331
10501WAT     H231746   0.313   5.515   9.191
10502WAT      O31747   9.282   0.911   5.151
10502WAT     H131748   9.197   0.896   5.101
10502WAT     H231749   9.339   0.828   5.146
10503WAT      O31750   7.962   1.839   8.889
10503WAT     H131751   7.982   1.936   8.891
10503WAT     H231752   7.877   1.823   8.838
10504WAT      O31753   4.586   6.879   4.628
10504WAT     H131754   4.641   6.797   4.618
10504WAT     H231755   4.500   6.856   4.674
10505WAT      O31756   6.210   1.001   0.397
10505WAT     H131757   6.197   0.905   0.369
10505WAT     H231758   6.242   1.004   0.491
10506WAT      O31759   3.044   9.636   7.507
10506WAT     H131760   3.118   9.670   7.566
10506WAT     H231761   3.083   9.594   7.425
10507WAT      O31762   6.152   3.677   1.155
10507WAT     H131763   6.173   3.606   1.088
10507WAT     H231764   6.180   3.645   1.246
10508WAT      O31765   6.330   6.882   9.328
10508WAT     H131766   6.390   6.939   9.385
10508WAT     H231767   6.304   6.800   9.379
10509WAT      O31768   2.232   3.888   8.888
10509WAT     H131769   2.188   3.872   8.976
10509WAT     H231770   2.167   3.867   8.815
10510WAT      O31771   2.136   5.111   5.360
10510WAT     H131772   2.161   5.014   5.354
10510WAT     H231773   2.043   5.124   5.327
10511WAT      O31774   6.921   0.534   9.624
10511WAT     H131775   6.849   0.578   9.678
10511WAT     H231776   6.994   0.503   9.684
10512WAT      O31777   2.141   6.841   2.420
10512WAT     H131778   2.076   6.913   2.396
10512WAT     H231779   2.229   6.860   2.377
10513WAT      O31780   0.449   6.330   8.362
10513WAT     H131781   0.390   6.307   8.285
10513WAT     H231782   0.398   6.320   8.448
10514WAT      O31783   3.285   9.549   0.581
10514WAT     H131784   3.215   9.482   0.556
10514WAT     H231785   3.326   9.524   0.669
10515WAT      O31786   6.126   0.822   3.347
10515WAT     H131787   6.217   0.810   3.307
10515WAT     H231788   6.113   0.755   3.420
10516WAT      O31789   6.849   4.690   5.287
10516WAT     H131790   6.768   4.699   5.345
10516WAT     H231791   6.904   4.772   5.293
10517WAT      O31792   3.358   2.559   0.410
10517WAT     H131793   3.456   2.557   0.427
10517WAT     H231794   3.338   2.510   0.325
10518WAT      O31795   7.845   8.975   8.209
10518WAT     H131796   7.804   8.915   8.140
10518WAT     H231797   7.821   8.943   8.301
10519WAT      O31798   4.036   2.808   6.661
10519WAT     H131799   3.943   2.814   6.624
10519WAT     H231800   4.096   2.870   6.610
10520WAT      O31801   7.468   5.624   4.280
10520WAT     H131802   7.507   5.538   4.313
10520WAT     H231803   7.421   5.608   4.193
10521WAT      O31804   1.356   4.713   2.295
10521WAT     H131805   1.424   4.647   2.328
10521WAT     H231806   1.389   4.805   2.313
10522WAT      O31807   2.010   9.369   9.084
10522WAT     H131808   2.091   9.314   9.104
10522WAT     H231809   1.958   9.326   9.009
10523WAT      O31810   0.184   7.702   2.272
10523WAT     H131811   0.253   7.630   2.265
10523WAT     H231812   0.228   7.791   2.285
10524WAT      O31813   9.872   3.932   7.936
10524WAT     H131814   9.870   3.836   7.908
10524WAT     H231815   9.943   3.980   7.885
10525WAT      O31816   0.625   5.185   4.407
10525WAT     H131817   0.556   5.251   4.376
10525WAT     H231818   0.596   5.145   4.494
10526WAT      O31819   9.139   6.455   5.062
10526WAT     H131820   9.126   6.503   4.975
10526WAT     H231821   9.209   6.385   5.051
10527WAT      O31822   6.616   4.182   0.024
10527WAT     H131823   6.697   4.188   0.082
10527WAT     H231824   6.537   4.154   0.079
10528WAT      O31825   4.191   1.434   0.721
10528WAT     H131826   4.114   1.441   0.784
10528WAT     H231827   4.233   1.523   0.709
10529WAT      O31828   0.123   8.186   1.679
10529WAT     H131829   0.054   8.128   1.723
10529WAT     H231830   0.144   8.264   1.739
10530WAT      O31831   3.261   3.198   7.698
10530WAT     H131832   3.349   3.168   7.734
10530WAT     H231833   3.275   3.267   7.627
10531WAT      O31834   3.434   7.528   1.812
10531WAT     H131835   3.368   7.454   1.825
10531WAT     H231836   3.440   7.582   1.895
10532WAT      O31837   7.439   6.326   2.918
10532WAT     H131838   7.454   6.328   3.017
10532WAT     H231839   7.483   6.405   2.875
10533WAT      O31840   8.543   9.268   7.381
10533WAT     H131841   8.468   9.334   7.372
10533WAT     H231842   8.625   9.315   7.412
10534WAT      O31843   8.528   6.766   4.685
10534WAT     H131844   8.495   6.745   4.593
10534WAT     H231845   8.494   6.697   4.749
10535WAT      O31846   6.842   2.312   6.990
10535WAT     H131847   6.746   2.287   6.995
10535WAT     H231848   6.877   2.335   7.081
10536WAT      O31849   8.934   5.008   2.134
10536WAT     H131850   8.869   5.072   2.093
10536WAT     H231851   8.975   5.049   2.215
10537WAT      O31852   5.542   9.228   4.332
10537WAT     H131853   5.502   9.284   4.260
10537WAT     H231854   5.491   9.142   4.340
10538WAT      O31855   1.134   0.302   9.620
10538WAT     H131856   1.048   0.316   9.571
10538WAT     H231857   1.129   0.346   9.709
10539WAT      O31858   8.462   1.643   4.945
10539WAT     H131859   8.364   1.622   4.942
10539WAT     H231860   8.511   1.582   4.883
10540WAT      O31861   9.771   6.240   5.570
10540WAT     H131862   9.762   6.332   5.609
10540WAT     H231863   9.750   6.173   5.641
10541WAT      O31864   9.044   3.797   6.816
10541WAT     H131865   9.121   3.845   6.857
10541WAT     H231866   9.022   3.838   6.727
10542WAT      O31867   7.811   9.765   7.010
10542WAT     H131868   7.886   9.739   6.948
10542WAT     H231869   7.813   9.864   7.025
10543WAT      O31870   2.671   8.601   0.115
10543WAT     H131871   2.727   8.535   0.165
10543WAT     H231872   2.703   8.608   0.020
10544WAT      O31873   6.943   3.646   6.716
10544WAT     H131874   6.947   3.658   6.815
10544WAT     H231875   6.995   3.564   6.690
10545WAT      O31876   8.955   5.226   3.452
10545WAT     H131877   8.971   5.202   3.548
10545WAT     H231878   8.868   5.187   3.422
10546WAT      O31879   2.226   5.997   2.778
10546WAT     H131880   2.165   6.036   2.708
10546WAT     H231881   2.319   5.991   2.741
10547WAT      O31882   3.085   9.244   5.345
10547WAT     H131883   3.154   9.275   5.280
10547WAT     H231884   3.126   9.237   5.436
10548WAT      O31885   6.840   6.101   4.599
10548WAT     H131886   6.783   6.079   4.520
10548WAT     H231887   6.805   6.053   4.680
10549WAT      O31888   2.008   0.023   7.185
10549WAT     H131889   2.100   0.009   7.148
10549WAT     H231890   2.004   0.112   7.230
10550WAT      O31891   8.916   7.978   0.643
10550WAT     H131892   8.985   8.030   0.693
10550WAT     H231893   8.884   8.030   0.564
10551WAT      O31894   8.194   2.937   0.496
10551WAT     H131895   8.157   2.850   0.464
10551WAT     H231896   8.130   2.979   0.560
10552WAT      O31897   4.600   6.732   5.540
10552WAT     H131898   4.686   6.751   5.494
10552WAT     H231899   4.582   6.803   5.608
10553WAT      O31900   7.988   8.836   6.684
10553WAT     H131901   8.073   8.783   6.685
10553WAT     H231902   7.983   8.892   6.767
10554WAT      O31903   4.862   3.280   6.921
10554WAT     H131904   4.824   3.370   6.897
10554WAT     H231905   4.832   3.212   6.855
10555WAT      O31906   2.975   5.409   8.097
10555WAT     H131907   2.912   5.339   8.062
10555WAT     H231908   2.989   5.395   8.195
10556WAT      O31909   5.195   6.849   5.415
10556WAT     H131910   5.114   6.839   5.473
10556WAT     H231911   5.269   6.890   5.468
10557WAT      O31912   1.182   1.885   2.649
10557WAT     H131913   1.113   1.814   2.667
10557WAT     H231914   1.219   1.873   2.557
10558WAT      O31915   9.756   8.922   6.365
10558WAT     H131916   9.792   8.967   6.283
10558WAT     H231917   9.750   8.989   6.439
10559WAT      O31918   1.469   2.821   0.911
10559WAT     H131919   1.537   2.883   0.873
10559WAT     H231920   1.514   2.748   0.962
10560WAT      O31921   1.278   5.477   1.030
10560WAT     H131922   1.186   5.439   1.020
10560WAT     H231923   1.340   5.407   1.065
10561WAT      O31924   5.606   9.182   1.118
10561WAT     H131925   5.678   9.129   1.163
10561WAT     H231926   5.611   9.168   1.019
10562WAT      O31927   2.060   3.820   2.048
10562WAT     H131928   2.072   3.910   2.090
10562WAT     H231929   1.987   3.825   1.980
10563WAT      O31930   4.952   4.430   8.674
10563WAT     H131931   4.917   4.410   8.583
10563WAT     H231932   4.888   4.395   8.743
10564WAT      O31933   9.765   3.421   5.582
10564WAT     H131934   9.704   3.409   5.504
10564WAT     H231935   9.788   3.332   5.622
10565WAT      O31936   2.262   5.279   5.546
10565WAT     H131937   2.226   5.226   5.470
10565WAT     H231938   2.189   5.338   5.582
10566WAT      O31939   9.642   1.792   2.917
10566WAT     H131940   9.672   1.717   2.976
10566WAT     H231941   9.721   1.843   2.884
10567WAT      O31942   2.071   6.936   7.550
10567WAT     H131943   2.055   6.931   7.648
10567WAT     H231944   2.125   7.017   7.528
10568WAT      O31945   1.386   6.688   4.635
10568WAT     H131946   1.387   6.589   4.648
10568WAT     H231947   1.292   6.719   4.625
10569WAT      O31948   7.648   4.881   9.195
10569WAT     H131949   7.577   4.945   9.226
10569WAT     H231950   7.635   4.793   9.240
10570WAT      O31951   2.992   9.183   5.867
10570WAT     H131952   3.080   9.226   5.845
10570WAT     H231953   2.918   9.250   5.856
10571WAT      O31954   7.619   4.387   9.366
10571WAT     H131955   7.694   4.442   9.403
10571WAT     H231956   7.620   4.392   9.266
10572WAT      O31957   5.686   7.144   2.679
10572WAT     H131958   5.648   7.097   2.758
10572WAT     H231959   5.619   7.209   2.643
10573WAT      O31960   7.845   9.223   3.499
10573WAT     H131961   7.829   9.155   3.571
10573WAT     H231962   7.898   9.299   3.537
10574WAT      O31963   8.182   8.593   6.401
10574WAT     H131964   8.274   8.565   6.429
10574WAT     H231965   8.126   8.511   6.384
10575WAT      O31966   7.568   3.021   1.115
10575WAT     H131967   7.609   3.104   1.154
10575WAT     H231968   7.607   2.941   1.161
10576WAT      O31969   2.647   9.153   7.942
10576WAT     H131970   2.640   9.057   7.915
10576WAT     H231971   2.555   9.190   7.954
10577WAT      O31972   9.509   0.659   5.058
10577WAT     H131973   9.579   0.697   4.998
10577WAT     H231974   9.541   0.660   5.153
10578WAT      O31975   8.877   6.671   9.865
10578WAT     H131976   8.835   6.759   9.884
10578WAT     H231977   8.891   6.621   9.950
10579WAT      O31978   0.118   1.075   2.367
10579WAT     H131979   0.069   1.080   2.280
10579WAT     H231980   0.147   0.981   2.383
10580WAT      O31981   8.379   1.580   3.255
10580WAT     H131982   8.324   1.512   3.304
10580WAT     H231983   8.456   1.608   3.312
10581WAT      O31984   9.330   6.835   0.596
10581WAT     H131985   9.424   6.843   0.631
10581WAT     H231986   9.266   6.850   0.671
10582WAT      O31987   4.430   0.258   2.742
10582WAT     H131988   4.502   0.273   2.809
10582WAT     H231989   4.436   0.165   2.706
10583WAT      O31990   8.609   0.830   2.456
10583WAT     H131991   8.662   0.746   2.440
10583WAT     H231992   8.667   0.897   2.502
10584WAT      O31993   1.886   9.325   9.802
10584WAT     H131994   1.864   9.362   9.712
10584WAT     H231995   1.965   9.374   9.840
10585WAT      O31996   0.612   2.736   4.486
10585WAT     H131997   0.691   2.675   4.486
10585WAT     H231998   0.613   2.792   4.568
10586WAT      O31999   0.268   6.551   5.622
10586WAT     H132000   0.253   6.647   5.643
10586WAT     H232001   0.223   6.528   5.536
10587WAT      O32002   5.843   0.753   8.000
10587WAT     H132003   5.894   0.707   7.927
10587WAT     H232004   5.785   0.824   7.961
10588WAT      O32005   4.237   2.411   3.422
10588WAT     H132006   4.279   2.399   3.332
10588WAT     H232007   4.235   2.508   3.446
10589WAT      O32008   1.054   7.179   7.217
10589WAT     H132009   1.043   7.111   7.289
10589WAT     H232010   1.141   7.226   7.229
10590WAT      O32011   4.236   8.466   0.769
10590WAT     H132012   4.264   8.482   0.674
10590WAT     H232013   4.307   8.498   0.831
10591WAT      O32014   7.581   9.365   2.961
10591WAT     H132015   7.612   9.305   2.887
10591WAT     H232016   7.653   9.372   3.030
10592WAT      O32017   1.388   1.737   5.816
10592WAT     H132018   1.427   1.779   5.898
10592WAT     H232019   1.383   1.806   5.743
10593WAT      O32020   3.491   8.293   1.713
10593WAT     H132021   3.529   8.383   1.736
10593WAT     H232022   3.422   8.268   1.781
10594WAT      O32023   4.096   3.842   8.036
10594WAT     H132024   4.134   3.832   7.944
10594WAT     H232025   3.996   3.835   8.032
10595WAT      O32026   5.335   1.260   2.580
10595WAT     H132027   5.401   1.327   2.613
10595WAT     H232028   5.380   1.194   2.520
10596WAT      O32029   7.846   8.542   0.532
10596WAT     H132030   7.778   8.543   0.606
10596WAT     H232031   7.802   8.512   0.447
10597WAT      O32032   8.267   0.870   5.178
10597WAT     H132033   8.328   0.873   5.258
10597WAT     H232034   8.207   0.790   5.186
10598WAT      O32035   7.370   7.142   4.857
10598WAT     H132036   7.391   7.141   4.955
10598WAT     H232037   7.392   7.053   4.817
10599WAT      O32038   1.788   4.509   1.453
10599WAT     H132039   1.850   4.434   1.475
10599WAT     H232040   1.838   4.596   1.457
10600WAT      O32041   8.520   5.247   5.353
10600WAT     H132042   8.524   5.219   5.449
10600WAT     H232043   8.608   5.287   5.326
10601WAT      O32044   1.008   6.831   6.586
10601WAT     H132045   0.970   6.913   6.629
10601WAT     H232046   1.093   6.855   6.540
10602WAT      O32047   2.100   5.877   9.171
10602WAT     H132048   2.043   5.847   9.247
10602WAT     H232049   2.157   5.954   9.200
10603WAT      O32050   9.694   5.753   6.414
10603WAT     H132051   9.720   5.831   6.358
10603WAT     H232052   9.744   5.756   6.501
10604WAT      O32053   7.039   8.211   0.720
10604WAT     H132054   7.085   8.283   0.773
10604WAT     H232055   6.942   8.234   0.710
10605WAT      O32056   3.571   8.167   2.669
10605WAT     H132057   3.513   8.202   2.596
10605WAT     H232058   3.651   8.226   2.679
10606WAT      O32059   4.742   8.466   8.094
10606WAT     H132060   4.680   8.404   8.142
10606WAT     H232061   4.704   8.558   8.093
10607WAT      O32062   0.056   5.484   1.541
10607WAT     H132063   0.008   5.396   1.538
10607WAT     H232064   0.072   5.510   1.637
10608WAT      O32065   8.039   2.417   6.873
10608WAT     H132066   7.948   2.410   6.915
10608WAT     H232067   8.108   2.387   6.938
10609WAT      O32068   6.444   7.302   4.882
10609WAT     H132069   6.385   7.379   4.904
10609WAT     H232070   6.480   7.314   4.789
10610WAT      O32071   7.080   7.036   3.301
10610WAT     H132072   7.065   7.120   3.249
10610WAT     H232073   7.027   7.039   3.386
10611WAT      O32074   8.043   5.599   7.092
10611WAT     H132075   8.050   5.514   7.144
10611WAT     H232076   7.959   5.599   7.038
10612WAT      O32077   4.886   3.518   8.553
10612WAT     H132078   4.935   3.602   8.530
10612WAT     H232079   4.864   3.468   8.470
10613WAT      O32080   0.432   5.697   6.509
10613WAT     H132081   0.505   5.746   6.460
10613WAT     H232082   0.397   5.756   6.583
10614WAT      O32083   0.880   2.925   2.971
10614WAT     H132084   0.929   2.839   2.980
10614WAT     H232085   0.873   2.970   3.060
10615WAT      O32086   2.353   2.148   8.126
10615WAT     H132087   2.447   2.176   8.110
10615WAT     H232088   2.350   2.050   8.148
10616WAT      O32089   8.975   8.054   4.857
10616WAT     H132090   8.909   8.007   4.797
10616WAT     H232091   8.928   8.087   4.939
10617WAT      O32092   3.013   9.044   3.828
10617WAT     H132093   3.017   9.116   3.758
10617WAT     H232094   2.927   8.994   3.819
10618WAT      O32095   5.203   9.262   9.158
10618WAT     H132096   5.192   9.176   9.109
10618WAT     H232097   5.161   9.336   9.106
10619WAT      O32098   7.312   2.048   9.588
10619WAT     H132099   7.241   2.017   9.524
10619WAT     H232100   7.338   2.141   9.565
10620WAT      O32101   4.128   5.606   6.542
10620WAT     H132102   4.128   5.580   6.639
10620WAT     H232103   4.037   5.590   6.504
10621WAT      O32104   5.595   3.591   1.965
10621WAT     H132105   5.648   3.521   2.011
10621WAT     H232106   5.498   3.566   1.965
10622WAT      O32107   9.455   1.882   3.449
10622WAT     H132108   9.398   1.935   3.512
10622WAT     H232109   9.405   1.802   3.418
10623WAT      O32110   3.227   6.659   6.525
10623WAT     H132111   3.151   6.602   6.555
10623WAT     H232112   3.228   6.744   6.578
10624WAT      O32113   8.287   4.012   2.577
10624WAT     H132114   8.238   4.039   2.495
10624WAT     H232115   8.281   4.086   2.645
10625WAT      O32116   2.291   0.623   5.659
10625WAT     H132117   2.360   0.571   5.710
10625WAT     H232118   2.234   0.561   5.606
10626WAT      O32119   9.872   7.168   1.390
10626WAT     H132120   9.883   7.171   1.489
10626WAT     H232121   9.922   7.090   1.353
10627WAT      O32122   1.779   2.981   7.534
10627WAT     H132123   1.807   3.038   7.458
10627WAT     H232124   1.785   3.033   7.619
10628WAT      O32125   5.647   7.582   6.621
10628WAT     H132126   5.703   7.659   6.650
10628WAT     H232127   5.556   7.591   6.660
10629WAT      O32128   4.979   3.551   3.654
10629WAT     H132129   5.012   3.466   3.695
10629WAT     H232130   5.048   3.588   3.593
10630WAT      O32131   5.890   4.365   5.986
10630WAT     H132132   5.906   4.268   5.970
10630WAT     H232133   5.866   4.409   5.899
10631WAT      O32134   0.184   9.284   2.549
10631WAT     H132135   0.213   9.285   2.645
10631WAT     H232136   0.177   9.378   2.515
10632WAT      O32137   7.123   3.382   0.392
10632WAT     H132138   7.049   3.333   0.347
10632WAT     H232139   7.087   3.461   0.441
10633WAT      O32140   4.328   8.815   4.216
10633WAT     H132141   4.296   8.898   4.264
10633WAT     H232142   4.252   8.773   4.168
10634WAT      O32143   9.275   3.403   1.321
10634WAT     H132144   9.267   3.317   1.372
10634WAT     H232145   9.271   3.383   1.223
10635WAT      O32146   2.630   9.064   2.796
10635WAT     H132147   2.538   9.064   2.756
10635WAT     H232148   2.650   8.973   2.832
10636WAT      O32149   2.311   3.800   1.626
10636WAT     H132150   2.283   3.726   1.687
10636WAT     H232151   2.232   3.835   1.576
10637WAT      O32152   9.380   1.809   4.838
10637WAT     H132153   9.415   1.874   4.771
10637WAT     H232154   9.313   1.854   4.896
10638WAT      O32155   0.505   9.352   4.680
10638WAT     H132156   0.525   9.289   4.755
10638WAT     H232157   0.589   9.374   4.632
10639WAT      O32158   9.386   8.088   1.600
10639WAT     H132159   9.328   8.046   1.671
10639WAT     H232160   9.431   8.169   1.637
10640WAT      O32161   7.916   5.098   3.956
10640WAT     H132162   7.942   5.006   3.985
10640WAT     H232163   7.817   5.102   3.943
10641WAT      O32164   3.321   2.625   9.748
10641WAT     H132165   3.374   2.564   9.689
10641WAT     H232166   3.383   2.684   9.800
10642WAT      O32167   5.273   7.283   9.551
10642WAT     H132168   5.307   7.194   9.582
10642WAT     H232169   5.326   7.313   9.471
10643WAT      O32170   1.100   8.522   3.351
10643WAT     H132171   1.045   8.447   3.315
10643WAT     H232172   1.041   8.590   3.394
10644WAT      O32173   1.009   6.319   4.635
10644WAT     H132174   0.936   6.348   4.696
10644WAT     H232175   1.044   6.230   4.665
10645WAT      O32176   2.441   5.241   8.291
10645WAT     H132177   2.477   5.305   8.222
10645WAT     H232178   2.398   5.293   8.364
10646WAT      O32179   2.623   1.978   9.166
10646WAT     H132180   2.603   2.063   9.119
10646WAT     H232181   2.707   1.988   9.219
10647WAT      O32182   1.211   6.846   7.613
10647WAT     H132183   1.276   6.844   7.689
10647WAT     H232184   1.157   6.762   7.612
10648WAT      O32185   4.676   0.826   8.394
10648WAT     H132186   4.677   0.812   8.295
10648WAT     H232187   4.739   0.899   8.418
10649WAT      O32188   4.594   7.374   4.820
10649WAT     H132189   4.687   7.360   4.854
10649WAT     H232190   4.583   7.326   4.732
10650WAT      O32191   7.137   6.959   0.604
10650WAT     H132192   7.167   6.981   0.511
10650WAT     H232193   7.100   6.866   0.606
10651WAT      O32194   4.049   4.296   4.661
10651WAT     H132195   4.148   4.306   4.647
10651WAT     H232196   4.006   4.268   4.576
10652WAT      O32197   8.378   9.648   1.424
10652WAT     H132198   8.319   9.606   1.355
10652WAT     H232199   8.453   9.587   1.447
10653WAT      O32200   4.843   3.432   4.674
10653WAT     H132201   4.904   3.362   4.711
10653WAT     H232202   4.897   3.507   4.635
10654WAT      O32203   4.390   6.428   4.508
10654WAT     H132204   4.400   6.348   4.448
10654WAT     H232205   4.336   6.498   4.462
10655WAT      O32206   4.007   9.768   2.662
10655WAT     H132207   4.051   9.856   2.681
10655WAT     H232208   4.049   9.727   2.581
10656WAT      O32209   8.461   1.214   4.473
10656WAT     H132210   8.450   1.294   4.532
10656WAT     H232211   8.516   1.239   4.393
10657WAT      O32212   2.818   6.369   8.559
10657WAT     H132213   2.884   6.394   8.630
10657WAT     H232214   2.834   6.275   8.530
10658WAT      O32215   5.364   6.926   8.875
10658WAT     H132216   5.432   6.997   8.892
10658WAT     H232217   5.388   6.877   8.791
10659WAT      O32218   7.729   2.249   8.523
10659WAT     H132219   7.741   2.337   8.477
10659WAT     H232220   7.791   2.243   8.601
10660WAT      O32221   9.708   7.874   0.501
10660WAT     H132222   9.706   7.871   0.401
10660WAT     H232223   9.764   7.951   0.531
10661WAT      O32224   5.905   1.455   6.559
10661WAT     H132225   5.889   1.458   6.460
10661WAT     H232226   5.828   1.499   6.606
10662WAT      O32227   1.180   9.039   9.635
10662WAT     H132228   1.238   9.116   9.663
10662WAT     H232229   1.203   8.959   9.689
10663WAT      O32230   9.549   8.839   0.854
10663WAT     H132231   9.649   8.842   0.858
10663WAT     H232232   9.520   8.750   0.819
10664WAT      O32233   1.588   9.471   8.422
10664WAT     H132234   1.522   9.546   8.416
10664WAT     H232235   1.600   9.445   8.518
10665WAT      O32236   3.964   5.429   0.797
10665WAT     H132237   4.004   5.426   0.706
10665WAT     H232238   3.867   5.408   0.792
10666WAT      O32239   6.564   7.842   6.443
10666WAT     H132240   6.654   7.803   6.463
10666WAT     H232241   6.514   7.856   6.529
10667WAT      O32242   3.339   2.010   1.021
10667WAT     H132243   3.244   2.012   0.990
10667WAT     H232244   3.348   2.059   1.108
10668WAT      O32245   7.494   5.211   5.003
10668WAT     H132246   7.575   5.205   4.945
10668WAT     H232247   7.514   5.272   5.081
10669WAT      O32248   5.060   0.018   0.450
10669WAT     H132249   5.045   0.110   0.486
10669WAT     H232250   4.974  -0.017   0.412
10670WAT      O32251   4.357   5.307   5.956
10670WAT     H132252   4.343   5.230   6.019
10670WAT     H232253   4.431   5.365   5.989
10671WAT      O32254   7.120   2.648   9.127
10671WAT     H132255   7.049   2.631   9.195
10671WAT     H232256   7.201   2.688   9.171
10672WAT      O32257   3.429   7.276   3.367
10672WAT     H132258   3.346   7.270   3.311
10672WAT     H232259   3.459   7.371   3.373
10673WAT      O32260   4.661   6.459   9.539
10673WAT     H132261   4.683   6.490   9.446
10673WAT     H232262   4.626   6.365   9.536
10674WAT      O32263   2.583   5.929   8.730
10674WAT     H132264   2.511   5.903   8.666
10674WAT     H232265   2.552   6.006   8.785
10675WAT      O32266   1.800   8.434   4.327
10675WAT     H132267   1.879   8.385   4.290
10675WAT     H232268   1.724   8.430   4.261
10676WAT      O32269   8.999   7.805   8.010
10676WAT     H132270   9.072   7.795   8.078
10676WAT     H232271   8.960   7.897   8.017
10677WAT      O32272   8.820   8.189   9.496
10677WAT     H132273   8.772   8.190   9.408
10677WAT     H232274   8.917   8.171   9.480
10678WAT      O32275   4.161   5.391   4.774
10678WAT     H132276   4.260   5.395   4.782
10678WAT     H232277   4.135   5.319   4.710
10679WAT      O32278   0.167   2.298   2.779
10679WAT     H132279   0.244   2.354   2.749
10679WAT     H232280   0.168   2.211   2.729
10680WAT      O32281   0.271   1.434   8.463
10680WAT     H132282   0.293   1.472   8.553
10680WAT     H232283   0.300   1.498   8.392
10681WAT      O32284   0.434   5.848   4.217
10681WAT     H132285   0.403   5.779   4.282
10681WAT     H232286   0.456   5.932   4.267
10682WAT      O32287   1.304   7.465   3.966
10682WAT     H132288   1.220   7.519   3.962
10682WAT     H232289   1.289   7.383   4.021
10683WAT      O32290   4.853   7.837   6.204
10683WAT     H132291   4.914   7.861   6.129
10683WAT     H232292   4.852   7.912   6.271
10684WAT      O32293   3.364   4.591   1.768
10684WAT     H132294   3.355   4.502   1.813
10684WAT     H232295   3.309   4.659   1.817
10685WAT      O32296   5.648   8.737   3.166
10685WAT     H132297   5.716   8.746   3.093
10685WAT     H232298   5.586   8.816   3.163
10686WAT      O32299   3.691   9.797   9.730
10686WAT     H132300   3.684   9.811   9.632
10686WAT     H232301   3.701   9.885   9.776
10687WAT      O32302   4.404   3.582   8.374
10687WAT     H132303   4.482   3.538   8.418
10687WAT     H232304   4.330   3.515   8.362
10688WAT      O32305   1.140   7.432   8.189
10688WAT     H132306   1.078   7.397   8.260
10688WAT     H232307   1.104   7.409   8.099
10689WAT      O32308   5.765   4.388   6.739
10689WAT     H132309   5.745   4.316   6.673
10689WAT     H232310   5.805   4.467   6.692
10690WAT      O32311   4.621   0.521   6.475
10690WAT     H132312   4.625   0.457   6.397
10690WAT     H232313   4.623   0.615   6.441
10691WAT      O32314   3.505   0.925   0.658
10691WAT     H132315   3.442   0.848   0.651
10691WAT     H232316   3.548   0.926   0.748
10692WAT      O32317   1.351   7.603   6.722
10692WAT     H132318   1.394   7.520   6.757
10692WAT     H232319   1.418   7.677   6.721
10693WAT      O32320   3.041   6.926   3.731
10693WAT     H132321   2.977   6.864   3.777
10693WAT     H232322   3.112   6.954   3.796
10694WAT      O32323   5.816   5.447   8.244
10694WAT     H132324   5.822   5.352   8.213
10694WAT     H232325   5.907   5.489   8.240
10695WAT      O32326   8.411   4.012   6.979
10695WAT     H132327   8.327   4.038   7.026
10695WAT     H232328   8.455   3.937   7.028
10696WAT      O32329   5.873   5.504   0.874
10696WAT     H132330   5.851   5.486   0.778
10696WAT     H232331   5.801   5.467   0.932
10697WAT      O32332   7.957   3.980   8.062
10697WAT     H132333   7.995   3.927   7.985
10697WAT     H232334   7.940   4.074   8.033
10698WAT      O32335   7.727   9.294   3.841
10698WAT     H132336   7.703   9.366   3.775
10698WAT     H232337   7.805   9.324   3.895
10699WAT      O32338   9.489   2.734   4.157
10699WAT     H132339   9.555   2.740   4.232
10699WAT     H232340   9.444   2.822   4.146
10700WAT      O32341   8.609   1.866   2.543
10700WAT     H132342   8.571   1.803   2.611
10700WAT     H232343   8.541   1.882   2.471
10701WAT      O32344   7.583   8.078   4.478
10701WAT     H132345   7.635   8.125   4.550
10701WAT     H232346   7.622   8.100   4.389
10702WAT      O32347   9.309   6.718   6.639
10702WAT     H132348   9.233   6.767   6.598
10702WAT     H232349   9.282   6.624   6.659
10703WAT      O32350   6.819   5.499   8.372
10703WAT     H132351   6.794   5.595   8.359
10703WAT     H232352   6.908   5.493   8.417
10704WAT      O32353   5.970   4.096   3.840
10704WAT     H132354   5.917   4.026   3.888
10704WAT     H232355   5.940   4.101   3.745
10705WAT      O32356   6.752   8.974   9.764
10705WAT     H132357   6.684   8.942   9.831
10705WAT     H232358   6.844   8.956   9.799
10706WAT      O32359   7.666   7.479   7.258
10706WAT     H132360   7.567   7.487   7.274
10706WAT     H232361   7.714   7.489   7.345
10707WAT      O32362   4.655   1.867   2.415
10707WAT     H132363   4.578   1.895   2.358
10707WAT     H232364   4.688   1.777   2.383
10708WAT      O32365   1.500   6.109   1.907
10708WAT     H132366   1.457   6.155   1.829
10708WAT     H232367   1.578   6.055   1.876
10709WAT      O32368   9.632   5.071   7.709
10709WAT     H132369   9.678   4.989   7.674
10709WAT     H232370   9.542   5.045   7.746
10710WAT      O32371   1.546   1.810   4.278
10710WAT     H132372   1.510   1.903   4.287
10710WAT     H232373   1.640   1.807   4.311
10711WAT      O32374   9.688   2.141   2.161
10711WAT     H132375   9.631   2.140   2.079
10711WAT     H232376   9.692   2.234   2.198
10712WAT      O32377   6.057   7.239   3.140
10712WAT     H132378   6.153   7.215   3.122
10712WAT     H232379   5.998   7.168   3.102
10713WAT      O32380   5.959   0.958   3.154
10713WAT     H132381   6.001   0.959   3.062
10713WAT     H232382   6.009   0.894   3.212
10714WAT      O32383   9.249   0.603   8.721
10714WAT     H132384   9.348   0.588   8.716
10714WAT     H232385   9.215   0.570   8.809
10715WAT      O32386   6.453   1.022   2.899
10715WAT     H132387   6.476   1.077   2.818
10715WAT     H232388   6.530   0.962   2.922
10716WAT      O32389   6.309   7.237   7.502
10716WAT     H132390   6.392   7.186   7.481
10716WAT     H232391   6.246   7.232   7.424
10717WAT      O32392   7.447   9.824   9.515
10717WAT     H132393   7.534   9.775   9.507
10717WAT     H232394   7.456   9.916   9.476
10718WAT      O32395   4.987   6.484   1.682
10718WAT     H132396   4.926   6.547   1.635
10718WAT     H232397   5.010   6.521   1.773
10719WAT      O32398   7.352   1.994   9.218
10719WAT     H132399   7.259   1.956   9.220
10719WAT     H232400   7.347   2.092   9.200
10720WAT      O32401   7.029   7.315   3.185
10720WAT     H132402   7.002   7.370   3.264
10720WAT     H232403   6.954   7.314   3.118
10721WAT      O32404   9.715   5.122   7.372
10721WAT     H132405   9.804   5.081   7.355
10721WAT     H232406   9.704   5.138   7.471
10722WAT      O32407   3.803   3.235   5.886
10722WAT     H132408   3.719   3.262   5.838
10722WAT     H232409   3.793   3.142   5.922
10723WAT      O32410   4.674   6.454   4.781
10723WAT     H132411   4.760   6.502   4.761
10723WAT     H232412   4.602   6.489   4.723
10724WAT      O32413   3.286   2.056   5.382
10724WAT     H132414   3.223   2.118   5.336
10724WAT     H232415   3.326   2.101   5.462
10725WAT      O32416   8.982   2.690   2.976
10725WAT     H132417   9.020   2.637   3.052
10725WAT     H232418   8.906   2.746   3.009
10726WAT      O32419   2.258   6.522   0.912
10726WAT     H132420   2.248   6.570   0.825
10726WAT     H232421   2.353   6.490   0.922
10727WAT      O32422   4.612   4.082   8.480
10727WAT     H132423   4.527   4.046   8.516
10727WAT     H232424   4.689   4.048   8.534
10728WAT      O32425   9.571   1.374   6.358
10728WAT     H132426   9.523   1.461   6.369
10728WAT     H232427   9.614   1.349   6.445
10729WAT      O32428   1.803   7.350   9.233
10729WAT     H132429   1.900   7.327   9.222
10729WAT     H232430   1.750   7.303   9.162
10730WAT      O32431   6.834   4.448   4.111
10730WAT     H132432   6.757   4.475   4.053
10730WAT     H232433   6.799   4.420   4.201
10731WAT      O32434   1.072   7.432   8.695
10731WAT     H132435   1.124   7.461   8.615
10731WAT     H232436   0.974   7.445   8.678
10732WAT      O32437   4.244   7.220   7.515
10732WAT     H132438   4.295   7.259   7.438
10732WAT     H232439   4.303   7.219   7.596
10733WAT      O32440   7.468   0.689   5.253
10733WAT     H132441   7.408   0.633   5.311
10733WAT     H232442   7.497   0.635   5.174
10734WAT      O32443   3.432   8.473   6.031
10734WAT     H132444   3.416   8.409   6.107
10734WAT     H232445   3.405   8.565   6.059
10735WAT      O32446   4.712   2.995   1.951
10735WAT     H132447   4.694   3.091   1.972
10735WAT     H232448   4.626   2.948   1.933
10736WAT      O32449   5.792   0.079   2.122
10736WAT     H132450   5.805  -0.019   2.101
10736WAT     H232451   5.751   0.089   2.212
10737WAT      O32452   7.809   1.519   0.232
10737WAT     H132453   7.711   1.514   0.249
10737WAT     H232454   7.826   1.573   0.149
10738WAT      O32455   7.868   6.983   8.902
10738WAT     H132456   7.867   6.883   8.897
10738WAT     H232457   7.962   7.016   8.905
10739WAT      O32458   5.346   2.983   1.794
10739WAT     H132459   5.366   2.941   1.706
10739WAT     H232460   5.428   2.981   1.851
10740WAT      O32461   7.768   6.939   2.813
10740WAT     H132462   7.751   6.845   2.842
10740WAT     H232463   7.860   6.966   2.842
10741WAT      O32464   1.261   4.439   7.023
10741WAT     H132465   1.283   4.517   6.964
10741WAT     H232466   1.285   4.460   7.117
10742WAT      O32467   5.288   3.274   1.577
10742WAT     H132468   5.348   3.211   1.627
10742WAT     H232469   5.291   3.251   1.479
10743WAT      O32470   6.379   4.046   6.850
10743WAT     H132471   6.330   4.117   6.900
10743WAT     H232472   6.383   3.963   6.906
10744WAT      O32473   6.856   7.360   2.970
10744WAT     H132474   6.778   7.301   2.992
10744WAT     H232475   6.823   7.452   2.949
10745WAT      O32476   9.888   6.889   6.737
10745WAT     H132477   9.844   6.967   6.694
10745WAT     H232478   9.862   6.885   6.834
10746WAT      O32479   7.045   0.340   2.539
10746WAT     H132480   6.986   0.271   2.498
10746WAT     H232481   7.016   0.431   2.510
10747WAT      O32482   7.557   6.064   4.897
10747WAT     H132483   7.466   6.076   4.857
10747WAT     H232484   7.593   5.974   4.872
10748WAT      O32485   5.858   5.318   2.812
10748WAT     H132486   5.917   5.314   2.732
10748WAT     H232487   5.811   5.407   2.815
10749WAT      O32488   0.279   2.109   9.521
10749WAT     H132489   0.325   2.196   9.538
10749WAT     H232490   0.188   2.110   9.563
10750WAT      O32491   5.880   9.713   4.906
10750WAT     H132492   5.878   9.768   4.823
10750WAT     H232493   5.804   9.648   4.905
10751WAT      O32494   1.085   1.352   0.414
10751WAT     H132495   1.177   1.351   0.452
10751WAT     H232496   1.027   1.413   0.469
10752WAT      O32497   1.179   9.593   5.289
10752WAT     H132498   1.180   9.615   5.387
10752WAT     H232499   1.175   9.678   5.236
10753WAT      O32500   6.348   7.021   9.808
10753WAT     H132501   6.297   7.106   9.820
10753WAT     H232502   6.315   6.952   9.872
10754WAT      O32503   1.721   4.400   7.051
10754WAT     H132504   1.733   4.321   7.111
10754WAT     H232505   1.689   4.368   6.961
10755WAT      O32506   2.120   9.668   3.184
10755WAT     H132507   2.058   9.745   3.197
10755WAT     H232508   2.162   9.674   3.093
10756WAT      O32509   3.533   9.649   5.514
10756WAT     H132510   3.578   9.658   5.425
10756WAT     H232511   3.566   9.721   5.575
10757WAT      O32512   7.950   5.576   0.160
10757WAT     H132513   7.994   5.536   0.240
10757WAT     H232514   7.993   5.664   0.138
10758WAT      O32515   6.255   8.495   7.876
10758WAT     H132516   6.235   8.513   7.779
10758WAT     H232517   6.190   8.427   7.911
10759WAT      O32518   0.321   6.956   2.164
10759WAT     H132519   0.387   6.881   2.157
10759WAT     H232520   0.250   6.931   2.230
10760WAT      O32521   3.387   5.204   3.494
10760WAT     H132522   3.424   5.191   3.402
10760WAT     H232523   3.345   5.294   3.501
10761WAT      O32524   0.219   5.614   9.085
10761WAT     H132525   0.282   5.685   9.052
10761WAT     H232526   0.129   5.655   9.102
10762WAT      O32527   7.594   2.792   3.512
10762WAT     H132528   7.557   2.829   3.427
10762WAT     H232529   7.687   2.759   3.496
10763WAT      O32530   6.079   3.145   8.362
10763WAT     H132531   6.008   3.215   8.356
10763WAT     H232532   6.167   3.185   8.338
10764WAT      O32533   8.855   7.433   6.309
10764WAT     H132534   8.922   7.365   6.338
10764WAT     H232535   8.897   7.495   6.242
10765WAT      O32536   5.837   0.910   6.011
10765WAT     H132537   5.804   0.913   5.917
10765WAT     H232538   5.935   0.927   6.013
10766WAT      O32539   1.517   7.937   1.390
10766WAT     H132540   1.481   7.847   1.413
10766WAT     H232541   1.552   7.981   1.473
10767WAT      O32542   6.106   7.010   3.857
10767WAT     H132543   6.128   6.988   3.952
10767WAT     H232544   6.072   7.103   3.851
10768WAT      O32545   7.015   0.170   4.669
10768WAT     H132546   7.010   0.076   4.703
10768WAT     H232547   6.925   0.198   4.637
10769WAT      O32548   1.437   0.616   9.142
10769WAT     H132549   1.386   0.556   9.080
10769WAT     H232550   1.463   0.699   9.092
10770WAT      O32551   8.867   3.623   6.542
10770WAT     H132552   8.812   3.638   6.624
10770WAT     H232553   8.814   3.651   6.462
10771WAT      O32554   9.852   0.955   0.025
10771WAT     H132555   9.858   1.018   0.102
10771WAT     H232556   9.867   0.861   0.058
10772WAT      O32557   6.846   7.592   7.864
10772WAT     H132558   6.915   7.636   7.806
10772WAT     H232559   6.884   7.576   7.955
10773WAT      O32560   9.297   3.868   1.583
10773WAT     H132561   9.279   3.815   1.500
10773WAT     H232562   9.210   3.890   1.627
10774WAT      O32563   1.468   1.595   5.531
10774WAT     H132564   1.396   1.632   5.474
10774WAT     H232565   1.449   1.499   5.551
10775WAT      O32566   9.854   0.147   7.254
10775WAT     H132567   9.901   0.106   7.332
10775WAT     H232568   9.831   0.242   7.275
10776WAT      O32569   4.606   6.283   5.578
10776WAT     H132570   4.682   6.297   5.642
10776WAT     H232571   4.578   6.372   5.541
10777WAT      O32572   4.615   1.192   7.596
10777WAT     H132573   4.544   1.131   7.632
10777WAT     H232574   4.679   1.215   7.668
10778WAT      O32575   2.338   6.546   7.252
10778WAT     H132576   2.375   6.624   7.303
10778WAT     H232577   2.273   6.496   7.309
10779WAT      O32578   8.364   9.475   7.013
10779WAT     H132579   8.330   9.475   7.107
10779WAT     H232580   8.458   9.509   7.012
10780WAT      O32581   8.486   3.230   6.054
10780WAT     H132582   8.459   3.271   5.967
10780WAT     H232583   8.580   3.195   6.046
10781WAT      O32584   9.425   3.214   8.233
10781WAT     H132585   9.389   3.307   8.234
10781WAT     H232586   9.517   3.214   8.195
10782WAT      O32587   3.593   1.534   4.287
10782WAT     H132588   3.512   1.516   4.231
10782WAT     H232589   3.623   1.628   4.273
10783WAT      O32590   2.644   5.983   2.678
10783WAT     H132591   2.724   6.036   2.652
10783WAT     H232592   2.577   6.042   2.723
10784WAT      O32593   1.681   3.221   2.514
10784WAT     H132594   1.692   3.202   2.416
10784WAT     H232595   1.584   3.230   2.536
10785WAT      O32596   0.996   5.808   0.056
10785WAT     H132597   0.927   5.738   0.074
10785WAT     H232598   1.087   5.767   0.064
10786WAT      O32599   4.275   7.625   6.815
10786WAT     H132600   4.238   7.552   6.757
10786WAT     H232601   4.329   7.585   6.889
10787WAT      O32602   9.026   5.929   9.644
10787WAT     H132603   9.096   6.000   9.650
10787WAT     H232604   9.069   5.843   9.615
10788WAT      O32605   5.029   5.972   6.770
10788WAT     H132606   5.113   5.946   6.817
10788WAT     H232607   5.026   6.072   6.760
10789WAT      O32608   1.054   4.391   1.228
10789WAT     H132609   0.996   4.436   1.296
10789WAT     H232610   1.050   4.292   1.241
10790WAT      O32611   4.464   9.338   0.013
10790WAT     H132612   4.490   9.311  -0.080
10790WAT     H232613   4.382   9.395   0.009
10791WAT      O32614   6.062   8.479   4.605
10791WAT     H132615   6.087   8.429   4.689
10791WAT     H232616   6.137   8.540   4.580
10792WAT      O32617   7.285   0.287   9.646
10792WAT     H132618   7.331   0.280   9.558
10792WAT     H232619   7.224   0.208   9.658
10793WAT      O32620   3.880   1.672   8.200
10793WAT     H132621   3.819   1.632   8.268
10793WAT     H232622   3.884   1.771   8.213
10794WAT      O32623   3.346   2.113   4.232
10794WAT     H132624   3.430   2.084   4.187
10794WAT     H232625   3.362   2.120   4.331
10795WAT      O32626   8.225   8.691   5.952
10795WAT     H132627   8.128   8.670   5.938
10795WAT     H232628   8.238   8.724   6.046
10796WAT      O32629   7.342   9.012   4.655
10796WAT     H132630   7.377   8.931   4.608
10796WAT     H232631   7.245   9.025   4.631
10797WAT      O32632   9.824   7.443   0.942
10797WAT     H132633   9.760   7.412   1.013
10797WAT     H232634   9.801   7.537   0.916
10798WAT      O32635   5.865   5.260   4.559
10798WAT     H132636   5.938   5.285   4.495
10798WAT     H232637   5.902   5.259   4.652
10799WAT      O32638   1.196   9.152   8.291
10799WAT     H132639   1.291   9.182   8.288
10799WAT     H232640   1.167   9.122   8.200
10800WAT      O32641   9.480   6.784   1.518
10800WAT     H132642   9.536   6.701   1.523
10800WAT     H232643   9.403   6.768   1.457
10801WAT      O32644   9.557   3.420   8.509
10801WAT     H132645   9.615   3.497   8.482
10801WAT     H232646   9.461   3.450   8.509
10802WAT      O32647   4.832   0.332   4.101
10802WAT     H132648   4.746   0.329   4.051
10802WAT     H232649   4.907   0.307   4.040
10803WAT      O32650   3.165   1.134   5.841
10803WAT     H132651   3.197   1.101   5.930
10803WAT     H232652   3.242   1.176   5.792
10804WAT      O32653   4.724   7.135   4.663
10804WAT     H132654   4.743   7.142   4.761
10804WAT     H232655   4.685   7.046   4.643
10805WAT      O32656   0.411   1.102   2.305
10805WAT     H132657   0.464   1.041   2.364
10805WAT     H232658   0.317   1.069   2.299
10806WAT      O32659   0.911   2.992   4.653
10806WAT     H132660   0.816   3.017   4.637
10806WAT     H232661   0.970   3.049   4.596
10807WAT      O32662   0.087   3.269   2.668
10807WAT     H132663   0.010   3.207   2.650
10807WAT     H232664   0.096   3.333   2.592
10808WAT      O32665   6.751   1.853   0.065
10808WAT     H132666   6.698   1.771   0.043
10808WAT     H232667   6.690   1.923   0.102
10809WAT      O32668   6.211   5.044   2.918
10809WAT     H132669   6.112   5.041   2.905
10809WAT     H232670   6.257   5.043   2.829
10810WAT      O32671   3.589   0.569   9.496
10810WAT     H132672   3.658   0.636   9.469
10810WAT     H232673   3.515   0.569   9.428
10811WAT      O32674   7.531   4.772   6.609
10811WAT     H132675   7.578   4.770   6.521
10811WAT     H232676   7.575   4.839   6.668
10812WAT      O32677   6.760   7.947   1.431
10812WAT     H132678   6.697   7.919   1.503
10812WAT     H232679   6.773   7.872   1.367
10813WAT      O32680   1.677   7.366   3.434
10813WAT     H132681   1.673   7.465   3.443
10813WAT     H232682   1.677   7.341   3.337
10814WAT      O32683   1.578   2.034   5.314
10814WAT     H132684   1.502   2.095   5.291
10814WAT     H232685   1.568   1.948   5.263
10815WAT      O32686   3.961   4.510   4.271
10815WAT     H132687   3.972   4.480   4.176
10815WAT     H232688   4.024   4.586   4.290
10816WAT      O32689   2.352   5.750   4.376
10816WAT     H132690   2.326   5.663   4.419
10816WAT     H232691   2.271   5.808   4.367
10817WAT      O32692   7.211   2.898   8.289
10817WAT     H132693   7.254   2.916   8.201
10817WAT     H232694   7.232   2.973   8.352
10818WAT      O32695   5.481   0.778   2.827
10818WAT     H132696   5.488   0.771   2.728
10818WAT     H232697   5.386   0.763   2.855
10819WAT      O32698   2.405   5.280   0.954
10819WAT     H132699   2.315   5.251   0.920
10819WAT     H232700   2.456   5.199   0.984
10820WAT      O32701   8.458   9.780   6.410
10820WAT     H132702   8.379   9.727   6.377
10820WAT     H232703   8.428   9.870   6.439
10821WAT      O32704   7.955   5.401   6.495
10821WAT     H132705   7.882   5.455   6.537
10821WAT     H232706   7.973   5.435   6.403
10822WAT      O32707   8.200   3.257   3.534
10822WAT     H132708   8.254   3.207   3.601
10822WAT     H232709   8.211   3.356   3.548
10823WAT      O32710   6.679   6.441   3.966
10823WAT     H132711   6.671   6.527   3.918
10823WAT     H232712   6.658   6.454   4.063
10824WAT      O32713   9.111   2.961   0.013
10824WAT     H132714   9.108   2.963  -0.087
10824WAT     H232715   9.106   3.054   0.048
10825WAT      O32716   5.640   6.226   0.971
10825WAT     H132717   5.612   6.305   1.025
10825WAT     H232718   5.740   6.221   0.969
10826WAT      O32719   1.220   8.865   7.835
10826WAT     H132720   1.219   8.940   7.769
10826WAT     H232721   1.283   8.794   7.804
10827WAT      O32722   6.777   5.760   8.364
10827WAT     H132723   6.773   5.806   8.275
10827WAT     H232724   6.860   5.790   8.413
10828WAT      O32725   6.045   6.555   7.351
10828WAT     H132726   5.955   6.535   7.311
10828WAT     H232727   6.109   6.482   7.328
10829WAT      O32728   8.261   0.678   7.247
10829WAT     H132729   8.337   0.740   7.270
10829WAT     H232730   8.175   0.718   7.279
10830WAT      O32731   0.592   1.679   8.249
10830WAT     H132732   0.676   1.699   8.300
10830WAT     H232733   0.597   1.586   8.212
10831WAT      O32734   2.855   8.670   6.426
10831WAT     H132735   2.770   8.638   6.384
10831WAT     H232736   2.929   8.666   6.359
10832WAT      O32737   3.651   5.227   4.485
10832WAT     H132738   3.590   5.304   4.465
10832WAT     H232739   3.741   5.261   4.509
10833WAT      O32740   5.675   9.499   0.971
10833WAT     H132741   5.744   9.572   0.969
10833WAT     H232742   5.659   9.472   1.066
10834WAT      O32743   3.893   3.409   6.857
10834WAT     H132744   3.808   3.463   6.853
10834WAT     H232745   3.876   3.318   6.821
10835WAT      O32746   7.160   3.771   3.738
10835WAT     H132747   7.259   3.787   3.743
10835WAT     H232748   7.111   3.857   3.754
10836WAT      O32749   3.348   7.578   7.475
10836WAT     H132750   3.428   7.630   7.503
10836WAT     H232751   3.374   7.483   7.455
10837WAT      O32752   4.625   4.643   2.660
10837WAT     H132753   4.683   4.647   2.741
10837WAT     H232754   4.583   4.552   2.654
10838WAT      O32755   8.713   3.531   4.211
10838WAT     H132756   8.627   3.542   4.161
10838WAT     H232757   8.777   3.479   4.155
10839WAT      O32758   6.060   6.944   8.882
10839WAT     H132759   6.000   7.015   8.918
10839WAT     H232760   6.140   6.935   8.941
10840WAT      O32761   8.764   8.910   6.715
10840WAT     H132762   8.808   8.968   6.783
10840WAT     H232763   8.730   8.827   6.759
10841WAT      O32764   9.794   2.672   4.678
10841WAT     H132765   9.844   2.708   4.599
10841WAT     H232766   9.709   2.724   4.690
10842WAT      O32767   7.912   2.919   4.237
10842WAT     H132768   7.876   2.991   4.296
10842WAT     H232769   7.838   2.858   4.209
10843WAT      O32770   8.010   7.850   7.677
10843WAT     H132771   8.033   7.825   7.583
10843WAT     H232772   7.911   7.855   7.687
10844WAT      O32773   1.861   8.280   2.100
10844WAT     H132774   1.872   8.352   2.031
10844WAT     H232775   1.836   8.195   2.054
10845WAT      O32776   4.427   3.004   7.945
10845WAT     H132777   4.524   3.023   7.956
10845WAT     H232778   4.413   2.905   7.944
10846WAT      O32779   4.252   3.478   3.928
10846WAT     H132780   4.310   3.528   3.864
10846WAT     H232781   4.158   3.512   3.924
10847WAT      O32782   7.637   4.229   6.951
10847WAT     H132783   7.628   4.149   7.011
10847WAT     H232784   7.724   4.224   6.901
10848WAT      O32785   2.610   0.171   8.518
10848WAT     H132786   2.651   0.239   8.457
10848WAT     H232787   2.530   0.210   8.563
10849WAT      O32788   2.319   2.216   2.529
10849WAT     H132789   2.383   2.254   2.462
10849WAT     H232790   2.232   2.264   2.522
10850WAT      O32791   6.690   5.993   4.387
10850WAT     H132792   6.713   5.904   4.426
10850WAT     H232793   6.599   5.989   4.346
10851WAT      O32794   4.505   3.556   5.531
10851WAT     H132795   4.596   3.515   5.531
10851WAT     H232796   4.463   3.544   5.441
10852WAT      O32797   2.618   8.818   3.982
10852WAT     H132798   2.689   8.762   4.025
10852WAT     H232799   2.541   8.829   4.045
10853WAT      O32800   3.481   1.721   5.572
10853WAT     H132801   3.483   1.762   5.663
10853WAT     H232802   3.403   1.757   5.521
10854WAT      O32803   5.684   8.297   8.464
10854WAT     H132804   5.694   8.243   8.381
10854WAT     H232805   5.605   8.358   8.455
10855WAT      O32806   1.656   2.343   6.003
10855WAT     H132807   1.716   2.412   5.965
10855WAT     H232808   1.566   2.349   5.959
10856WAT      O32809   0.749   4.358   8.845
10856WAT     H132810   0.663   4.352   8.794
10856WAT     H232811   0.769   4.454   8.865
10857WAT      O32812   5.724   0.978   4.307
10857WAT     H132813   5.656   0.927   4.253
10857WAT     H232814   5.814   0.969   4.265
10858WAT      O32815   0.060   1.840   7.872
10858WAT     H132816   0.041   1.749   7.834
10858WAT     H232817   0.005   1.908   7.824
10859WAT      O32818   7.965   7.283   4.461
10859WAT     H132819   7.885   7.302   4.405
10859WAT     H232820   8.023   7.215   4.415
10860WAT      O32821   5.222   2.246   1.297
10860WAT     H132822   5.164   2.290   1.228
10860WAT     H232823   5.244   2.154   1.268
10861WAT      O32824   4.459   7.746   5.566
10861WAT     H132825   4.512   7.727   5.484
10861WAT     H232826   4.519   7.745   5.646
10862WAT      O32827   9.288   0.651   4.894
10862WAT     H132828   9.377   0.661   4.939
10862WAT     H232829   9.215   0.667   4.961
10863WAT      O32830   0.294   3.366   0.886
10863WAT     H132831   0.224   3.431   0.854
10863WAT     H232832   0.273   3.339   0.980
10864WAT      O32833   7.025   6.551   5.140
10864WAT     H132834   7.013   6.588   5.048
10864WAT     H232835   7.083   6.613   5.193
10865WAT      O32836   9.823   9.641   8.469
10865WAT     H132837   9.815   9.647   8.569
10865WAT     H232838   9.806   9.730   8.428
10866WAT      O32839   2.059   8.931   4.688
10866WAT     H132840   2.067   8.843   4.735
10866WAT     H232841   2.102   9.002   4.744
10867WAT      O32842   7.823   5.174   4.588
10867WAT     H132843   7.888   5.241   4.625
10867WAT     H232844   7.841   5.159   4.491
10868WAT      O32845   8.005   6.857   7.072
10868WAT     H132846   7.906   6.870   7.059
10868WAT     H232847   8.052   6.945   7.066
10869WAT      O32848   8.198   0.816   8.727
10869WAT     H132849   8.192   0.842   8.823
10869WAT     H232850   8.210   0.898   8.671
10870WAT      O32851   0.118   9.630   9.738
10870WAT     H132852   0.107   9.611   9.640
10870WAT     H232853   0.075   9.556   9.791
10871WAT      O32854   2.433   5.279   3.275
10871WAT     H132855   2.407   5.189   3.241
10871WAT     H232856   2.505   5.269   3.343
10872WAT      O32857   6.709   5.314   5.857
10872WAT     H132858   6.716   5.228   5.805
10872WAT     H232859   6.711   5.293   5.955
10873WAT      O32860   4.136   2.821   0.687
10873WAT     H132861   4.194   2.827   0.768
10873WAT     H232862   4.118   2.724   0.666
10874WAT      O32863   4.654   6.161   0.472
10874WAT     H132864   4.732   6.158   0.409
10874WAT     H232865   4.617   6.068   0.482
10875WAT      O32866   5.221   6.328   8.595
10875WAT     H132867   5.234   6.229   8.593
10875WAT     H232868   5.134   6.349   8.640
10876WAT      O32869   3.283   1.175   4.328
10876WAT     H132870   3.317   1.236   4.257
10876WAT     H232871   3.184   1.162   4.317
10877WAT      O32872   1.750   0.619   5.764
10877WAT     H132873   1.804   0.535   5.767
10877WAT     H232874   1.654   0.597   5.784
10878WAT      O32875   6.542   6.935   3.019
10878WAT     H132876   6.507   6.882   3.096
10878WAT     H232877   6.622   6.888   2.981
10879WAT      O32878   8.398   0.209   0.634
10879WAT     H132879   8.321   0.270   0.654
10879WAT     H232880   8.366   0.129   0.585
10880WAT      O32881   2.523   9.131   8.771
10880WAT     H132882   2.565   9.095   8.688
10880WAT     H232883   2.571   9.213   8.801
10881WAT      O32884   3.750   9.593   9.356
10881WAT     H132885   3.748   9.579   9.257
10881WAT     H232886   3.833   9.643   9.381
10882WAT      O32887   6.071   9.089   6.634
10882WAT     H132888   6.012   9.030   6.689
10882WAT     H232889   6.128   9.033   6.574
10883WAT      O32890   2.857   6.175   2.641
10883WAT     H132891   2.832   6.219   2.727
10883WAT     H232892   2.918   6.235   2.589
10884WAT      O32893   6.635   3.952   2.342
10884WAT     H132894   6.628   3.981   2.246
10884WAT     H232895   6.550   3.908   2.370
10885WAT      O32896   4.714   6.810   0.238
10885WAT     H132897   4.792   6.749   0.223
10885WAT     H232898   4.743   6.905   0.223
10886WAT      O32899   3.120   5.640   9.172
10886WAT     H132900   3.093   5.629   9.267
10886WAT     H232901   3.135   5.550   9.131
10887WAT      O32902   2.756   7.751   7.959
10887WAT     H132903   2.672   7.714   7.920
10887WAT     H232904   2.748   7.850   7.968
10888WAT      O32905   6.427   7.360   7.737
10888WAT     H132906   6.395   7.315   7.654
10888WAT     H232907   6.411   7.458   7.731
10889WAT      O32908   6.576   3.926   3.084
10889WAT     H132909   6.570   4.021   3.055
10889WAT     H232910   6.591   3.923   3.183
10890WAT      O32911   7.236   9.822   2.768
10890WAT     H132912   7.160   9.757   2.769
10890WAT     H232913   7.217   9.894   2.701
10891WAT      O32914   4.460   5.563   3.629
10891WAT     H132915   4.416   5.572   3.718
10891WAT     H232916   4.538   5.501   3.636
10892WAT      O32917   2.892   4.931   2.015
10892WAT     H132918   2.890   4.832   1.999
10892WAT     H232919   2.810   4.959   2.066
10893WAT      O32920   6.544   0.953   8.960
10893WAT     H132921   6.582   0.864   8.935
10893WAT     H232922   6.448   0.942   8.987
10894WAT      O32923   4.029   7.456   8.530
10894WAT     H132924   4.054   7.527   8.596
10894WAT     H232925   4.037   7.493   8.437
10895WAT      O32926   6.129   1.332   8.881
10895WAT     H132927   6.206   1.271   8.897
10895WAT     H232928   6.086   1.310   8.793
10896WAT      O32929   1.118   6.049   1.888
10896WAT     H132930   1.154   6.103   1.813
10896WAT     H232931   1.094   6.109   1.965
10897WAT      O32932   1.097   4.794   2.243
10897WAT     H132933   1.083   4.892   2.259
10897WAT     H232934   1.190   4.768   2.270
10898WAT      O32935   5.332   5.403   9.256
10898WAT     H132936   5.429   5.428   9.251
10898WAT     H232937   5.292   5.408   9.164
10899WAT      O32938   9.443   1.810   5.807
10899WAT     H132939   9.363   1.847   5.761
10899WAT     H232940   9.416   1.737   5.870
10900WAT      O32941   5.771   4.345   5.122
10900WAT     H132942   5.846   4.355   5.057
10900WAT     H232943   5.697   4.409   5.099
10901WAT      O32944   5.343   6.373   2.864
10901WAT     H132945   5.301   6.388   2.775
10901WAT     H232946   5.367   6.276   2.873
10902WAT      O32947   3.544   3.981   1.651
10902WAT     H132948   3.585   3.897   1.684
10902WAT     H232949   3.616   4.046   1.626
10903WAT      O32950   8.322   7.642   4.834
10903WAT     H132951   8.249   7.581   4.803
10903WAT     H232952   8.386   7.658   4.759
10904WAT      O32953   9.027   8.217   4.282
10904WAT     H132954   9.107   8.258   4.239
10904WAT     H232955   9.013   8.259   4.372
10905WAT      O32956   6.863   7.638   0.611
10905WAT     H132957   6.798   7.584   0.557
10905WAT     H232958   6.857   7.734   0.584
10906WAT      O32959   3.557   1.001   8.839
10906WAT     H132960   3.575   1.010   8.741
10906WAT     H232961   3.459   1.011   8.857
10907WAT      O32962   5.703   1.054   9.454
10907WAT     H132963   5.772   1.098   9.512
10907WAT     H232964   5.612   1.084   9.482
10908WAT      O32965   1.841   7.113   8.791
10908WAT     H132966   1.888   7.025   8.790
10908WAT     H232967   1.758   7.105   8.847
10909WAT      O32968   5.265   4.060   6.346
10909WAT     H132969   5.327   4.032   6.273
10909WAT     H232970   5.211   4.138   6.316
10910WAT      O32971   6.608   7.435   8.501
10910WAT     H132972   6.680   7.427   8.432
10910WAT     H232973   6.562   7.523   8.491
10911WAT      O32974   1.120   4.597   7.940
10911WAT     H132975   1.130   4.534   7.863
10911WAT     H232976   1.134   4.691   7.908
10912WAT      O32977   6.808   7.741   6.501
10912WAT     H132978   6.835   7.677   6.572
10912WAT     H232979   6.889   7.779   6.457
10913WAT      O32980   7.559   5.350   7.807
10913WAT     H132981   7.511   5.402   7.737
10913WAT     H232982   7.503   5.344   7.890
10914WAT      O32983   6.134   4.028   4.395
10914WAT     H132984   6.108   4.107   4.452
10914WAT     H232985   6.076   4.024   4.315
10915WAT      O32986   7.174   6.097   8.648
10915WAT     H132987   7.176   6.014   8.703
10915WAT     H232988   7.134   6.172   8.701
10916WAT      O32989   9.534   7.716   8.095
10916WAT     H132990   9.547   7.746   8.001
10916WAT     H232991   9.594   7.768   8.156
10917WAT      O32992   7.437   6.383   5.827
10917WAT     H132993   7.430   6.298   5.774
10917WAT     H232994   7.526   6.388   5.870
10918WAT      O32995   0.503   8.326   3.021
10918WAT     H132996   0.593   8.347   2.983
10918WAT     H232997   0.509   8.322   3.121
10919WAT      O32998   0.761   5.714   7.095
10919WAT     H132999   0.785   5.807   7.069
10919WAT     H233000   0.698   5.676   7.028
10920WAT      O33001   2.241   9.505   8.252
10920WAT     H133002   2.149   9.544   8.261
10920WAT     H233003   2.308   9.567   8.293
10921WAT      O33004   3.920   9.077   8.285
10921WAT     H133005   3.987   9.098   8.213
10921WAT     H233006   3.909   8.977   8.292
10922WAT      O33007   0.606   3.217   4.649
10922WAT     H133008   0.660   3.183   4.571
10922WAT     H233009   0.525   3.265   4.615
10923WAT      O33010   4.542   5.910   0.560
10923WAT     H133011   4.599   5.895   0.640
10923WAT     H233012   4.446   5.890   0.582
10924WAT      O33013   6.951   4.899   4.885
10924WAT     H133014   7.029   4.904   4.946
10924WAT     H233015   6.965   4.826   4.818
10925WAT      O33016   1.852   7.892   3.837
10925WAT     H133017   1.946   7.874   3.866
10925WAT     H233018   1.812   7.961   3.898
10926WAT      O33019   8.788   1.594   2.575
10926WAT     H133020   8.779   1.501   2.610
10926WAT     H233021   8.828   1.653   2.645
10927WAT      O33022   1.146   9.035   3.811
10927WAT     H133023   1.164   8.954   3.867
10927WAT     H233024   1.049   9.037   3.787
10928WAT      O33025   7.425   5.309   8.056
10928WAT     H133026   7.432   5.392   8.110
10928WAT     H233027   7.424   5.229   8.116
10929WAT      O33028   5.307   9.549   4.670
10929WAT     H133029   5.267   9.474   4.721
10929WAT     H233030   5.296   9.634   4.722
10930WAT      O33031   1.984   0.316   8.509
10930WAT     H133032   1.918   0.240   8.509
10930WAT     H233033   2.038   0.313   8.425
10931WAT      O33034   6.368   9.276   5.864
10931WAT     H133035   6.385   9.352   5.927
10931WAT     H233036   6.338   9.196   5.915
10932WAT      O33037   1.398   2.318   5.935
10932WAT     H133038   1.368   2.224   5.924
10932WAT     H233039   1.378   2.370   5.851
10933WAT      O33040   2.664   6.213   3.626
10933WAT     H133041   2.632   6.183   3.536
10933WAT     H233042   2.701   6.135   3.677
10934WAT      O33043   9.662   5.098   1.828
10934WAT     H133044   9.627   5.004   1.830
10934WAT     H233045   9.654   5.139   1.919
10935WAT      O33046   2.480   6.315   8.288
10935WAT     H133047   2.547   6.386   8.268
10935WAT     H233048   2.523   6.244   8.344
10936WAT      O33049   4.840   9.167   6.163
10936WAT     H133050   4.933   9.184   6.197
10936WAT     H233051   4.790   9.253   6.161
10937WAT      O33052   3.404   3.789   7.001
10937WAT     H133053   3.416   3.888   6.995
10937WAT     H233054   3.452   3.745   6.925
10938WAT      O33055   7.231   9.550   1.403
10938WAT     H133056   7.257   9.500   1.321
10938WAT     H233057   7.300   9.537   1.474
10939WAT      O33058   7.098   6.781   8.600
10939WAT     H133059   7.007   6.742   8.606
10939WAT     H233060   7.135   6.769   8.508
10940WAT      O33061   5.184   3.060   4.818
10940WAT     H133062   5.268   3.062   4.764
10940WAT     H233063   5.139   2.972   4.805
10941WAT      O33064   4.273   9.411   1.883
10941WAT     H133065   4.264   9.507   1.855
10941WAT     H233066   4.182   9.371   1.895
10942WAT      O33067   0.163   7.445   1.610
10942WAT     H133068   0.083   7.416   1.662
10942WAT     H233069   0.231   7.372   1.609
10943WAT      O33070   3.683   2.611   0.158
10943WAT     H133071   3.689   2.553   0.077
10943WAT     H233072   3.747   2.579   0.227
10944WAT      O33073   2.093   4.539   2.888
10944WAT     H133074   2.039   4.618   2.859
10944WAT     H233075   2.046   4.491   2.961
10945WAT      O33076   3.403   0.714   0.837
10945WAT     H133077   3.447   0.742   0.923
10945WAT     H233078   3.420   0.617   0.821
10946WAT      O33079   5.996   8.276   9.433
10946WAT     H133080   5.959   8.261   9.341
10946WAT     H233081   6.042   8.193   9.464
10947WAT      O33082   1.872   1.809   0.057
10947WAT     H133083   1.939   1.884   0.054
10947WAT     H233084   1.823   1.806  -0.030
10948WAT      O33085   1.456   5.700   2.616
10948WAT     H133086   1.509   5.633   2.565
10948WAT     H233087   1.359   5.673   2.618
10949WAT      O33088   5.185   8.870   7.099
10949WAT     H133089   5.169   8.812   7.020
10949WAT     H233090   5.267   8.840   7.147
10950WAT      O33091   6.546   6.550   5.023
10950WAT     H133092   6.615   6.489   4.986
10950WAT     H233093   6.456   6.508   5.015
10951WAT      O33094   9.651   8.600   1.197
10951WAT     H133095   9.610   8.651   1.121
10951WAT     H233096   9.729   8.652   1.233
10952WAT      O33097   6.471   1.138   4.340
10952WAT     H133098   6.496   1.042   4.328
10952WAT     H233099   6.400   1.163   4.273
10953WAT      O33100   4.070   0.675   2.974
10953WAT     H133101   4.113   0.604   3.030
10953WAT     H233102   4.029   0.633   2.894
10954WAT      O33103   4.563   9.289   6.930
10954WAT     H133104   4.622   9.370   6.937
10954WAT     H233105   4.620   9.209   6.914
10955WAT      O33106   9.847   3.642   8.781
10955WAT     H133107   9.901   3.632   8.697
10955WAT     H233108   9.760   3.687   8.760
10956WAT      O33109   0.347   4.955   7.814
10956WAT     H133110   0.348   4.988   7.909
10956WAT     H233111   0.430   4.985   7.767
10957WAT      O33112   5.629   4.350   7.785
10957WAT     H133113   5.540   4.350   7.829
10957WAT     H233114   5.700   4.324   7.851
10958WAT      O33115   5.794   7.592   2.103
10958WAT     H133116   5.705   7.612   2.144
10958WAT     H233117   5.854   7.672   2.114
10959WAT      O33118   1.085   0.395   1.302
10959WAT     H133119   1.061   0.371   1.396
10959WAT     H233120   1.004   0.427   1.254
10960WAT      O33121   1.314   7.710   3.646
10960WAT     H133122   1.303   7.613   3.669
10960WAT     H233123   1.349   7.718   3.553
10961WAT      O33124   5.565   1.760   1.787
10961WAT     H133125   5.630   1.742   1.713
10961WAT     H233126   5.506   1.837   1.762
10962WAT      O33127   0.244   9.033   4.653
10962WAT     H133128   0.243   9.128   4.623
10962WAT     H233129   0.150   9.001   4.666
10963WAT      O33130   0.987   2.056   0.897
10963WAT     H133131   1.044   1.977   0.919
10963WAT     H233132   0.935   2.037   0.814
10964WAT      O33133   6.337   5.323   6.137
10964WAT     H133134   6.421   5.316   6.191
10964WAT     H233135   6.332   5.414   6.096
10965WAT      O33136   0.247   3.581   1.816
10965WAT     H133137   0.236   3.639   1.735
10965WAT     H233138   0.340   3.543   1.818
10966WAT      O33139   2.182   5.338   0.237
10966WAT     H133140   2.170   5.404   0.164
10966WAT     H233141   2.208   5.249   0.199
10967WAT      O33142   5.800   2.519   4.735
10967WAT     H133143   5.752   2.599   4.698
10967WAT     H233144   5.836   2.541   4.825
10968WAT      O33145   7.689   3.600   7.955
10968WAT     H133146   7.591   3.622   7.946
10968WAT     H233147   7.734   3.673   8.007
10969WAT      O33148   7.594   2.489   3.081
10969WAT     H133149   7.683   2.469   3.122
10969WAT     H233150   7.607   2.524   2.989
10970WAT      O33151   9.074   3.196   4.180
10970WAT     H133152   9.169   3.226   4.188
10970WAT     H233153   9.062   3.109   4.229
10971WAT      O33154   9.706   1.322   9.400
10971WAT     H133155   9.624   1.307   9.456
10971WAT     H233156   9.683   1.374   9.319
10972WAT      O33157   6.039   0.853   4.526
10972WAT     H133158   5.978   0.931   4.535
10972WAT     H233159   5.995   0.782   4.471
10973WAT      O33160   4.128   8.755   6.180
10973WAT     H133161   4.036   8.788   6.159
10973WAT     H233162   4.163   8.702   6.103
10974WAT      O33163   4.881   5.430   6.230
10974WAT     H133164   4.805   5.482   6.269
10974WAT     H233165   4.950   5.493   6.195
10975WAT      O33166   9.753   6.909   7.936
10975WAT     H133167   9.772   6.983   7.872
10975WAT     H233168   9.768   6.821   7.891
10976WAT      O33169   4.505   9.692   0.323
10976WAT     H133170   4.426   9.702   0.263
10976WAT     H233171   4.519   9.776   0.374
10977WAT      O33172   9.669   0.947   0.699
10977WAT     H133173   9.611   1.027   0.687
10977WAT     H233174   9.615   0.864   0.687
10978WAT      O33175   9.523   4.414   8.579
10978WAT     H133176   9.569   4.331   8.548
10978WAT     H233177   9.475   4.396   8.664
10979WAT      O33178   3.774   6.010   7.618
10979WAT     H133179   3.788   5.962   7.531
10979WAT     H233180   3.700   5.965   7.668
10980WAT      O33181   5.627   4.680   3.366
10980WAT     H133182   5.681   4.604   3.329
10980WAT     H233183   5.687   4.757   3.387
10981WAT      O33184   0.634   8.765   5.172
10981WAT     H133185   0.540   8.778   5.201
10981WAT     H233186   0.696   8.793   5.246
10982WAT      O33187   9.473   2.970   1.228
10982WAT     H133188   9.496   2.886   1.278
10982WAT     H233189   9.392   3.012   1.269
10983WAT      O33190   5.755   8.287   5.446
10983WAT     H133191   5.691   8.361   5.426
10983WAT     H233192   5.846   8.312   5.416
10984WAT      O33193   8.819   6.277   1.840
10984WAT     H133194   8.787   6.243   1.752
10984WAT     H233195   8.798   6.374   1.848
10985WAT      O33196   5.258   2.363   8.298
10985WAT     H133197   5.258   2.264   8.286
10985WAT     H233198   5.254   2.408   8.208
10986WAT      O33199   8.024   2.228   4.100
10986WAT     H133200   7.989   2.282   4.023
10986WAT     H233201   8.057   2.140   4.068
10987WAT      O33202   2.536   4.096   5.333
10987WAT     H133203   2.552   4.055   5.243
10987WAT     H233204   2.478   4.177   5.323
10988WAT      O33205   9.815   9.784   4.877
10988WAT     H133206   9.729   9.734   4.886
10988WAT     H233207   9.800   9.881   4.894
10989WAT      O33208   6.269   7.293   4.197
10989WAT     H133209   6.323   7.227   4.145
10989WAT     H233210   6.320   7.379   4.205
10990WAT      O33211   6.187   0.018   6.972
10990WAT     H133212   6.115   0.029   6.903
10990WAT     H233213   6.150   0.040   7.062
10991WAT      O33214   8.015   0.754   4.410
10991WAT     H133215   7.945   0.694   4.374
10991WAT     H233216   7.996   0.774   4.506
10992WAT      O33217   7.417   1.013   8.531
10992WAT     H133218   7.456   1.100   8.498
10992WAT     H233219   7.489   0.944   8.535
10993WAT      O33220   9.568   1.446   8.165
10993WAT     H133221   9.480   1.492   8.156
10993WAT     H233222   9.639   1.500   8.120
10994WAT      O33223   2.437   5.344   5.158
10994WAT     H133224   2.463   5.277   5.088
10994WAT     H233225   2.338   5.345   5.167
10995WAT      O33226   3.673   8.102   8.322
10995WAT     H133227   3.624   8.110   8.409
10995WAT     H233228   3.663   8.009   8.286
10996WAT      O33229   7.444   2.072   4.791
10996WAT     H133230   7.373   2.100   4.856
10996WAT     H233231   7.458   2.146   4.725
10997WAT      O33232   0.574   9.541   8.659
10997WAT     H133233   0.674   9.534   8.659
10997WAT     H233234   0.546   9.614   8.596
10998WAT      O33235   5.608   6.806   0.618
10998WAT     H133236   5.648   6.858   0.694
10998WAT     H233237   5.680   6.782   0.553
10999WAT      O33238   4.188   8.867   1.031
10999WAT     H133239   4.216   8.889   0.938
10999WAT     H233240   4.166   8.951   1.080
11000WAT      O33241   5.509   1.439   1.798
11000WAT     H133242   5.415   1.447   1.831
11000WAT     H233243   5.515   1.474   1.705
11001WAT      O33244   8.409   5.219   6.052
11001WAT     H133245   8.452   5.308   6.033
11001WAT     H233246   8.315   5.219   6.018
11002WAT      O33247   5.051   4.579   5.984
11002WAT     H133248   5.001   4.496   5.962
11002WAT     H233249   5.113   4.603   5.909
11003WAT      O33250   6.361   0.583   9.204
11003WAT     H133251   6.308   0.589   9.288
11003WAT     H233252   6.312   0.628   9.129
11004WAT      O33253   0.572   3.196   7.679
11004WAT     H133254   0.549   3.099   7.665
11004WAT     H233255   0.664   3.203   7.718
11005WAT      O33256   1.861   5.590   5.466
11005WAT     H133257   1.880   5.661   5.533
11005WAT     H233258   1.764   5.593   5.441
11006WAT      O33259   4.517   0.575   0.594
11006WAT     H133260   4.557   0.663   0.569
11006WAT     H233261   4.500   0.521   0.511
11007WAT      O33262   6.885   0.806   6.599
11007WAT     H133263   6.914   0.763   6.684
11007WAT     H233264   6.853   0.736   6.535
11008WAT      O33265   6.463   2.853   2.752
11008WAT     H133266   6.400   2.879   2.825
11008WAT     H233267   6.412   2.819   2.673
11009WAT      O33268   6.894   9.081   6.495
11009WAT     H133269   6.902   9.112   6.400
11009WAT     H233270   6.973   9.113   6.547
11010WAT      O33271   4.053   4.185   0.735
11010WAT     H133272   4.113   4.170   0.813
11010WAT     H233273   3.969   4.131   0.746
11011WAT      O33274   1.373   8.865   7.439
11011WAT     H133275   1.351   8.961   7.424
11011WAT     H233276   1.455   8.857   7.496
11012WAT      O33277   2.097   5.287   9.049
11012WAT     H133278   2.000   5.265   9.037
11012WAT     H233279   2.107   5.351   9.126
11013WAT      O33280   8.124   2.198   2.660
11013WAT     H133281   8.139   2.272   2.726
11013WAT     H233282   8.110   2.112   2.708
11014WAT      O33283   0.536   0.931   3.587
11014WAT     H133284   0.598   0.969   3.518
11014WAT     H233285   0.441   0.946   3.559
11015WAT      O33286   9.690   8.393   9.768
11015WAT     H133287   9.702   8.360   9.674
11015WAT     H233288   9.636   8.327   9.819
11016WAT      O33289   5.677   2.044   2.550
11016WAT     H133290   5.609   2.111   2.522
11016WAT     H233291   5.740   2.086   2.616
11017WAT      O33292   8.093   2.664   8.919
11017WAT     H133293   8.073   2.628   9.011
11017WAT     H233294   8.060   2.600   8.850
11018WAT      O33295   7.870   6.694   3.047
11018WAT     H133296   7.959   6.724   3.081
11018WAT     H233297   7.858   6.597   3.067
11019WAT      O33298   3.726   4.627   3.358
11019WAT     H133299   3.737   4.598   3.263
11019WAT     H233300   3.791   4.578   3.416
11020WAT      O33301   6.784   8.379   5.733
11020WAT     H133302   6.776   8.460   5.791
11020WAT     H233303   6.711   8.314   5.755
11021WAT      O33304   9.134   4.203   7.226
11021WAT     H133305   9.215   4.150   7.251
11021WAT     H233306   9.094   4.242   7.309
11022WAT      O33307   2.227   9.422   5.070
11022WAT     H133308   2.166   9.403   4.993
11022WAT     H233309   2.301   9.354   5.071
11023WAT      O33310   6.111   4.977   6.988
11023WAT     H133311   6.019   4.948   7.014
11023WAT     H233312   6.106   5.059   6.932
11024WAT      O33313   0.713   8.752   3.395
11024WAT     H133314   0.725   8.784   3.301
11024WAT     H233315   0.625   8.706   3.404
11025WAT      O33316   7.766   1.786   6.785
11025WAT     H133317   7.855   1.830   6.800
11025WAT     H233318   7.717   1.781   6.872
11026WAT      O33319   9.734   3.597   4.656
11026WAT     H133320   9.663   3.527   4.644
11026WAT     H233321   9.778   3.584   4.745
11027WAT      O33322   8.860   9.372   8.946
11027WAT     H133323   8.841   9.409   9.037
11027WAT     H233324   8.885   9.275   8.954
11028WAT      O33325   3.483   0.720   2.867
11028WAT     H133326   3.450   0.715   2.962
11028WAT     H233327   3.494   0.816   2.841
11029WAT      O33328   2.128   6.153   7.991
11029WAT     H133329   2.125   6.091   7.912
11029WAT     H233330   2.120   6.100   8.075
11030WAT      O33331   2.755   8.362   1.255
11030WAT     H133332   2.758   8.265   1.282
11030WAT     H233333   2.684   8.409   1.308
11031WAT      O33334   6.549   9.464   3.063
11031WAT     H133335   6.529   9.373   3.026
11031WAT     H233336   6.471   9.497   3.116
11032WAT      O33337   2.787   8.564   0.641
11032WAT     H133338   2.837   8.566   0.728
11032WAT     H233339   2.708   8.504   0.650
11033WAT      O33340   3.105   5.148   8.177
11033WAT     H133341   3.082   5.112   8.086
11033WAT     H233342   3.189   5.201   8.172
11034WAT      O33343   7.506   7.178   9.687
11034WAT     H133344   7.562   7.243   9.637
11034WAT     H233345   7.542   7.085   9.675
11035WAT      O33346   0.896   1.469   9.516
11035WAT     H133347   0.895   1.547   9.455
11035WAT     H233348   0.975   1.411   9.496
11036WAT      O33349   8.592   5.660   8.323
11036WAT     H133350   8.687   5.653   8.292
11036WAT     H233351   8.583   5.617   8.413
11037WAT      O33352   7.011   8.337   1.938
11037WAT     H133353   7.027   8.370   2.031
11037WAT     H233354   6.983   8.413   1.880
11038WAT      O33355   8.412   5.687   9.164
11038WAT     H133356   8.456   5.740   9.091
11038WAT     H233357   8.313   5.699   9.159
11039WAT      O33358   2.568   5.777   9.893
11039WAT     H133359   2.473   5.765   9.920
11039WAT     H233360   2.572   5.805   9.797
11040WAT      O33361   9.885   7.524   7.168
11040WAT     H133362   9.791   7.543   7.138
11040WAT     H233363   9.924   7.451   7.112
11041WAT      O33364   2.814   1.275   0.011
11041WAT     H133365   2.873   1.323  -0.053
11041WAT     H233366   2.740   1.230  -0.039
11042WAT      O33367   3.671   9.070   8.711
11042WAT     H133368   3.711   9.003   8.773
11042WAT     H233369   3.660   9.157   8.757
11043WAT      O33370   0.767   1.177   2.913
11043WAT     H133371   0.669   1.154   2.918
11043WAT     H233372   0.799   1.205   3.004
11044WAT      O33373   9.022   0.669   9.569
11044WAT     H133374   9.076   0.727   9.507
11044WAT     H233375   9.049   0.688   9.664
11045WAT      O33376   7.319   8.715   6.039
11045WAT     H133377   7.262   8.646   5.995
11045WAT     H233378   7.340   8.686   6.132
11046WAT      O33379   6.714   1.223   7.947
11046WAT     H133380   6.806   1.193   7.975
11046WAT     H233381   6.648   1.196   8.016
11047WAT      O33382   4.087   8.045   3.936
11047WAT     H133383   4.076   8.012   4.030
11047WAT     H233384   4.002   8.029   3.885
11048WAT      O33385   8.081   0.199   0.983
11048WAT     H133386   8.032   0.284   0.962
11048WAT     H233387   8.119   0.204   1.075
11049WAT      O33388   5.761   9.016   2.736
11049WAT     H133389   5.838   8.979   2.685
11049WAT     H233390   5.753   9.114   2.718
11050WAT      O33391   8.726   0.903   0.132
11050WAT     H133392   8.793   0.913   0.058
11050WAT     H233393   8.774   0.889   0.219
11051WAT      O33394   1.291   7.349   9.163
11051WAT     H133395   1.262   7.429   9.217
11051WAT     H233396   1.358   7.377   9.095
11052WAT      O33397   8.129   7.889   9.564
11052WAT     H133398   8.085   7.962   9.512
11052WAT     H233399   8.078   7.872   9.648
11053WAT      O33400   7.313   4.059   3.202
11053WAT     H133401   7.253   4.117   3.145
11053WAT     H233402   7.370   4.118   3.260
11054WAT      O33403   2.807   6.792   1.311
11054WAT     H133404   2.802   6.787   1.410
11054WAT     H233405   2.793   6.701   1.272
11055WAT      O33406   6.759   7.776   9.869
11055WAT     H133407   6.777   7.681   9.894
11055WAT     H233408   6.828   7.835   9.910
11056WAT      O33409   8.022   1.266   4.042
11056WAT     H133410   7.961   1.295   4.116
11056WAT     H233411   8.109   1.316   4.050
11057WAT      O33412   4.312   2.685   5.135
11057WAT     H133413   4.399   2.732   5.119
11057WAT     H233414   4.285   2.636   5.052
11058WAT      O33415   7.603   6.961   3.232
11058WAT     H133416   7.504   6.970   3.225
11058WAT     H233417   7.626   6.928   3.324
11059WAT      O33418   9.358   0.380   2.678
11059WAT     H133419   9.367   0.342   2.770
11059WAT     H233420   9.373   0.479   2.681
11060WAT      O33421   7.190   4.754   0.530
11060WAT     H133422   7.191   4.849   0.561
11060WAT     H233423   7.226   4.695   0.602
11061WAT      O33424   4.198   2.705   2.385
11061WAT     H133425   4.243   2.794   2.389
11061WAT     H233426   4.128   2.706   2.314
11062WAT      O33427   3.224   0.008   2.549
11062WAT     H133428   3.276  -0.059   2.497
11062WAT     H233429   3.247  -0.000   2.646
11063WAT      O33430   9.136   6.528   6.783
11063WAT     H133431   9.174   6.595   6.847
11063WAT     H233432   9.191   6.444   6.786
11064WAT      O33433   3.993   5.467   0.540
11064WAT     H133434   4.043   5.550   0.567
11064WAT     H233435   4.047   5.416   0.472
11065WAT      O33436   0.571   6.826   0.478
11065WAT     H133437   0.501   6.815   0.548
11065WAT     H233438   0.661   6.827   0.521
11066WAT      O33439   0.327   6.110   7.670
11066WAT     H133440   0.405   6.056   7.700
11066WAT     H233441   0.268   6.055   7.612
11067WAT      O33442   8.420   8.975   4.414
11067WAT     H133443   8.456   8.991   4.322
11067WAT     H233444   8.362   9.051   4.441
11068WAT      O33445   0.037   0.088   6.074
11068WAT     H133446   0.022  -0.010   6.066
11068WAT     H233447  -0.051   0.135   6.086
11069WAT      O33448   3.084   8.602   9.654
11069WAT     H133449   3.079   8.596   9.554
11069WAT     H233450   3.131   8.686   9.680
11070WAT      O33451   2.566   0.495   2.409
11070WAT     H133452   2.489   0.553   2.381
11070WAT     H233453   2.586   0.511   2.505
11071WAT      O33454   3.414   0.413   7.107
11071WAT     H133455   3.495   0.422   7.049
11071WAT     H233456   3.390   0.502   7.145
11072WAT      O33457   6.528   2.654   9.307
11072WAT     H133458   6.547   2.691   9.398
11072WAT     H233459   6.555   2.558   9.304
11073WAT      O33460   1.548   8.942   8.040
11073WAT     H133461   1.640   8.940   8.001
11073WAT     H233462   1.552   8.911   8.135
11074WAT      O33463   0.834   3.171   1.563
11074WAT     H133464   0.853   3.120   1.479
11074WAT     H233465   0.898   3.247   1.571
11075WAT      O33466   6.278   2.411   2.377
11075WAT     H133467   6.238   2.471   2.447
11075WAT     H233468   6.310   2.327   2.420
11076WAT      O33469   1.889   4.849   3.278
11076WAT     H133470   1.851   4.809   3.194
11076WAT     H233471   1.878   4.784   3.353
11077WAT      O33472   7.887   0.185   8.717
11077WAT     H133473   7.969   0.160   8.768
11077WAT     H233474   7.807   0.148   8.764
11078WAT      O33475   1.421   0.075   6.953
11078WAT     H133476   1.359   0.015   7.003
11078WAT     H233477   1.369   0.130   6.888
11079WAT      O33478   5.043   3.274   8.604
11079WAT     H133479   4.988   3.350   8.570
11079WAT     H233480   5.064   3.287   8.701
11080WAT      O33481   8.354   0.563   8.432
11080WAT     H133482   8.445   0.604   8.438
11080WAT     H233483   8.301   0.610   8.361
11081WAT      O33484   0.602   2.895   5.920
11081WAT     H133485   0.532   2.855   5.862
11081WAT     H233486   0.604   2.994   5.907
11082WAT      O33487   7.058   1.185   9.447
11082WAT     H133488   7.053   1.094   9.488
11082WAT     H233489   6.987   1.243   9.487
11083WAT      O33490   3.473   2.057   3.003
11083WAT     H133491   3.409   2.001   3.055
11083WAT     H233492   3.534   2.105   3.067
11084WAT      O33493   3.477   6.336   8.083
11084WAT     H133494   3.391   6.347   8.133
11084WAT     H233495   3.554   6.350   8.145
11085WAT      O33496   1.688   8.080   4.987
11085WAT     H133497   1.714   8.119   4.899
11085WAT     H233498   1.756   8.104   5.056
11086WAT      O33499   4.607   9.062   1.806
11086WAT     H133500   4.539   9.134   1.790
11086WAT     H233501   4.643   9.071   1.898
11087WAT      O33502   8.345   2.575   3.311
11087WAT     H133503   8.336   2.483   3.348
11087WAT     H233504   8.265   2.629   3.337
11088WAT      O33505   3.398   9.089   7.828
11088WAT     H133506   3.494   9.079   7.855
11088WAT     H233507   3.393   9.146   7.745
11089WAT      O33508   9.230   9.510   5.038
11089WAT     H133509   9.189   9.462   5.115
11089WAT     H233510   9.262   9.444   4.970
11090WAT      O33511   2.561   1.480   0.031
11090WAT     H133512   2.639   1.472   0.094
11090WAT     H233513   2.575   1.419  -0.047
11091WAT      O33514   6.158   9.678   3.607
11091WAT     H133515   6.250   9.708   3.582
11091WAT     H233516   6.109   9.753   3.651
11092WAT      O33517   9.140   3.167   0.397
11092WAT     H133518   9.166   3.078   0.359
11092WAT     H233519   9.223   3.220   0.416
11093WAT      O33520   3.186   7.110   8.662
11093WAT     H133521   3.255   7.145   8.726
11093WAT     H233522   3.232   7.069   8.583
11094WAT      O33523   4.617   6.933   7.207
11094WAT     H133524   4.637   6.977   7.119
11094WAT     H233525   4.699   6.887   7.240
11095WAT      O33526   5.838   6.553   8.494
11095WAT     H133527   5.891   6.636   8.477
11095WAT     H233528   5.741   6.576   8.504
11096WAT      O33529   7.671   3.089   7.205
11096WAT     H133530   7.753   3.034   7.193
11096WAT     H233531   7.593   3.043   7.161
11097WAT      O33532   3.837   9.239   5.277
11097WAT     H133533   3.751   9.216   5.322
11097WAT     H233534   3.843   9.191   5.189
11098WAT      O33535   7.873   8.006   1.452
11098WAT     H133536   7.790   7.967   1.493
11098WAT     H233537   7.900   8.087   1.504
11099WAT      O33538   2.329   2.303   0.668
11099WAT     H133539   2.355   2.272   0.577
11099WAT     H233540   2.358   2.236   0.736
11100WAT      O33541   6.704   9.537   7.952
11100WAT     H133542   6.782   9.486   7.917
11100WAT     H233543   6.736   9.624   7.992
11101WAT      O33544   3.878   2.238   7.960
11101WAT     H133545   3.900   2.154   7.910
11101WAT     H233546   3.948   2.307   7.943
11102WAT      O33547   2.280   8.965   5.098
11102WAT     H133548   2.238   8.997   5.183
11102WAT     H233549   2.380   8.964   5.109
11103WAT      O33550   5.182   9.346   8.788
11103WAT     H133551   5.164   9.253   8.755
11103WAT     H233552   5.208   9.404   8.711
11104WAT      O33553   5.542   2.309   9.262
11104WAT     H133554   5.444   2.304   9.242
11104WAT     H233555   5.563   2.398   9.302
11105WAT      O33556   6.447   9.658   9.114
11105WAT     H133557   6.361   9.633   9.158
11105WAT     H233558   6.502   9.712   9.177
11106WAT      O33559   7.568   1.264   8.616
11106WAT     H133560   7.590   1.207   8.537
11106WAT     H233561   7.610   1.226   8.698
11107WAT      O33562   5.300   6.397   3.236
11107WAT     H133563   5.305   6.467   3.165
11107WAT     H233564   5.222   6.337   3.218
11108WAT      O33565   9.826   9.057   4.062
11108WAT     H133566   9.855   9.047   3.967
11108WAT     H233567   9.872   9.135   4.104
11109WAT      O33568   5.299   5.840   6.165
11109WAT     H133569   5.238   5.905   6.209
11109WAT     H233570   5.356   5.887   6.098
11110WAT      O33571   2.039   4.467   6.731
11110WAT     H133572   1.961   4.463   6.668
11110WAT     H233573   2.124   4.469   6.679
11111WAT      O33574   5.525   8.521   3.083
11111WAT     H133575   5.557   8.614   3.097
11111WAT     H233576   5.534   8.469   3.169
11112WAT      O33577   9.327   0.409   1.619
11112WAT     H133578   9.425   0.415   1.601
11112WAT     H233579   9.302   0.314   1.639
11113WAT      O33580   1.596   3.303   5.930
11113WAT     H133581   1.624   3.335   6.021
11113WAT     H233582   1.666   3.327   5.863
11114WAT      O33583   2.441   7.615   0.171
11114WAT     H133584   2.420   7.557   0.249
11114WAT     H233585   2.526   7.584   0.128
11115WAT      O33586   4.834   5.200   7.411
11115WAT     H133587   4.767   5.273   7.422
11115WAT     H233588   4.815   5.127   7.477
11116WAT      O33589   6.423   6.406   8.611
11116WAT     H133590   6.364   6.447   8.681
11116WAT     H233591   6.425   6.466   8.531
11117WAT      O33592   0.835   2.059   7.983
11117WAT     H133593   0.800   2.090   7.894
11117WAT     H233594   0.932   2.080   7.990
11118WAT      O33595   0.438   4.353   7.981
11118WAT     H133596   0.457   4.396   8.069
11118WAT     H233597   0.412   4.423   7.914
11119WAT      O33598   7.752   6.142   3.391
11119WAT     H133599   7.701   6.070   3.438
11119WAT     H233600   7.722   6.147   3.296
11120WAT      O33601   6.898   4.483   2.891
11120WAT     H133602   6.922   4.439   2.805
11120WAT     H233603   6.844   4.419   2.947
11121WAT      O33604   5.203   8.416   5.244
11121WAT     H133605   5.260   8.359   5.303
11121WAT     H233606   5.196   8.508   5.283
11122WAT      O33607   4.370   1.657   3.774
11122WAT     H133608   4.343   1.604   3.854
11122WAT     H233609   4.405   1.595   3.703
11123WAT      O33610   3.194   2.305   0.931
11123WAT     H133611   3.253   2.304   1.012
11123WAT     H233612   3.180   2.211   0.900
11124WAT      O33613   6.202   9.282   3.541
11124WAT     H133614   6.115   9.234   3.530
11124WAT     H233615   6.274   9.218   3.566
11125WAT      O33616   0.769   2.263   1.275
11125WAT     H133617   0.693   2.310   1.321
11125WAT     H233618   0.822   2.213   1.343
11126WAT      O33619   7.312   3.831   0.198
11126WAT     H133620   7.365   3.772   0.136
11126WAT     H233621   7.363   3.915   0.216
11127WAT      O33622   8.019   8.135   2.627
11127WAT     H133623   8.093   8.172   2.571
11127WAT     H233624   8.032   8.036   2.637
11128WAT      O33625   6.254   6.920   6.456
11128WAT     H133626   6.250   7.002   6.400
11128WAT     H233627   6.292   6.844   6.403
11129WAT      O33628   0.247   8.669   8.927
11129WAT     H133629   0.246   8.747   8.864
11129WAT     H233630   0.184   8.688   9.003
11130WAT      O33631   3.818   1.348   3.891
11130WAT     H133632   3.899   1.312   3.938
11130WAT     H233633   3.804   1.444   3.916
11131WAT      O33634   4.982   2.635   0.882
11131WAT     H133635   4.888   2.670   0.879
11131WAT     H233636   5.039   2.686   0.817
11132WAT      O33637   7.130   7.191   4.072
11132WAT     H133638   7.093   7.267   4.018
11132WAT     H233639   7.057   7.150   4.126
11133WAT      O33640   7.733   2.444   7.863
11133WAT     H133641   7.823   2.405   7.842
11133WAT     H233642   7.663   2.396   7.811
11134WAT      O33643   5.045   1.309   3.308
11134WAT     H133644   4.976   1.356   3.364
11134WAT     H233645   5.004   1.229   3.265
11135WAT      O33646   1.281   3.353   7.577
11135WAT     H133647   1.281   3.449   7.549
11135WAT     H233648   1.374   3.326   7.604
11136WAT      O33649   9.189   6.242   6.039
11136WAT     H133650   9.256   6.177   6.074
11136WAT     H233651   9.233   6.331   6.027
11137WAT      O33652   5.472   7.348   0.875
11137WAT     H133653   5.445   7.443   0.889
11137WAT     H233654   5.406   7.301   0.817
11138WAT      O33655   5.579   7.236   4.779
11138WAT     H133656   5.642   7.192   4.715
11138WAT     H233657   5.512   7.290   4.728
11139WAT      O33658   7.459   5.336   6.198
11139WAT     H133659   7.454   5.287   6.111
11139WAT     H233660   7.520   5.415   6.189
11140WAT      O33661   9.799   6.653   4.007
11140WAT     H133662   9.893   6.664   4.040
11140WAT     H233663   9.752   6.741   4.010
11141WAT      O33664   7.884   7.685   7.158
11141WAT     H133665   7.803   7.627   7.172
11141WAT     H233666   7.924   7.664   7.069
11142WAT      O33667   4.204   0.579   3.446
11142WAT     H133668   4.174   0.675   3.450
11142WAT     H233669   4.132   0.521   3.484
11143WAT      O33670   3.901   7.634   4.376
11143WAT     H133671   3.924   7.629   4.473
11143WAT     H233672   3.976   7.677   4.326
11144WAT      O33673   0.801   5.021   4.270
11144WAT     H133674   0.744   4.947   4.234
11144WAT     H233675   0.744   5.086   4.321
11145WAT      O33676   2.146   3.611   3.548
11145WAT     H133677   2.147   3.711   3.536
11145WAT     H233678   2.062   3.584   3.596
11146WAT      O33679   1.217   5.814   1.480
11146WAT     H133680   1.201   5.823   1.578
11146WAT     H233681   1.311   5.784   1.464
11147WAT      O33682   1.411   1.307   2.112
11147WAT     H133683   1.452   1.299   2.021
11147WAT     H233684   1.351   1.387   2.114
11148WAT      O33685   3.965   6.150   7.751
11148WAT     H133686   3.913   6.213   7.809
11148WAT     H233687   3.902   6.092   7.699
11149WAT      O33688   4.595   7.319   3.485
11149WAT     H133689   4.608   7.297   3.582
11149WAT     H233690   4.498   7.309   3.461
11150WAT      O33691   4.518   9.558   9.277
11150WAT     H133692   4.551   9.529   9.366
11150WAT     H233693   4.471   9.646   9.286
11151WAT      O33694   1.347   6.188   0.561
11151WAT     H133695   1.305   6.100   0.584
11151WAT     H233696   1.288   6.237   0.496
11152WAT      O33697   5.367   5.397   1.376
11152WAT     H133698   5.416   5.321   1.419
11152WAT     H233699   5.401   5.410   1.283
11153WAT      O33700   6.417   8.263   4.895
11153WAT     H133701   6.496   8.256   4.956
11153WAT     H233702   6.364   8.345   4.917
11154WAT      O33703   3.150   4.628   2.614
11154WAT     H133704   3.164   4.557   2.683
11154WAT     H233705   3.055   4.625   2.582
11155WAT      O33706   5.121   4.817   9.326
11155WAT     H133707   5.211   4.852   9.300
11155WAT     H233708   5.103   4.732   9.275
11156WAT      O33709   1.898   0.913   7.562
11156WAT     H133710   1.992   0.928   7.591
11156WAT     H233711   1.896   0.900   7.463
11157WAT      O33712   6.973   3.922   2.879
11157WAT     H133713   6.960   3.852   2.949
11157WAT     H233714   6.895   3.920   2.816
11158WAT      O33715   9.766   0.235   4.910
11158WAT     H133716   9.674   0.269   4.927
11158WAT     H233717   9.789   0.248   4.813
11159WAT      O33718   6.257   8.910   3.689
11159WAT     H133719   6.184   8.883   3.751
11159WAT     H233720   6.228   8.893   3.595
11160WAT      O33721   1.313   8.245   6.004
11160WAT     H133722   1.376   8.168   5.995
11160WAT     H233723   1.253   8.231   6.083
11161WAT      O33724   8.380   8.983   7.692
11161WAT     H133725   8.460   8.931   7.722
11161WAT     H233726   8.373   8.976   7.592
11162WAT      O33727   4.498   6.846   7.958
11162WAT     H133728   4.436   6.780   7.917
11162WAT     H233729   4.454   6.936   7.961
11163WAT      O33730   1.066   1.891   5.658
11163WAT     H133731   1.151   1.944   5.655
11163WAT     H233732   0.995   1.939   5.607
11164WAT      O33733   2.792   7.128   5.127
11164WAT     H133734   2.699   7.134   5.091
11164WAT     H233735   2.847   7.070   5.067
11165WAT      O33736   6.292   2.358   7.135
11165WAT     H133737   6.312   2.389   7.042
11165WAT     H233738   6.209   2.404   7.168
11166WAT      O33739   6.346   9.274   0.287
11166WAT     H133740   6.382   9.193   0.240
11166WAT     H233741   6.413   9.348   0.281
11167WAT      O33742   6.825   2.649   0.057
11167WAT     H133743   6.736   2.616   0.088
11167WAT     H233744   6.829   2.648  -0.042
11168WAT      O33745   6.886   3.539   8.850
11168WAT     H133746   6.917   3.593   8.928
11168WAT     H233747   6.838   3.597   8.785
11169WAT      O33748   2.635   7.366   4.900
11169WAT     H133749   2.626   7.267   4.897
11169WAT     H233750   2.731   7.390   4.916
11170WAT      O33751   9.854   0.334   8.491
11170WAT     H133752   9.920   0.373   8.555
11170WAT     H233753   9.787   0.280   8.541
11171WAT      O33754   4.801   4.892   1.673
11171WAT     H133755   4.748   4.937   1.744
11171WAT     H233756   4.788   4.941   1.586
11172WAT      O33757   5.501   0.253   1.492
11172WAT     H133758   5.440   0.327   1.462
11172WAT     H233759   5.538   0.275   1.582
11173WAT      O33760   8.181   5.632   8.748
11173WAT     H133761   8.201   5.636   8.846
11173WAT     H233762   8.108   5.567   8.731
11174WAT      O33763   6.797   4.304   3.080
11174WAT     H133764   6.703   4.273   3.065
11174WAT     H233765   6.805   4.342   3.172
11175WAT      O33766   0.390   3.476   5.440
11175WAT     H133767   0.457   3.522   5.498
11175WAT     H233768   0.359   3.540   5.369
11176WAT      O33769   1.922   1.908   6.136
11176WAT     H133770   1.874   1.982   6.090
11176WAT     H233771   1.966   1.849   6.068
11177WAT      O33772   9.595   8.874   2.722
11177WAT     H133773   9.633   8.797   2.670
11177WAT     H233774   9.613   8.861   2.819
11178WAT      O33775   2.305   7.814   4.195
11178WAT     H133776   2.292   7.738   4.259
11178WAT     H233777   2.402   7.827   4.178
11179WAT      O33778   3.108   3.057   3.736
11179WAT     H133779   3.054   2.993   3.681
11179WAT     H233780   3.153   3.124   3.677
11180WAT      O33781   8.471   3.080   4.239
11180WAT     H133782   8.423   3.152   4.190
11180WAT     H233783   8.567   3.080   4.213
11181WAT      O33784   3.378   4.309   6.762
11181WAT     H133785   3.365   4.405   6.788
11181WAT     H233786   3.353   4.297   6.666
11182WAT      O33787   3.590   5.364   6.679
11182WAT     H133788   3.528   5.433   6.716
11182WAT     H233789   3.537   5.289   6.639
11183WAT      O33790   5.384   5.214   2.579
11183WAT     H133791   5.313   5.204   2.509
11183WAT     H233792   5.375   5.140   2.646
11184WAT      O33793   3.778   0.283   0.549
11184WAT     H133794   3.699   0.344   0.552
11184WAT     H233795   3.779   0.235   0.461
11185WAT      O33796   8.623   8.643   7.850
11185WAT     H133797   8.588   8.560   7.807
11185WAT     H233798   8.697   8.680   7.794
11186WAT      O33799   0.618   3.761   8.472
11186WAT     H133800   0.520   3.766   8.492
11186WAT     H233801   0.641   3.828   8.401
11187WAT      O33802   6.108   7.621   4.756
11187WAT     H133803   6.050   7.654   4.682
11187WAT     H233804   6.091   7.524   4.772
11188WAT      O33805   1.892   1.776   5.499
11188WAT     H133806   1.933   1.685   5.499
11188WAT     H233807   1.800   1.771   5.539
11189WAT      O33808   1.777   4.105   3.171
11189WAT     H133809   1.834   4.111   3.253
11189WAT     H233810   1.745   4.196   3.146
11190WAT      O33811   9.863   9.575   1.180
11190WAT     H133812   9.782   9.617   1.221
11190WAT     H233813   9.872   9.606   1.086
11191WAT      O33814   0.343   8.113   2.145
11191WAT     H133815   0.355   8.182   2.074
11191WAT     H233816   0.318   8.026   2.103
11192WAT      O33817   7.178   0.678   5.623
11192WAT     H133818   7.088   0.699   5.663
11192WAT     H233819   7.211   0.757   5.573
11193WAT      O33820   9.615   5.847   1.299
11193WAT     H133821   9.662   5.762   1.276
11193WAT     H233822   9.543   5.864   1.231
11194WAT      O33823   8.038   5.437   0.693
11194WAT     H133824   8.132   5.403   0.683
11194WAT     H233825   7.974   5.361   0.686
11195WAT      O33826   2.654   2.373   7.500
11195WAT     H133827   2.597   2.441   7.452
11195WAT     H233828   2.595   2.304   7.542
11196WAT      O33829   9.231   9.238   6.460
11196WAT     H133830   9.244   9.308   6.389
11196WAT     H233831   9.135   9.213   6.465
11197WAT      O33832   3.016   2.810   1.761
11197WAT     H133833   3.012   2.897   1.810
11197WAT     H233834   3.083   2.816   1.687
11198WAT      O33835   1.364   5.539   7.494
11198WAT     H133836   1.288   5.537   7.560
11198WAT     H233837   1.335   5.496   7.409
11199WAT      O33838   1.713   9.248   6.810
11199WAT     H133839   1.661   9.325   6.773
11199WAT     H233840   1.776   9.281   6.880
11200WAT      O33841   6.145   7.198   2.824
11200WAT     H133842   6.054   7.227   2.794
11200WAT     H233843   6.194   7.276   2.863
11201WAT      O33844   6.038   4.174   7.656
11201WAT     H133845   5.978   4.214   7.586
11201WAT     H233846   6.082   4.092   7.619
11202WAT      O33847   2.778   4.543   0.570
11202WAT     H133848   2.796   4.514   0.476
11202WAT     H233849   2.738   4.467   0.621
11203WAT      O33850   6.628   6.442   1.016
11203WAT     H133851   6.620   6.345   0.992
11203WAT     H233852   6.672   6.492   0.942
11204WAT      O33853   0.042   5.666   1.321
11204WAT     H133854  -0.048   5.666   1.278
11204WAT     H233855   0.057   5.578   1.366
11205WAT      O33856   2.890   7.051   8.563
11205WAT     H133857   2.842   7.135   8.587
11205WAT     H233858   2.948   7.067   8.483
11206WAT      O33859   3.921   6.816   6.660
11206WAT     H133860   3.948   6.727   6.623
11206WAT     H233861   3.966   6.889   6.608
11207WAT      O33862   6.622   9.190   7.275
11207WAT     H133863   6.609   9.288   7.257
11207WAT     H233864   6.594   9.170   7.369
11208WAT      O33865   8.685   3.916   2.792
11208WAT     H133866   8.595   3.886   2.760
11208WAT     H233867   8.687   4.016   2.797
11209WAT      O33868   8.486   8.664   8.085
11209WAT     H133869   8.419   8.732   8.055
11209WAT     H233870   8.553   8.649   8.012
11210WAT      O33871   4.033   4.568   2.238
11210WAT     H133872   3.983   4.488   2.271
11210WAT     H233873   4.110   4.539   2.181
11211WAT      O33874   4.036   7.529   2.035
11211WAT     H133875   4.062   7.622   2.062
11211WAT     H233876   4.097   7.463   2.079
11212WAT      O33877   5.210   0.832   4.736
11212WAT     H133878   5.170   0.816   4.826
11212WAT     H233879   5.151   0.794   4.665
11213WAT      O33880   2.519   1.271   1.463
11213WAT     H133881   2.448   1.305   1.401
11213WAT     H233882   2.498   1.176   1.489
11214WAT      O33883   9.790   9.204   0.301
11214WAT     H133884   9.729   9.258   0.359
11214WAT     H233885   9.775   9.228   0.205
11215WAT      O33886   2.258   7.923   0.843
11215WAT     H133887   2.352   7.907   0.874
11215WAT     H233888   2.209   7.836   0.839
11216WAT      O33889   3.016   9.363   8.948
11216WAT     H133890   3.113   9.382   8.934
11216WAT     H233891   2.962   9.442   8.919
11217WAT      O33892   4.965   3.120   3.186
11217WAT     H133893   4.992   3.143   3.280
11217WAT     H233894   4.872   3.086   3.185
11218WAT      O33895   1.955   1.867   9.052
11218WAT     H133896   1.942   1.913   8.964
11218WAT     H233897   1.881   1.800   9.066
11219WAT      O33898   1.534   3.190   2.931
11219WAT     H133899   1.587   3.224   2.852
11219WAT     H233900   1.597   3.168   3.006
11220WAT      O33901   9.099   7.125   8.297
11220WAT     H133902   9.061   7.203   8.247
11220WAT     H233903   9.199   7.134   8.301
11221WAT      O33904   4.790   2.956   8.232
11221WAT     H133905   4.774   2.860   8.257
11221WAT     H233906   4.810   3.009   8.315
11222WAT      O33907   4.636   5.635   9.234
11222WAT     H133908   4.712   5.700   9.228
11222WAT     H233909   4.634   5.578   9.152
11223WAT      O33910   4.174   9.047   0.257
11223WAT     H133911   4.094   9.101   0.282
11223WAT     H233912   4.165   9.016   0.162
11224WAT      O33913   8.786   1.973   4.207
11224WAT     H133914   8.723   2.036   4.163
11224WAT     H233915   8.845   2.023   4.271
11225WAT      O33916   7.412   7.294   7.419
11225WAT     H133917   7.498   7.252   7.389
11225WAT     H233918   7.344   7.223   7.435
11226WAT      O33919   6.587   2.835   9.147
11226WAT     H133920   6.565   2.760   9.210
11226WAT     H233921   6.520   2.908   9.157
11227WAT      O33922   0.387   4.259   0.418
11227WAT     H133923   0.322   4.313   0.366
11227WAT     H233924   0.345   4.171   0.443
11228WAT      O33925   5.926   7.203   4.901
11228WAT     H133926   5.842   7.161   4.935
11228WAT     H233927   6.005   7.154   4.938
11229WAT      O33928   7.788   6.542   2.156
11229WAT     H133929   7.814   6.603   2.231
11229WAT     H233930   7.807   6.447   2.182
11230WAT      O33931   6.329   6.767   2.170
11230WAT     H133932   6.299   6.739   2.262
11230WAT     H233933   6.277   6.717   2.101
11231WAT      O33934   2.564   3.848   4.471
11231WAT     H133935   2.575   3.821   4.375
11231WAT     H233936   2.590   3.944   4.482
11232WAT      O33937   8.230   6.538   3.316
11232WAT     H133938   8.180   6.493   3.390
11232WAT     H233939   8.268   6.469   3.255
11233WAT      O33940   5.101   8.140   5.998
11233WAT     H133941   5.162   8.158   5.920
11233WAT     H233942   5.077   8.227   6.041
11234WAT      O33943   0.821   5.601   9.855
11234WAT     H133944   0.827   5.501   9.850
11234WAT     H233945   0.882   5.642   9.787
11235WAT      O33946   6.118   2.358   6.596
11235WAT     H133947   6.187   2.380   6.665
11235WAT     H233948   6.149   2.391   6.507
11236WAT      O33949   1.063   3.577   9.835
11236WAT     H133950   1.017   3.518   9.769
11236WAT     H233951   1.054   3.538   9.927
11237WAT      O33952   8.726   0.460   9.830
11237WAT     H133953   8.640   0.495   9.868
11237WAT     H233954   8.800   0.475   9.896
11238WAT      O33955   0.624   5.789   7.519
11238WAT     H133956   0.663   5.710   7.473
11238WAT     H233957   0.616   5.865   7.454
11239WAT      O33958   7.890   9.333   9.232
11239WAT     H133959   7.989   9.326   9.239
11239WAT     H233960   7.861   9.302   9.141
11240WAT      O33961   6.776   7.608   6.158
11240WAT     H133962   6.736   7.520   6.185
11240WAT     H233963   6.832   7.644   6.233
11241WAT      O33964   6.095   6.779   8.682
11241WAT     H133965   6.026   6.780   8.609
11241WAT     H233966   6.069   6.843   8.754
11242WAT      O33967   0.771   3.546   7.616
11242WAT     H133968   0.745   3.475   7.551
11242WAT     H233969   0.789   3.505   7.706
11243WAT      O33970   3.847   7.155   3.803
11243WAT     H133971   3.820   7.101   3.723
11243WAT     H233972   3.837   7.099   3.885
11244WAT      O33973   5.416   6.947   9.208
11244WAT     H133974   5.424   7.026   9.270
11244WAT     H233975   5.320   6.919   9.203
11245WAT      O33976   3.637   8.980   4.072
11245WAT     H133977   3.544   8.946   4.085
11245WAT     H233978   3.687   8.918   4.013
11246WAT      O33979   3.002   5.593   7.903
11246WAT     H133980   2.998   5.534   7.984
11246WAT     H233981   2.915   5.641   7.893
11247WAT      O33982   5.246   7.661   4.577
11247WAT     H133983   5.314   7.716   4.528
11247WAT     H233984   5.157   7.669   4.531
11248WAT      O33985   0.754   5.985   2.739
11248WAT     H133986   0.769   6.002   2.837
11248WAT     H233987   0.819   5.916   2.707
11249WAT      O33988   5.648   5.606   4.378
11249WAT     H133989   5.668   5.529   4.318
11249WAT     H233990   5.734   5.648   4.408
11250WAT      O33991   4.714   0.292   4.391
11250WAT     H133992   4.732   0.314   4.295
11250WAT     H233993   4.801   0.280   4.439
11251WAT      O33994   8.013   2.324   9.722
11251WAT     H133995   8.019   2.232   9.763
11251WAT     H233996   8.079   2.384   9.768
11252WAT      O33997   7.978   0.441   8.086
11252WAT     H133998   7.928   0.527   8.074
11252WAT     H233999   8.076   0.459   8.074
11253WAT      O34000   1.290   5.047   3.837
11253WAT     H134001   1.263   5.079   3.747
11253WAT     H234002   1.241   5.099   3.907
11254WAT      O34003   0.012   4.259   1.659
11254WAT     H134004  -0.022   4.168   1.681
11254WAT     H234005   0.081   4.286   1.726
11255WAT      O34006   5.801   4.872   5.798
11255WAT     H134007   5.756   4.845   5.713
11255WAT     H234008   5.815   4.971   5.798
11256WAT      O34009   8.057   9.494   1.285
11256WAT     H134010   7.991   9.511   1.212
11256WAT     H234011   8.145   9.468   1.244
11257WAT      O34012   0.447   4.763   3.559
11257WAT     H134013   0.359   4.782   3.517
11257WAT     H234014   0.515   4.744   3.488
11258WAT      O34015   2.396   2.134   3.689
11258WAT     H134016   2.337   2.076   3.745
11258WAT     H234017   2.421   2.086   3.605
11259WAT      O34018   1.909   9.741   2.435
11259WAT     H134019   1.838   9.685   2.478
11259WAT     H234020   1.967   9.683   2.378
11260WAT      O34021   2.737   4.104   8.516
11260WAT     H134022   2.695   4.032   8.461
11260WAT     H234023   2.676   4.183   8.520
11261WAT      O34024   6.501   2.957   1.704
11261WAT     H134025   6.512   2.938   1.606
11261WAT     H234026   6.531   3.051   1.722
11262WAT      O34027   4.073   2.903   0.453
11262WAT     H134028   4.083   2.862   0.543
11262WAT     H234029   4.022   2.989   0.461
11263WAT      O34030   5.740   6.244   5.356
11263WAT     H134031   5.642   6.250   5.337
11263WAT     H234032   5.790   6.297   5.288
11264WAT      O34033   1.842   4.878   7.923
11264WAT     H134034   1.887   4.882   8.012
11264WAT     H234035   1.833   4.970   7.886
11265WAT      O34036   9.565   9.662   2.763
11265WAT     H134037   9.565   9.569   2.726
11265WAT     H234038   9.484   9.674   2.820
11266WAT      O34039   9.500   4.417   4.391
11266WAT     H134040   9.560   4.351   4.346
11266WAT     H234041   9.452   4.470   4.321
11267WAT      O34042   2.601   4.849   8.664
11267WAT     H134043   2.546   4.793   8.602
11267WAT     H234044   2.683   4.881   8.618
11268WAT      O34045   2.900   3.694   4.691
11268WAT     H134046   2.817   3.663   4.737
11268WAT     H234047   2.958   3.743   4.756
11269WAT      O34048   1.610   1.365   3.780
11269WAT     H134049   1.665   1.433   3.731
11269WAT     H234050   1.569   1.408   3.861
11270WAT      O34051   9.857   2.077   8.486
11270WAT     H134052   9.907   1.999   8.523
11270WAT     H234053   9.795   2.112   8.555
11271WAT      O34054   7.950   9.200   3.084
11271WAT     H134055   7.955   9.240   2.992
11271WAT     H234056   7.885   9.252   3.139
11272WAT      O34057   1.675   9.387   1.706
11272WAT     H134058   1.625   9.421   1.627
11272WAT     H234059   1.765   9.432   1.711
11273WAT      O34060   1.891   5.845   2.572
11273WAT     H134061   1.859   5.825   2.480
11273WAT     H234062   1.988   5.821   2.580
11274WAT      O34063   7.044   6.748   5.641
11274WAT     H134064   7.056   6.773   5.737
11274WAT     H234065   7.054   6.829   5.584
11275WAT      O34066   2.267   0.042   6.000
11275WAT     H134067   2.168   0.031   5.993
11275WAT     H234068   2.310  -0.046   6.016
11276WAT      O34069   0.512   3.982   2.180
11276WAT     H134070   0.512   3.924   2.099
11276WAT     H234071   0.445   3.947   2.246
11277WAT      O34072   0.171   3.106   6.429
11277WAT     H134073   0.200   3.118   6.524
11277WAT     H234074   0.228   3.164   6.370
11278WAT      O34075   1.991   9.451   0.783
11278WAT     H134076   2.015   9.512   0.859
11278WAT     H234077   2.048   9.473   0.704
11279WAT      O34078   7.027   4.694   0.972
11279WAT     H134079   7.060   4.636   0.898
11279WAT     H234080   7.104   4.734   1.021
11280WAT      O34081   0.637   0.714   5.478
11280WAT     H134082   0.700   0.714   5.401
11280WAT     H234083   0.687   0.692   5.562
11281WAT      O34084   4.088   1.893   4.480
11281WAT     H134085   4.036   1.848   4.552
11281WAT     H234086   4.055   1.987   4.469
11282WAT      O34087   0.739   0.982   4.064
11282WAT     H134088   0.696   0.922   4.132
11282WAT     H234089   0.712   0.952   3.972
11283WAT      O34090   2.393   2.968   4.530
11283WAT     H134091   2.406   3.054   4.580
11283WAT     H234092   2.415   2.981   4.434
11284WAT      O34093   5.370   4.605   8.959
11284WAT     H134094   5.355   4.702   8.976
11284WAT     H234095   5.283   4.561   8.936
11285WAT      O34096   8.574   9.044   9.022
11285WAT     H134097   8.550   9.133   8.984
11285WAT     H234098   8.654   9.054   9.082
11286WAT      O34099   2.999   3.749   8.051
11286WAT     H134100   3.064   3.761   8.126
11286WAT     H234101   3.027   3.672   7.994
11287WAT      O34102   4.973   8.643   8.997
11287WAT     H134103   4.990   8.642   8.898
11287WAT     H234104   4.889   8.591   9.016
11288WAT      O34105   1.201   1.946   6.939
11288WAT     H134106   1.143   1.891   6.999
11288WAT     H234107   1.294   1.908   6.937
11289WAT      O34108   4.573   3.613   2.005
11289WAT     H134109   4.654   3.658   1.967
11289WAT     H234110   4.522   3.569   1.930
11290WAT      O34111   0.166   1.628   5.061
11290WAT     H134112   0.146   1.719   5.097
11290WAT     H234113   0.264   1.619   5.044
11291WAT      O34114   2.967   8.967   9.801
11291WAT     H134115   2.887   8.981   9.742
11291WAT     H234116   2.973   9.041   9.868
11292WAT      O34117   6.572   4.016   0.371
11292WAT     H134118   6.613   3.950   0.308
11292WAT     H234119   6.504   4.071   0.322
11293WAT      O34120   6.241   0.919   1.698
11293WAT     H134121   6.188   0.939   1.780
11293WAT     H234122   6.336   0.901   1.724
11294WAT      O34123   5.046   6.145   8.215
11294WAT     H134124   4.966   6.111   8.165
11294WAT     H234125   5.015   6.201   8.292
11295WAT      O34126   1.527   1.439   9.630
11295WAT     H134127   1.448   1.415   9.573
11295WAT     H234128   1.608   1.449   9.572
11296WAT      O34129   6.884   2.387   0.373
11296WAT     H134130   6.883   2.479   0.412
11296WAT     H234131   6.840   2.323   0.437
11297WAT      O34132   0.724   9.585   6.800
11297WAT     H134133   0.740   9.659   6.735
11297WAT     H234134   0.791   9.591   6.874
11298WAT      O34135   7.632   0.290   0.936
11298WAT     H134136   7.697   0.357   0.972
11298WAT     H234137   7.643   0.284   0.837
11299WAT      O34138   0.533   4.021   0.517
11299WAT     H134139   0.520   4.110   0.560
11299WAT     H234140   0.603   4.029   0.446
11300WAT      O34141   4.590   2.700   3.362
11300WAT     H134142   4.615   2.781   3.415
11300WAT     H234143   4.642   2.698   3.277
11301WAT      O34144   2.964   1.354   5.596
11301WAT     H134145   2.943   1.451   5.586
11301WAT     H234146   2.961   1.330   5.693
11302WAT      O34147   0.434   4.470   4.812
11302WAT     H134148   0.361   4.529   4.776
11302WAT     H234149   0.420   4.456   4.910
11303WAT      O34150   3.083   4.558   4.276
11303WAT     H134151   3.171   4.596   4.247
11303WAT     H234152   3.097   4.463   4.306
11304WAT      O34153   5.804   7.544   8.105
11304WAT     H134154   5.888   7.510   8.061
11304WAT     H234155   5.787   7.489   8.187
11305WAT      O34156   4.309   1.214   8.609
11305WAT     H134157   4.280   1.282   8.542
11305WAT     H234158   4.392   1.169   8.577
11306WAT      O34159   2.504   1.206   5.060
11306WAT     H134160   2.591   1.199   5.108
11306WAT     H234161   2.520   1.211   4.961
11307WAT      O34162   3.211   0.626   4.717
11307WAT     H134163   3.196   0.641   4.815
11307WAT     H234164   3.298   0.577   4.705
11308WAT      O34165   1.304   2.313   9.150
11308WAT     H134166   1.216   2.284   9.113
11308WAT     H234167   1.374   2.303   9.079
11309WAT      O34168   8.223   8.794   6.217
11309WAT     H134169   8.317   8.826   6.233
11309WAT     H234170   8.202   8.720   6.280
11310WAT      O34171   5.617   9.247   0.288
11310WAT     H134172   5.631   9.253   0.387
11310WAT     H234173   5.519   9.251   0.268
11311WAT      O34174   4.990   1.860   2.577
11311WAT     H134175   5.040   1.828   2.497
11311WAT     H234176   4.997   1.960   2.583
11312WAT      O34177   2.989   7.758   6.708
11312WAT     H134178   3.051   7.766   6.629
11312WAT     H234179   3.003   7.835   6.769
11313WAT      O34180   5.807   5.744   4.833
11313WAT     H134181   5.865   5.790   4.899
11313WAT     H234182   5.742   5.809   4.794
11314WAT      O34183   9.211   4.411   0.295
11314WAT     H134184   9.172   4.458   0.375
11314WAT     H234185   9.170   4.320   0.286
11315WAT      O34186   5.710   5.999   8.759
11315WAT     H134187   5.742   5.908   8.786
11315WAT     H234188   5.789   6.053   8.727
11316WAT      O34189   2.305   1.302   8.039
11316WAT     H134190   2.378   1.303   7.970
11316WAT     H234191   2.339   1.258   8.122
11317WAT      O34192   8.777   3.971   2.036
11317WAT     H134193   8.764   3.948   2.132
11317WAT     H234194   8.794   4.069   2.026
11318WAT      O34195   7.271   1.197   1.712
11318WAT     H134196   7.180   1.161   1.731
11318WAT     H234197   7.339   1.124   1.725
11319WAT      O34198   0.058   6.410   5.781
11319WAT     H134199   0.117   6.412   5.701
11319WAT     H234200   0.056   6.318   5.820
11320WAT      O34201   5.796   8.819   7.264
11320WAT     H134202   5.826   8.800   7.357
11320WAT     H234203   5.758   8.911   7.260
11321WAT      O34204   8.209   9.425   2.535
11321WAT     H134205   8.238   9.348   2.592
11321WAT     H234206   8.142   9.394   2.468
11322WAT      O34207   9.229   0.989   2.738
11322WAT     H134208   9.191   0.905   2.699
11322WAT     H234209   9.319   0.970   2.777
11323WAT      O34210   4.146   1.095   0.108
11323WAT     H134211   4.233   1.124   0.147
11323WAT     H234212   4.162   1.028   0.036
11324WAT      O34213   8.208   2.343   9.521
11324WAT     H134214   8.268   2.420   9.501
11324WAT     H234215   8.146   2.367   9.596
11325WAT      O34216   9.239   3.552   5.495
11325WAT     H134217   9.259   3.492   5.417
11325WAT     H234218   9.277   3.513   5.578
11326WAT      O34219   9.624   9.575   5.960
11326WAT     H134220   9.583   9.566   6.051
11326WAT     H234221   9.553   9.569   5.890
11327WAT      O34222   6.992   5.004   1.945
11327WAT     H134223   7.090   4.985   1.935
11327WAT     H234224   6.940   4.921   1.929
11328WAT      O34225   4.999   2.933   3.859
11328WAT     H134226   5.086   2.889   3.838
11328WAT     H234227   4.941   2.868   3.909
11329WAT      O34228   3.946   6.779   9.054
11329WAT     H134229   3.924   6.873   9.080
11329WAT     H234230   3.864   6.722   9.062
11330WAT      O34231   3.656   5.959   3.939
11330WAT     H134232   3.735   5.950   4.000
11330WAT     H234233   3.683   5.940   3.845
11331WAT      O34234   0.507   8.567   3.423
11331WAT     H134235   0.411   8.575   3.399
11331WAT     H234236   0.517   8.571   3.522
11332WAT      O34237   5.194   9.108   4.592
11332WAT     H134238   5.212   9.042   4.666
11332WAT     H234239   5.137   9.182   4.628
11333WAT      O34240   5.982   2.972   6.361
11333WAT     H134241   5.966   3.064   6.325
11333WAT     H234242   6.022   2.979   6.453
11334WAT      O34243   7.364   2.542   6.697
11334WAT     H134244   7.309   2.625   6.710
11334WAT     H234245   7.306   2.461   6.714
11335WAT      O34246   0.357   5.333   9.438
11335WAT     H134247   0.277   5.274   9.449
11335WAT     H234248   0.424   5.313   9.510
11336WAT      O34249   6.485   2.535   5.398
11336WAT     H134250   6.468   2.439   5.419
11336WAT     H234251   6.584   2.552   5.404
11337WAT      O34252   5.430   0.202   1.076
11337WAT     H134253   5.510   0.143   1.093
11337WAT     H234254   5.359   0.148   1.030
11338WAT      O34255   6.599   2.964   6.967
11338WAT     H134256   6.587   3.048   7.018
11338WAT     H234257   6.648   2.897   7.023
11339WAT      O34258   7.045   6.529   3.776
11339WAT     H134259   7.013   6.541   3.682
11339WAT     H234260   7.128   6.473   3.775
11340WAT      O34261   7.669   6.586   3.824
11340WAT     H134262   7.702   6.537   3.743
11340WAT     H234263   7.572   6.608   3.812
11341WAT      O34264   8.299   9.811   0.543
11341WAT     H134265   8.359   9.737   0.514
11341WAT     H234266   8.228   9.825   0.474
11342WAT      O34267   0.813   7.606   3.124
11342WAT     H134268   0.778   7.608   3.217
11342WAT     H234269   0.745   7.644   3.061
11343WAT      O34270   9.067   2.524   9.553
11343WAT     H134271   9.063   2.537   9.454
11343WAT     H234272   9.152   2.478   9.577
11344WAT      O34273   3.371   0.546   8.369
11344WAT     H134274   3.306   0.609   8.328
11344WAT     H234275   3.436   0.516   8.299
11345WAT      O34276   8.062   3.759   4.696
11345WAT     H134277   8.060   3.858   4.713
11345WAT     H234278   8.042   3.710   4.781
11346WAT      O34279   6.514   7.098   0.926
11346WAT     H134280   6.594   7.084   0.867
11346WAT     H234281   6.534   7.063   1.017
11347WAT      O34282   1.952   2.923   8.736
11347WAT     H134283   2.026   2.926   8.669
11347WAT     H234284   1.975   2.858   8.808
11348WAT      O34285   3.965   9.197   0.325
11348WAT     H134286   3.901   9.151   0.387
11348WAT     H234287   3.915   9.264   0.270
11349WAT      O34288   0.681   9.231   8.632
11349WAT     H134289   0.697   9.150   8.689
11349WAT     H234290   0.681   9.313   8.689
11350WAT      O34291   8.746   9.747   3.127
11350WAT     H134292   8.791   9.832   3.101
11350WAT     H234293   8.810   9.689   3.177
11351WAT      O34294   5.769   0.881   0.010
11351WAT     H134295   5.706   0.853  -0.063
11351WAT     H234296   5.716   0.910   0.090
11352WAT      O34297   4.919   5.125   0.275
11352WAT     H134298   4.913   5.191   0.349
11352WAT     H234299   4.894   5.034   0.308
11353WAT      O34300   1.778   0.190   9.432
11353WAT     H134301   1.810   0.283   9.412
11353WAT     H234302   1.856   0.132   9.454
11354WAT      O34303   3.610   2.363   5.222
11354WAT     H134304   3.687   2.399   5.170
11354WAT     H234305   3.529   2.361   5.164
11355WAT      O34306   8.528   8.029   3.436
11355WAT     H134307   8.522   8.045   3.534
11355WAT     H234308   8.437   8.034   3.395
11356WAT      O34309   9.538   6.272   0.674
11356WAT     H134310   9.447   6.233   0.657
11356WAT     H234311   9.538   6.369   0.647
11357WAT      O34312   6.854   5.824   8.084
11357WAT     H134313   6.833   5.893   8.014
11357WAT     H234314   6.934   5.852   8.136
11358WAT      O34315   1.189   4.557   4.250
11358WAT     H134316   1.278   4.583   4.288
11358WAT     H234317   1.117   4.580   4.316
11359WAT      O34318   6.770   5.003   7.460
11359WAT     H134319   6.707   5.073   7.494
11359WAT     H234320   6.718   4.925   7.427
11360WAT      O34321   7.474   2.944   7.049
11360WAT     H134322   7.462   2.846   7.036
11360WAT     H234323   7.486   2.989   6.961
11361WAT      O34324   4.709   0.607   5.519
11361WAT     H134325   4.659   0.646   5.597
11361WAT     H234326   4.678   0.651   5.435
11362WAT      O34327   7.304   4.771   4.643
11362WAT     H134328   7.276   4.676   4.630
11362WAT     H234329   7.334   4.785   4.737
11363WAT      O34330   7.204   1.199   0.230
11363WAT     H134331   7.234   1.259   0.303
11363WAT     H234332   7.230   1.238   0.141
11364WAT      O34333   2.648   4.131   2.310
11364WAT     H134334   2.698   4.194   2.251
11364WAT     H234335   2.550   4.149   2.303
11365WAT      O34336   7.769   7.399   2.139
11365WAT     H134337   7.681   7.437   2.110
11365WAT     H234338   7.781   7.309   2.097
11366WAT      O34339   0.956   4.248   9.524
11366WAT     H134340   0.890   4.185   9.481
11366WAT     H234341   1.024   4.276   9.456
11367WAT      O34342   4.935   5.161   5.755
11367WAT     H134343   4.924   5.081   5.697
11367WAT     H234344   5.014   5.148   5.815
11368WAT      O34345   6.700   1.930   1.327
11368WAT     H134346   6.652   1.874   1.260
11368WAT     H234347   6.690   1.889   1.418
11369WAT      O34348   3.027   0.699   3.510
11369WAT     H134349   2.944   0.750   3.487
11369WAT     H234350   3.006   0.601   3.515
11370WAT      O34351   3.825   7.272   0.894
11370WAT     H134352   3.837   7.203   0.823
11370WAT     H234353   3.810   7.362   0.853
11371WAT      O34354   3.181   4.655   0.539
11371WAT     H134355   3.222   4.746   0.537
11371WAT     H234356   3.251   4.586   0.524
11372WAT      O34357   5.642   6.708   4.283
11372WAT     H134358   5.595   6.787   4.242
11372WAT     H234359   5.578   6.658   4.341
11373WAT      O34360   4.930   1.578   0.535
11373WAT     H134361   4.852   1.549   0.480
11373WAT     H234362   4.909   1.567   0.632
11374WAT      O34363   0.529   6.732   5.683
11374WAT     H134364   0.526   6.829   5.708
11374WAT     H234365   0.491   6.677   5.757
11375WAT      O34366   3.393   0.859   0.008
11375WAT     H134367   3.455   0.837   0.083
11375WAT     H234368   3.418   0.947  -0.032
11376WAT      O34369   2.896   3.096   4.655
11376WAT     H134370   2.882   3.183   4.608
11376WAT     H234371   2.986   3.096   4.700
11377WAT      O34372   4.550   8.393   5.611
11377WAT     H134373   4.482   8.323   5.590
11377WAT     H234374   4.505   8.471   5.655
11378WAT      O34375   7.091   2.426   0.694
11378WAT     H134376   7.066   2.407   0.599
11378WAT     H234377   7.055   2.353   0.753
11379WAT      O34378   5.332   5.631   9.411
11379WAT     H134379   5.309   5.548   9.359
11379WAT     H234380   5.255   5.695   9.405
11380WAT      O34381   1.359   6.772   7.819
11380WAT     H134382   1.301   6.748   7.896
11380WAT     H234383   1.454   6.750   7.841
11381WAT      O34384   5.386   3.635   9.343
11381WAT     H134385   5.398   3.715   9.284
11381WAT     H234386   5.323   3.657   9.417
11382WAT      O34387   9.700   5.167   9.080
11382WAT     H134388   9.692   5.138   8.985
11382WAT     H234389   9.609   5.190   9.116
11383WAT      O34390   9.399   7.926   4.260
11383WAT     H134391   9.396   7.936   4.160
11383WAT     H234392   9.473   7.983   4.297
11384WAT      O34393   2.283   0.238   0.820
11384WAT     H134394   2.324   0.269   0.906
11384WAT     H234395   2.326   0.151   0.794
11385WAT      O34396   7.655   7.449   7.733
11385WAT     H134397   7.677   7.352   7.741
11385WAT     H234398   7.722   7.504   7.784
11386WAT      O34399   8.501   2.143   9.666
11386WAT     H134400   8.471   2.117   9.574
11386WAT     H234401   8.565   2.220   9.659
11387WAT      O34402   4.267   4.342   5.673
11387WAT     H134403   4.170   4.357   5.658
11387WAT     H234404   4.287   4.344   5.771
11388WAT      O34405   1.964   3.883   6.582
11388WAT     H134406   2.006   3.893   6.672
11388WAT     H234407   2.016   3.817   6.528
11389WAT      O34408   2.585   6.773   3.657
11389WAT     H134409   2.593   6.839   3.582
11389WAT     H234410   2.494   6.733   3.657
11390WAT      O34411   8.268   8.161   4.347
11390WAT     H134412   8.317   8.121   4.425
11390WAT     H234413   8.211   8.237   4.379
11391WAT      O34414   0.721   2.968   7.124
11391WAT     H134415   0.639   2.961   7.181
11391WAT     H234416   0.772   2.883   7.128
11392WAT      O34417   0.361   6.342   5.786
11392WAT     H134418   0.460   6.337   5.777
11392WAT     H234419   0.327   6.426   5.743
11393WAT      O34420   8.869   4.761   2.085
11393WAT     H134421   8.834   4.775   1.993
11393WAT     H234422   8.908   4.846   2.120
11394WAT      O34423   4.846   7.220   0.440
11394WAT     H134424   4.813   7.312   0.416
11394WAT     H234425   4.931   7.228   0.492
11395WAT      O34426   1.397   4.259   5.193
11395WAT     H134427   1.491   4.225   5.186
11395WAT     H234428   1.380   4.323   5.118
11396WAT      O34429   0.480   8.727   0.653
11396WAT     H134430   0.454   8.656   0.587
11396WAT     H234431   0.548   8.787   0.612
11397WAT      O34432   2.400   5.857   3.902
11397WAT     H134433   2.319   5.914   3.914
11397WAT     H234434   2.448   5.884   3.819
11398WAT      O34435   6.246   0.711   9.004
11398WAT     H134436   6.244   0.808   9.028
11398WAT     H234437   6.203   0.698   8.914
11399WAT      O34438   4.518   4.443   8.730
11399WAT     H134439   4.590   4.444   8.800
11399WAT     H234440   4.444   4.383   8.759
11400WAT      O34441   7.787   5.850   3.968
11400WAT     H134442   7.693   5.815   3.965
11400WAT     H234443   7.792   5.926   4.033
11401WAT      O34444   3.509   5.709   4.581
11401WAT     H134445   3.441   5.749   4.642
11401WAT     H234446   3.573   5.654   4.635
11402WAT      O34447   4.512   8.721   7.279
11402WAT     H134448   4.445   8.761   7.216
11402WAT     H234449   4.577   8.665   7.227
11403WAT      O34450   1.405   7.703   3.389
11403WAT     H134451   1.369   7.782   3.338
11403WAT     H234452   1.394   7.620   3.334
11404WAT      O34453   7.872   9.633   1.990
11404WAT     H134454   7.964   9.669   1.970
11404WAT     H234455   7.804   9.697   1.955
11405WAT      O34456   6.318   1.426   8.597
11405WAT     H134457   6.310   1.452   8.693
11405WAT     H234458   6.413   1.403   8.576
11406WAT      O34459   5.051   7.217   9.386
11406WAT     H134460   5.145   7.221   9.422
11406WAT     H234461   5.009   7.130   9.412
11407WAT      O34462   2.465   5.783   1.232
11407WAT     H134463   2.500   5.857   1.174
11407WAT     H234464   2.370   5.764   1.207
11408WAT      O34465   0.013   5.594   6.890
11408WAT     H134466   0.035   5.510   6.940
11408WAT     H234467   0.044   5.585   6.795
11409WAT      O34468   4.487   0.150   4.477
11409WAT     H134469   4.492   0.066   4.423
11409WAT     H234470   4.564   0.210   4.453
11410WAT      O34471   3.197   3.259   5.851
11410WAT     H134472   3.240   3.349   5.857
11410WAT     H234473   3.134   3.257   5.773
11411WAT      O34474   8.004   4.871   5.832
11411WAT     H134475   8.068   4.834   5.899
11411WAT     H234476   8.007   4.815   5.749
11412WAT      O34477   7.221   1.659   6.845
11412WAT     H134478   7.185   1.613   6.926
11412WAT     H234479   7.304   1.613   6.815
11413WAT      O34480   2.441   2.669   2.488
11413WAT     H134481   2.465   2.751   2.436
11413WAT     H234482   2.511   2.599   2.475
11414WAT      O34483   2.755   7.334   1.513
11414WAT     H134484   2.676   7.341   1.453
11414WAT     H234485   2.800   7.246   1.498
11415WAT      O34486   2.030   6.445   0.274
11415WAT     H134487   2.108   6.499   0.241
11415WAT     H234488   2.025   6.452   0.374
11416WAT      O34489   8.681   6.409   0.021
11416WAT     H134490   8.665   6.423  -0.077
11416WAT     H234491   8.765   6.356   0.033
11417WAT      O34492   6.784   1.511   1.921
11417WAT     H134493   6.817   1.602   1.895
11417WAT     H234494   6.811   1.445   1.851
11418WAT      O34495   4.934   8.177   1.657
11418WAT     H134496   4.996   8.149   1.584
11418WAT     H234497   4.840   8.153   1.631
11419WAT      O34498   6.551   0.403   8.384
11419WAT     H134499   6.470   0.461   8.375
11419WAT     H234500   6.578   0.370   8.293
11420WAT      O34501   7.163   7.224   1.119
11420WAT     H134502   7.169   7.250   1.216
11420WAT     H234503   7.069   7.235   1.088
11421WAT      O34504   4.280   8.930   8.511
11421WAT     H134505   4.318   8.871   8.583
11421WAT     H234506   4.182   8.911   8.501
11422WAT      O34507   0.965   4.367   6.041
11422WAT     H134508   0.895   4.384   6.111
11422WAT     H234509   0.935   4.407   5.955
11423WAT      O34510   6.038   0.568   7.499
11423WAT     H134511   6.092   0.484   7.487
11423WAT     H234512   6.003   0.598   7.410
11424WAT      O34513   8.264   6.193   3.779
11424WAT     H134514   8.353   6.193   3.825
11424WAT     H234515   8.201   6.133   3.827
11425WAT      O34516   0.738   9.585   3.669
11425WAT     H134517   0.667   9.552   3.606
11425WAT     H234518   0.695   9.634   3.745
11426WAT      O34519   5.435   6.972   4.146
11426WAT     H134520   5.489   7.025   4.080
11426WAT     H234521   5.465   6.994   4.239
11427WAT      O34522   5.630   8.426   9.661
11427WAT     H134523   5.634   8.456   9.566
11427WAT     H234524   5.699   8.356   9.678
11428WAT      O34525   6.281   4.233   7.020
11428WAT     H134526   6.354   4.253   7.084
11428WAT     H234527   6.227   4.316   7.004
11429WAT      O34528   2.728   1.154   4.205
11429WAT     H134529   2.656   1.187   4.144
11429WAT     H234530   2.751   1.226   4.271
11430WAT      O34531   9.465   2.057   7.962
11430WAT     H134532   9.464   1.973   7.909
11430WAT     H234533   9.426   2.132   7.908
11431WAT      O34534   3.870   9.631   6.813
11431WAT     H134535   3.798   9.572   6.778
11431WAT     H234536   3.900   9.694   6.741
11432WAT      O34537   3.415   6.862   7.674
11432WAT     H134538   3.347   6.840   7.604
11432WAT     H234539   3.504   6.878   7.632
11433WAT      O34540   5.307   6.704   2.634
11433WAT     H134541   5.250   6.769   2.685
11433WAT     H234542   5.395   6.747   2.611
11434WAT      O34543   4.608   1.240   8.182
11434WAT     H134544   4.562   1.168   8.131
11434WAT     H234545   4.701   1.212   8.203
11435WAT      O34546   5.762   9.675   1.305
11435WAT     H134547   5.705   9.593   1.309
11435WAT     H234548   5.764   9.719   1.394
11436WAT      O34549   4.698   5.618   9.687
11436WAT     H134550   4.793   5.607   9.656
11436WAT     H234551   4.695   5.686   9.759
11437WAT      O34552   2.208   1.495   2.430
11437WAT     H134553   2.241   1.533   2.517
11437WAT     H234554   2.190   1.570   2.366
11438WAT      O34555   6.625   3.203   3.770
11438WAT     H134556   6.566   3.269   3.723
11438WAT     H234557   6.655   3.134   3.704
11439WAT      O34558   8.372   6.236   1.265
11439WAT     H134559   8.341   6.313   1.209
11439WAT     H234560   8.315   6.156   1.245
11440WAT      O34561   2.303   3.366   0.332
11440WAT     H134562   2.288   3.326   0.422
11440WAT     H234563   2.236   3.439   0.316
11441WAT      O34564   2.183   0.631   6.240
11441WAT     H134565   2.205   0.550   6.295
11441WAT     H234566   2.131   0.696   6.296
11442WAT      O34567   4.369   2.965   9.348
11442WAT     H134568   4.460   2.942   9.312
11442WAT     H234569   4.303   2.964   9.274
11443WAT      O34570   9.604   1.468   1.510
11443WAT     H134571   9.607   1.559   1.550
11443WAT     H234572   9.594   1.476   1.411
11444WAT      O34573   8.018   0.100   1.933
11444WAT     H134574   8.093   0.036   1.916
11444WAT     H234575   8.053   0.178   1.986
11445WAT      O34576   8.485   8.204   6.484
11445WAT     H134577   8.508   8.110   6.508
11445WAT     H234578   8.567   8.252   6.454
11446WAT      O34579   3.575   5.976   5.346
11446WAT     H134580   3.611   6.066   5.369
11446WAT     H234581   3.649   5.909   5.350
11447WAT      O34582   7.918   1.731   7.155
11447WAT     H134583   7.890   1.822   7.124
11447WAT     H234584   8.016   1.718   7.138
11448WAT      O34585   2.589   4.411   7.409
11448WAT     H134586   2.554   4.399   7.502
11448WAT     H234587   2.554   4.496   7.371
11449WAT      O34588   4.172   0.869   5.842
11449WAT     H134589   4.160   0.772   5.864
11449WAT     H234590   4.200   0.879   5.747
11450WAT      O34591   8.114   1.038   4.760
11450WAT     H134592   8.025   1.001   4.788
11450WAT     H234593   8.104   1.085   4.672
11451WAT      O34594   6.020   2.454   0.114
11451WAT     H134595   6.057   2.540   0.150
11451WAT     H234596   6.030   2.453   0.015
11452WAT      O34597   1.647   6.332   3.320
11452WAT     H134598   1.737   6.372   3.300
11452WAT     H234599   1.645   6.237   3.290
11453WAT      O34600   3.618   2.633   9.442
11453WAT     H134601   3.522   2.626   9.416
11453WAT     H234602   3.625   2.677   9.531
11454WAT      O34603   8.097   5.454   1.086
11454WAT     H134604   8.167   5.387   1.113
11454WAT     H234605   8.080   5.516   1.162
11455WAT      O34606   2.296   9.282   1.865
11455WAT     H134607   2.226   9.312   1.800
11455WAT     H234608   2.342   9.362   1.904
11456WAT      O34609   6.440   7.527   6.155
11456WAT     H134610   6.429   7.477   6.241
11456WAT     H234611   6.483   7.467   6.087
11457WAT      O34612   0.879   0.518   1.489
11457WAT     H134613   0.898   0.603   1.539
11457WAT     H234614   0.801   0.471   1.531
11458WAT      O34615   0.791   1.905   4.947
11458WAT     H134616   0.847   1.967   5.001
11458WAT     H234617   0.699   1.943   4.936
11459WAT      O34618   8.200   0.984   4.376
11459WAT     H134619   8.261   0.934   4.438
11459WAT     H234620   8.130   0.921   4.341
11460WAT      O34621   0.848   7.603   3.572
11460WAT     H134622   0.770   7.623   3.513
11460WAT     H234623   0.815   7.570   3.661
11461WAT      O34624   6.041   0.648   2.489
11461WAT     H134625   6.036   0.615   2.394
11461WAT     H234626   5.954   0.690   2.513
11462WAT      O34627   7.234   9.104   2.421
11462WAT     H134628   7.252   9.170   2.494
11462WAT     H234629   7.272   9.139   2.335
11463WAT      O34630   7.619   0.374   8.545
11463WAT     H134631   7.540   0.366   8.606
11463WAT     H234632   7.657   0.283   8.527
11464WAT      O34633   2.160   4.294   0.574
11464WAT     H134634   2.077   4.330   0.533
11464WAT     H234635   2.136   4.230   0.647
11465WAT      O34636   2.511   2.326   1.250
11465WAT     H134637   2.448   2.357   1.322
11465WAT     H234638   2.557   2.243   1.280
11466WAT      O34639   9.411   4.715   1.087
11466WAT     H134640   9.436   4.771   1.166
11466WAT     H234641   9.464   4.744   1.007
11467WAT      O34642   5.246   6.905   1.071
11467WAT     H134643   5.206   6.869   0.986
11467WAT     H234644   5.172   6.933   1.132
11468WAT      O34645   7.055   4.438   1.700
11468WAT     H134646   7.090   4.515   1.647
11468WAT     H234647   7.128   4.371   1.713
11469WAT      O34648   9.175   4.086   3.769
11469WAT     H134649   9.121   4.039   3.839
11469WAT     H234650   9.272   4.066   3.782
11470WAT      O34651   1.343   6.425   3.013
11470WAT     H134652   1.396   6.488   3.070
11470WAT     H234653   1.361   6.331   3.042
11471WAT      O34654   4.734   9.528   9.888
11471WAT     H134655   4.737   9.502   9.984
11471WAT     H234656   4.759   9.450   9.831
11472WAT      O34657   4.824   2.043   4.182
11472WAT     H134658   4.745   1.994   4.147
11472WAT     H234659   4.797   2.137   4.206
11473WAT      O34660   1.698   3.622   0.690
11473WAT     H134661   1.681   3.524   0.680
11473WAT     H234662   1.670   3.651   0.782
11474WAT      O34663   5.003   7.917   6.626
11474WAT     H134664   5.066   7.990   6.652
11474WAT     H234665   5.051   7.851   6.569
11475WAT      O34666   0.202   9.273   0.497
11475WAT     H134667   0.171   9.198   0.555
11475WAT     H234668   0.122   9.319   0.457
11476WAT      O34669   4.649   1.746   3.767
11476WAT     H134670   4.550   1.735   3.757
11476WAT     H234671   4.683   1.810   3.698
11477WAT      O34672   8.236   2.391   5.005
11477WAT     H134673   8.184   2.395   4.920
11477WAT     H234674   8.333   2.405   4.985
11478WAT      O34675   4.354   7.376   7.304
11478WAT     H134676   4.380   7.326   7.221
11478WAT     H234677   4.432   7.431   7.335
11479WAT      O34678   7.787   0.330   8.237
11479WAT     H134679   7.863   0.365   8.182
11479WAT     H234680   7.821   0.306   8.328
11480WAT      O34681   1.864   2.830   6.230
11480WAT     H134682   1.821   2.920   6.241
11480WAT     H234683   1.799   2.768   6.187
11481WAT      O34684   5.028   8.540   6.437
11481WAT     H134685   5.105   8.477   6.429
11481WAT     H234686   5.020   8.594   6.353
11482WAT      O34687   7.008   6.972   6.771
11482WAT     H134688   7.009   6.977   6.671
11482WAT     H234689   6.926   7.017   6.806
11483WAT      O34690   7.713   6.787   6.111
11483WAT     H134691   7.798   6.775   6.060
11483WAT     H234692   7.664   6.700   6.116
11484WAT      O34693   8.863   9.433   1.036
11484WAT     H134694   8.787   9.481   1.079
11484WAT     H234695   8.857   9.335   1.057
11485WAT      O34696   3.500   9.289   8.388
11485WAT     H134697   3.515   9.327   8.479
11485WAT     H234698   3.433   9.345   8.339
11486WAT      O34699   0.685   8.739   2.008
11486WAT     H134700   0.666   8.681   2.087
11486WAT     H234701   0.731   8.685   1.938
11487WAT      O34702   3.208   3.083   1.533
11487WAT     H134703   3.165   3.166   1.569
11487WAT     H234704   3.228   3.097   1.436
11488WAT      O34705   5.309   7.050   5.105
11488WAT     H134706   5.293   7.129   5.164
11488WAT     H234707   5.367   6.984   5.152
11489WAT      O34708   2.878   9.817   2.123
11489WAT     H134709   2.794   9.766   2.141
11489WAT     H234710   2.926   9.835   2.209
11490WAT      O34711   0.743   3.185   4.406
11490WAT     H134712   0.748   3.275   4.364
11490WAT     H234713   0.835   3.150   4.422
11491WAT      O34714   7.451   1.838   6.620
11491WAT     H134715   7.490   1.907   6.558
11491WAT     H234716   7.389   1.881   6.685
11492WAT      O34717   1.232   6.662   2.648
11492WAT     H134718   1.316   6.713   2.631
11492WAT     H234719   1.202   6.617   2.563
11493WAT      O34720   8.869   3.036   8.554
11493WAT     H134721   8.859   3.025   8.455
11493WAT     H234722   8.848   2.950   8.600
11494WAT      O34723   1.083   5.617   1.375
11494WAT     H134724   0.987   5.627   1.400
11494WAT     H234725   1.135   5.694   1.412
11495WAT      O34726   4.901   7.161   9.099
11495WAT     H134727   4.996   7.193   9.090
11495WAT     H234728   4.895   7.065   9.072
11496WAT      O34729   2.966   7.284   6.063
11496WAT     H134730   3.062   7.290   6.035
11496WAT     H234731   2.933   7.191   6.049
11497WAT      O34732   7.468   6.535   6.774
11497WAT     H134733   7.417   6.595   6.837
11497WAT     H234734   7.425   6.445   6.773
11498WAT      O34735   6.735   4.132   7.910
11498WAT     H134736   6.688   4.103   7.827
11498WAT     H234737   6.764   4.050   7.961
11499WAT      O34738   4.365   9.819   8.922
11499WAT     H134739   4.459   9.848   8.943
11499WAT     H234740   4.303   9.851   8.993
11500WAT      O34741   5.858   0.147   6.333
11500WAT     H134742   5.783   0.186   6.280
11500WAT     H234743   5.895   0.217   6.394
11501WAT      O34744   0.810   1.251   9.244
11501WAT     H134745   0.861   1.281   9.325
11501WAT     H234746   0.830   1.155   9.225
11502WAT      O34747   8.283   8.464   7.973
11502WAT     H134748   8.382   8.465   7.987
11502WAT     H234749   8.255   8.546   7.923
11503WAT      O34750   3.033   0.372   4.889
11503WAT     H134751   3.031   0.369   4.789
11503WAT     H234752   2.939   0.379   4.924
11504WAT      O34753   1.386   7.169   4.415
11504WAT     H134754   1.477   7.149   4.453
11504WAT     H234755   1.392   7.169   4.315
11505WAT      O34756   4.159   4.557   1.827
11505WAT     H134757   4.120   4.594   1.743
11505WAT     H234758   4.252   4.524   1.808
11506WAT      O34759   2.686   9.294   9.214
11506WAT     H134760   2.743   9.375   9.231
11506WAT     H234761   2.599   9.305   9.262
11507WAT      O34762   3.759   2.824   1.800
11507WAT     H134763   3.689   2.769   1.754
11507WAT     H234764   3.715   2.888   1.863
11508WAT      O34765   4.551   6.975   3.056
11508WAT     H134766   4.643   6.955   3.023
11508WAT     H234767   4.520   7.063   3.021
11509WAT      O34768   3.484   1.709   1.201
11509WAT     H134769   3.439   1.635   1.250
11509WAT     H234770   3.466   1.700   1.103
11510WAT      O34771   1.190   8.074   9.140
11510WAT     H134772   1.267   8.066   9.076
11510WAT     H234773   1.206   8.150   9.202
11511WAT      O34774   7.108   5.789   2.144
11511WAT     H134775   7.188   5.829   2.099
11511WAT     H234776   7.123   5.787   2.243
11512WAT      O34777   1.185   5.148   7.014
11512WAT     H134778   1.160   5.067   6.963
11512WAT     H234779   1.259   5.196   6.967
11513WAT      O34780   6.879   6.118   5.124
11513WAT     H134781   6.780   6.103   5.131
11513WAT     H234782   6.926   6.046   5.175
11514WAT      O34783   7.615   6.776   9.367
11514WAT     H134784   7.649   6.683   9.354
11514WAT     H234785   7.668   6.839   9.310
11515WAT      O34786   8.935   6.411   2.449
11515WAT     H134787   8.865   6.452   2.508
11515WAT     H234788   8.913   6.431   2.353
11516WAT      O34789   4.408   9.676   3.057
11516WAT     H134790   4.429   9.610   3.130
11516WAT     H234791   4.407   9.629   2.969
11517WAT      O34792   7.993   2.065   9.194
11517WAT     H134793   8.012   2.141   9.256
11517WAT     H234794   7.990   2.098   9.100
11518WAT      O34795   0.374   2.454   2.692
11518WAT     H134796   0.297   2.487   2.638
11518WAT     H234797   0.458   2.495   2.658
11519WAT      O34798   2.597   5.691   7.656
11519WAT     H134799   2.626   5.598   7.679
11519WAT     H234800   2.662   5.730   7.590
11520WAT      O34801   0.123   4.655   3.494
11520WAT     H134802   0.073   4.686   3.414
11520WAT     H234803   0.184   4.580   3.468
11521WAT      O34804   5.041   6.876   1.845
11521WAT     H134805   5.025   6.966   1.885
11521WAT     H234806   5.025   6.880   1.747
11522WAT      O34807   1.906   0.869   4.483
11522WAT     H134808   1.825   0.854   4.427
11522WAT     H234809   1.924   0.788   4.539
11523WAT      O34810   6.701   1.688   0.398
11523WAT     H134811   6.621   1.683   0.458
11523WAT     H234812   6.732   1.782   0.393
11524WAT      O34813   3.217   3.193   6.509
11524WAT     H134814   3.235   3.138   6.427
11524WAT     H234815   3.147   3.261   6.489
11525WAT      O34816   0.305   9.714   6.822
11525WAT     H134817   0.352   9.764   6.895
11525WAT     H234818   0.363   9.639   6.790
11526WAT      O34819   2.490   8.615   8.491
11526WAT     H134820   2.553   8.549   8.533
11526WAT     H234821   2.543   8.685   8.443
11527WAT      O34822   4.783   5.890   1.943
11527WAT     H134823   4.698   5.879   1.892
11527WAT     H234824   4.843   5.955   1.895
11528WAT      O34825   4.851   5.335   2.198
11528WAT     H134826   4.891   5.305   2.284
11528WAT     H234827   4.881   5.429   2.179
11529WAT      O34828   6.103   7.905   9.788
11529WAT     H134829   6.192   7.892   9.832
11529WAT     H234830   6.102   7.993   9.741
11530WAT      O34831   2.994   2.678   7.801
11530WAT     H134832   2.989   2.599   7.862
11530WAT     H234833   2.902   2.716   7.789
11531WAT      O34834   7.606   9.459   2.305
11531WAT     H134835   7.615   9.451   2.404
11531WAT     H234836   7.683   9.510   2.268
11532WAT      O34837   7.177   0.526   9.217
11532WAT     H134838   7.272   0.497   9.205
11532WAT     H234839   7.134   0.538   9.127
11533WAT      O34840   5.221   4.540   1.965
11533WAT     H134841   5.145   4.567   2.024
11533WAT     H234842   5.247   4.617   1.906
11534WAT      O34843   2.998   2.860   3.136
11534WAT     H134844   2.919   2.896   3.185
11534WAT     H234845   2.982   2.764   3.114
11535WAT      O34846   5.781   2.580   2.239
11535WAT     H134847   5.737   2.526   2.167
11535WAT     H234848   5.877   2.552   2.247
11536WAT      O34849   1.646   5.419   6.981
11536WAT     H134850   1.562   5.460   7.017
11536WAT     H234851   1.725   5.452   7.034
11537WAT      O34852   7.841   9.066   0.042
11537WAT     H134853   7.894   8.991   0.002
11537WAT     H234854   7.781   9.105  -0.028
11538WAT      O34855   0.760   6.789   9.282
11538WAT     H134856   0.770   6.700   9.238
11538WAT     H234857   0.699   6.781   9.361
11539WAT      O34858   6.165   8.387   1.349
11539WAT     H134859   6.134   8.395   1.444
11539WAT     H234860   6.239   8.320   1.344
11540WAT      O34861   0.545   8.797   7.416
11540WAT     H134862   0.614   8.732   7.384
11540WAT     H234863   0.590   8.875   7.459
11541WAT      O34864   1.966   2.384   6.272
11541WAT     H134865   1.942   2.471   6.315
11541WAT     H234866   1.927   2.309   6.326
11542WAT      O34867   5.189   0.071   2.007
11542WAT     H134868   5.277   0.102   1.972
11542WAT     H234869   5.168   0.119   2.092
11543WAT      O34870   9.501   4.872   2.150
11543WAT     H134871   9.555   4.955   2.160
11543WAT     H234872   9.408   4.896   2.121
11544WAT      O34873   8.550   2.701   6.449
11544WAT     H134874   8.479   2.759   6.490
11544WAT     H234875   8.638   2.720   6.492
11545WAT      O34876   5.378   3.028   0.969
11545WAT     H134877   5.302   3.083   1.005
11545WAT     H234878   5.420   2.978   1.045
11546WAT      O34879   9.667   6.614   4.652
11546WAT     H134880   9.641   6.586   4.560
11546WAT     H234881   9.648   6.711   4.664
11547WAT      O34882   2.711   3.995   9.587
11547WAT     H134883   2.674   3.902   9.586
11547WAT     H234884   2.669   4.047   9.662
11548WAT      O34885   6.207   0.288   6.731
11548WAT     H134886   6.253   0.208   6.770
11548WAT     H234887   6.127   0.310   6.787
11549WAT      O34888   7.316   7.859   5.752
11549WAT     H134889   7.377   7.795   5.707
11549WAT     H234890   7.262   7.811   5.822
11550WAT      O34891   7.882   1.652   2.126
11550WAT     H134892   7.979   1.631   2.124
11550WAT     H234893   7.839   1.609   2.205
11551WAT      O34894   5.615   5.615   7.641
11551WAT     H134895   5.545   5.581   7.705
11551WAT     H234896   5.587   5.594   7.547
11552WAT      O34897   1.648   5.789   1.263
11552WAT     H134898   1.743   5.804   1.290
11552WAT     H234899   1.646   5.760   1.167
11553WAT      O34900   9.437   9.806   5.242
11553WAT     H134901   9.503   9.880   5.225
11553WAT     H234902   9.480   9.718   5.221
11554WAT      O34903   2.840   1.979   7.234
11554WAT     H134904   2.765   2.037   7.202
11554WAT     H234905   2.804   1.912   7.300
11555WAT      O34906   8.891   1.434   7.635
11555WAT     H134907   8.796   1.447   7.663
11555WAT     H234908   8.903   1.466   7.541
11556WAT      O34909   2.863   2.434   4.033
11556WAT     H134910   2.766   2.445   4.015
11556WAT     H234911   2.902   2.369   3.968
11557WAT      O34912   9.534   4.316   6.631
11557WAT     H134913   9.510   4.297   6.726
11557WAT     H234914   9.455   4.356   6.584
11558WAT      O34915   4.822   7.361   6.176
11558WAT     H134916   4.906   7.407   6.206
11558WAT     H234917   4.846   7.273   6.136
11559WAT      O34918   6.790   1.926   0.383
11559WAT     H134919   6.851   1.982   0.437
11559WAT     H234920   6.753   1.980   0.307
11560WAT      O34921   9.637   8.555   4.912
11560WAT     H134922   9.573   8.628   4.936
11560WAT     H234923   9.668   8.510   4.995
11561WAT      O34924   7.012   8.287   8.353
11561WAT     H134925   6.950   8.215   8.322
11561WAT     H234926   6.959   8.362   8.391
11562WAT      O34927   4.100   1.929   5.650
11562WAT     H134928   4.135   2.019   5.625
11562WAT     H234929   4.044   1.892   5.576
11563WAT      O34930   2.894   5.402   5.010
11563WAT     H134931   2.984   5.367   4.985
11563WAT     H234932   2.882   5.393   5.109
11564WAT      O34933   1.740   1.432   7.728
11564WAT     H134934   1.666   1.424   7.795
11564WAT     H234935   1.758   1.342   7.687
11565WAT      O34936   1.939   2.164   6.417
11565WAT     H134937   1.980   2.074   6.402
11565WAT     H234938   1.858   2.155   6.475
11566WAT      O34939   9.316   7.086   9.269
11566WAT     H134940   9.326   7.071   9.170
11566WAT     H234941   9.363   7.170   9.294
11567WAT      O34942   8.487   0.682   6.469
11567WAT     H134943   8.486   0.653   6.565
11567WAT     H234944   8.414   0.749   6.454
11568WAT      O34945   9.609   0.998   2.007
11568WAT     H134946   9.564   0.949   1.932
11568WAT     H234947   9.587   0.953   2.094
11569WAT      O34948   2.481   5.620   2.321
11569WAT     H134949   2.507   5.716   2.327
11569WAT     H234950   2.487   5.590   2.226
11570WAT      O34951   4.936   3.649   2.057
11570WAT     H134952   4.880   3.672   1.976
11570WAT     H234953   5.013   3.713   2.062
11571WAT      O34954   9.436   1.747   8.372
11571WAT     H134955   9.443   1.815   8.299
11571WAT     H234956   9.518   1.690   8.373
11572WAT      O34957   6.448   0.155   2.580
11572WAT     H134958   6.471   0.180   2.674
11572WAT     H234959   6.404   0.065   2.579
11573WAT      O34960   5.133   7.791   8.520
11573WAT     H134961   5.135   7.743   8.607
11573WAT     H234962   5.226   7.797   8.483
11574WAT      O34963   0.458   8.882   1.086
11574WAT     H134964   0.498   8.956   1.141
11574WAT     H234965   0.425   8.810   1.147
11575WAT      O34966   4.758   5.523   0.467
11575WAT     H134967   4.659   5.532   0.461
11575WAT     H234968   4.798   5.611   0.490
11576WAT      O34969   4.168   0.315   5.559
11576WAT     H134970   4.237   0.299   5.489
11576WAT     H234971   4.209   0.363   5.636
11577WAT      O34972   8.604   2.525   6.222
11577WAT     H134973   8.596   2.431   6.256
11577WAT     H234974   8.580   2.589   6.295
11578WAT      O34975   8.641   9.519   0.157
11578WAT     H134976   8.632   9.423   0.131
11578WAT     H234977   8.600   9.577   0.087
11579WAT      O34978   4.896   5.537   8.001
11579WAT     H134979   4.818   5.591   8.032
11579WAT     H234980   4.866   5.474   7.930
11580WAT      O34981   4.277   8.483   5.960
11580WAT     H134982   4.281   8.493   5.861
11580WAT     H234983   4.193   8.436   5.986
11581WAT      O34984   6.621   6.621   0.087
11581WAT     H134985   6.556   6.691   0.114
11581WAT     H234986   6.630   6.620  -0.012
11582WAT      O34987   6.862   3.941   4.000
11582WAT     H134988   6.885   4.030   4.040
11582WAT     H234989   6.908   3.869   4.050
11583WAT      O34990   0.498   3.330   7.467
11583WAT     H134991   0.405   3.364   7.484
11583WAT     H234992   0.530   3.279   7.547
11584WAT      O34993   0.889   6.145   5.267
11584WAT     H134994   0.937   6.102   5.343
11584WAT     H234995   0.850   6.232   5.298
11585WAT      O34996   3.539   8.737   0.673
11585WAT     H134997   3.485   8.820   0.658
11585WAT     H234998   3.610   8.754   0.741
11586WAT      O34999   8.787   3.732   2.239
11586WAT     H135000   8.877   3.741   2.281
11586WAT     H235001   8.717   3.762   2.304
11587WAT      O35002   7.388   9.204   1.011
11587WAT     H135003   7.485   9.193   0.987
11587WAT     H235004   7.347   9.114   1.023
11588WAT      O35005   5.813   2.089   2.325
11588WAT     H135006   5.753   2.066   2.248
11588WAT     H235007   5.773   2.053   2.410
11589WAT      O35008   2.282   6.041   5.342
11589WAT     H135009   2.309   6.130   5.380
11589WAT     H235010   2.239   5.986   5.414
11590WAT      O35011   7.052   2.697   7.557
11590WAT     H135012   7.040   2.759   7.635
11590WAT     H235013   6.994   2.727   7.481
11591WAT      O35014   8.376   3.874   5.455
11591WAT     H135015   8.360   3.785   5.498
11591WAT     H235016   8.421   3.861   5.367
11592WAT      O35017   1.153   6.131   2.343
11592WAT     H135018   1.121   6.203   2.406
11592WAT     H235019   1.252   6.139   2.331
11593WAT      O35020   0.132   0.981   6.353
11593WAT     H135021   0.178   0.948   6.435
11593WAT     H235022   0.100   0.903   6.299
11594WAT      O35023   0.890   6.538   4.853
11594WAT     H135024   0.847   6.628   4.846
11594WAT     H235025   0.821   6.466   4.846
11595WAT      O35026   1.411   9.599   3.284
11595WAT     H135027   1.475   9.532   3.322
11595WAT     H235028   1.435   9.616   3.188
11596WAT      O35029   6.901   0.697   7.419
11596WAT     H135030   6.847   0.631   7.471
11596WAT     H235031   6.843   0.739   7.349
11597WAT      O35032   2.178   2.506   0.471
11597WAT     H135033   2.114   2.460   0.409
11597WAT     H235034   2.241   2.439   0.509
11598WAT      O35035   9.319   1.721   3.245
11598WAT     H135036   9.354   1.801   3.196
11598WAT     H235037   9.324   1.641   3.187
11599WAT      O35038   2.660   3.416   6.195
11599WAT     H135039   2.757   3.407   6.216
11599WAT     H235040   2.628   3.506   6.224
11600WAT      O35041   6.994   7.566   9.692
11600WAT     H135042   6.990   7.535   9.597
11600WAT     H235043   7.066   7.635   9.702
11601WAT      O35044   5.035   6.228   1.287
11601WAT     H135045   4.985   6.151   1.327
11601WAT     H235046   5.038   6.304   1.352
11602WAT      O35047   9.793   5.070   9.496
11602WAT     H135048   9.767   4.983   9.537
11602WAT     H235049   9.714   5.111   9.451
11603WAT      O35050   0.779   4.936   9.738
11603WAT     H135051   0.724   5.016   9.765
11603WAT     H235052   0.864   4.967   9.696
11604WAT      O35053   3.711   8.837   5.416
11604WAT     H135054   3.630   8.785   5.445
11604WAT     H235055   3.748   8.886   5.495
11605WAT      O35056   8.523   9.488   8.464
11605WAT     H135057   8.515   9.577   8.419
11605WAT     H235058   8.539   9.417   8.395
11606WAT      O35059   1.957   5.143   0.532
11606WAT     H135060   1.937   5.188   0.444
11606WAT     H235061   1.989   5.211   0.597
11607WAT      O35062   5.887   7.264   1.357
11607WAT     H135063   5.969   7.223   1.318
11607WAT     H235064   5.824   7.288   1.283
11608WAT      O35065   1.324   6.495   9.142
11608WAT     H135066   1.281   6.514   9.054
11608WAT     H235067   1.406   6.440   9.128
11609WAT      O35068   5.315   2.411   3.894
11609WAT     H135069   5.348   2.475   3.964
11609WAT     H235070   5.346   2.318   3.917
11610WAT      O35071   4.082   5.321   3.503
11610WAT     H135072   4.040   5.252   3.443
11610WAT     H235073   4.112   5.277   3.587
11611WAT      O35074   7.578   2.469   3.394
11611WAT     H135075   7.675   2.457   3.416
11611WAT     H235076   7.564   2.451   3.296
11612WAT      O35077   0.513   0.369   1.993
11612WAT     H135078   0.545   0.332   1.906
11612WAT     H235079   0.444   0.439   1.975
11613WAT      O35080   9.195   5.017   3.283
11613WAT     H135081   9.169   5.014   3.187
11613WAT     H235082   9.185   5.111   3.317
11614WAT      O35083   7.685   2.097   3.953
11614WAT     H135084   7.702   2.181   3.902
11614WAT     H235085   7.757   2.031   3.934
11615WAT      O35086   1.144   3.296   1.678
11615WAT     H135087   1.143   3.196   1.688
11615WAT     H235088   1.238   3.328   1.678
11616WAT      O35089   9.795   7.704   7.924
11616WAT     H135090   9.825   7.648   7.847
11616WAT     H235091   9.726   7.769   7.892
11617WAT      O35092   2.101   0.260   6.930
11617WAT     H135093   2.031   0.189   6.931
11617WAT     H235094   2.137   0.271   6.838
11618WAT      O35095   2.951   7.526   3.952
11618WAT     H135096   3.005   7.454   3.995
11618WAT     H235097   2.927   7.595   4.020
11619WAT      O35098   5.535   8.473   4.528
11619WAT     H135099   5.436   8.488   4.529
11619WAT     H235100   5.580   8.548   4.576
11620WAT      O35101   7.670   3.747   9.636
11620WAT     H135102   7.598   3.704   9.582
11620WAT     H235103   7.661   3.847   9.630
11621WAT      O35104   6.919   4.134   8.910
11621WAT     H135105   6.919   4.212   8.972
11621WAT     H235106   7.012   4.099   8.899
11622WAT      O35107   1.467   8.095   4.225
11622WAT     H135108   1.439   8.159   4.296
11622WAT     H235109   1.564   8.071   4.238
11623WAT      O35110   4.028   6.751   9.806
11623WAT     H135111   4.124   6.732   9.790
11623WAT     H235112   3.972   6.699   9.741
11624WAT      O35113   5.990   9.625   1.506
11624WAT     H135114   6.055   9.633   1.430
11624WAT     H235115   5.940   9.711   1.516
11625WAT      O35116   5.860   4.610   9.503
11625WAT     H135117   5.856   4.710   9.507
11625WAT     H235118   5.888   4.581   9.412
11626WAT      O35119   5.797   2.098   3.623
11626WAT     H135120   5.811   1.999   3.633
11626WAT     H235121   5.872   2.147   3.666
11627WAT      O35122   1.818   5.208   2.947
11627WAT     H135123   1.825   5.267   2.867
11627WAT     H235124   1.802   5.263   3.029
11628WAT      O35125   1.358   2.373   1.748
11628WAT     H135126   1.266   2.412   1.739
11628WAT     H235127   1.383   2.371   1.845
11629WAT      O35128   3.138   2.963   7.330
11629WAT     H135129   3.048   2.981   7.368
11629WAT     H235130   3.154   3.024   7.252
11630WAT      O35131   3.530   4.444   9.287
11630WAT     H135132   3.513   4.349   9.315
11630WAT     H235133   3.445   4.484   9.254
11631WAT      O35134   2.291   5.638   3.405
11631WAT     H135135   2.280   5.541   3.384
11631WAT     H235136   2.279   5.692   3.321
11632WAT      O35137   3.458   0.172   8.860
11632WAT     H135138   3.497   0.245   8.916
11632WAT     H235139   3.495   0.084   8.889
11633WAT      O35140   7.764   1.475   3.976
11633WAT     H135141   7.668   1.499   3.966
11633WAT     H235142   7.772   1.398   4.040
11634WAT      O35143   1.446   8.641   0.053
11634WAT     H135144   1.460   8.585  -0.029
11634WAT     H235145   1.530   8.690   0.074
11635WAT      O35146   7.314   8.201   5.027
11635WAT     H135147   7.268   8.130   4.974
11635WAT     H235148   7.261   8.286   5.023
11636WAT      O35149   2.917   7.569   2.549
11636WAT     H135150   2.993   7.608   2.601
11636WAT     H235151   2.880   7.491   2.599
11637WAT      O35152   5.307   9.105   6.993
11637WAT     H135153   5.271   9.022   7.036
11637WAT     H235154   5.268   9.114   6.901
11638WAT      O35155   7.187   5.128   9.345
11638WAT     H135156   7.101   5.178   9.359
11638WAT     H235157   7.196   5.057   9.415
11639WAT      O35158   3.377   2.867   7.886
11639WAT     H135159   3.399   2.780   7.931
11639WAT     H235160   3.462   2.912   7.857
11640WAT      O35161   0.466   4.782   3.846
11640WAT     H135162   0.477   4.725   3.764
11640WAT     H235163   0.370   4.809   3.855
11641WAT      O35164   1.936   0.464   8.974
11641WAT     H135165   2.013   0.410   9.009
11641WAT     H235166   1.953   0.489   8.879
11642WAT      O35167   7.452   5.340   1.377
11642WAT     H135168   7.376   5.399   1.351
11642WAT     H235169   7.537   5.375   1.337
11643WAT      O35170   1.924   7.239   3.061
11643WAT     H135171   1.967   7.316   3.109
11643WAT     H235172   1.874   7.273   2.981
11644WAT      O35173   4.529   0.632   8.074
11644WAT     H135174   4.553   0.617   7.979
11644WAT     H235175   4.430   0.636   8.084
11645WAT      O35176   6.801   1.091   3.470
11645WAT     H135177   6.805   1.155   3.547
11645WAT     H235178   6.782   0.999   3.503
11646WAT      O35179   8.247   5.740   7.209
11646WAT     H135180   8.218   5.752   7.304
11646WAT     H235181   8.185   5.676   7.163
11647WAT      O35182   0.770   3.148   6.452
11647WAT     H135183   0.773   3.243   6.485
11647WAT     H235184   0.860   3.121   6.420
11648WAT      O35185   2.363   8.377   3.143
11648WAT     H135186   2.283   8.386   3.084
11648WAT     H235187   2.444   8.411   3.095
11649WAT      O35188   6.836   5.542   6.328
11649WAT     H135189   6.824   5.512   6.422
11649WAT     H235190   6.930   5.572   6.314
11650WAT      O35191   7.837   6.498   5.784
11650WAT     H135192   7.802   6.585   5.748
11650WAT     H235193   7.935   6.492   5.767
11651WAT      O35194   1.477   5.745   1.482
11651WAT     H135195   1.542   5.710   1.550
11651WAT     H235196   1.525   5.767   1.398
11652WAT      O35197   2.632   5.256   4.775
11652WAT     H135198   2.652   5.351   4.753
11652WAT     H235199   2.702   5.221   4.837
11653WAT      O35200   0.738   3.370   8.981
11653WAT     H135201   0.742   3.408   9.073
11653WAT     H235202   0.805   3.296   8.973
11654WAT      O35203   9.613   7.793   0.235
11654WAT     H135204   9.586   7.699   0.258
11654WAT     H235205   9.700   7.791   0.185
11655WAT      O35206   1.537   8.897   4.716
11655WAT     H135207   1.535   8.880   4.814
11655WAT     H235208   1.632   8.905   4.685
11656WAT      O35209   1.390   6.319   4.300
11656WAT     H135210   1.454   6.384   4.341
11656WAT     H235211   1.426   6.286   4.213
11657WAT      O35212   5.153   8.418   3.551
11657WAT     H135213   5.065   8.464   3.533
11657WAT     H235214   5.172   8.354   3.477
11658WAT      O35215   4.910   3.809   2.891
11658WAT     H135216   4.932   3.906   2.901
11658WAT     H235217   4.994   3.756   2.880
11659WAT      O35218   2.182   3.951   0.010
11659WAT     H135219   2.244   3.886   0.054
11659WAT     H235220   2.125   3.903  -0.057
11660WAT      O35221   6.783   5.594   1.299
11660WAT     H135222   6.760   5.659   1.226
11660WAT     H235223   6.808   5.645   1.381
11661WAT      O35224   8.248   6.068   7.407
11661WAT     H135225   8.240   5.970   7.424
11661WAT     H235226   8.279   6.114   7.490
11662WAT      O35227   7.668   8.248   7.765
11662WAT     H135228   7.727   8.323   7.796
11662WAT     H235229   7.586   8.246   7.822
11663WAT      O35230   0.575   7.428   2.997
11663WAT     H135231   0.478   7.409   2.985
11663WAT     H235232   0.618   7.354   3.050
11664WAT      O35233   0.817   8.021   2.494
11664WAT     H135234   0.897   7.994   2.548
11664WAT     H235235   0.845   8.047   2.402
11665WAT      O35236   8.666   9.134   7.687
11665WAT     H135237   8.677   9.092   7.597
11665WAT     H235238   8.575   9.174   7.694
11666WAT      O35239   0.808   3.770   6.289
11666WAT     H135240   0.880   3.834   6.314
11666WAT     H235241   0.806   3.761   6.189
11667WAT      O35242   9.198   1.510   3.671
11667WAT     H135243   9.128   1.573   3.635
11667WAT     H235244   9.154   1.425   3.699
11668WAT      O35245   0.759   2.122   1.054
11668WAT     H135246   0.778   2.197   1.118
11668WAT     H235247   0.841   2.102   1.001
11669WAT      O35248   3.803   2.596   1.482
11669WAT     H135249   3.789   2.513   1.427
11669WAT     H235250   3.825   2.673   1.422
11670WAT      O35251   2.122   8.665   4.779
11670WAT     H135252   2.054   8.601   4.741
11670WAT     H235253   2.131   8.648   4.877
11671WAT      O35254   8.744   5.007   6.503
11671WAT     H135255   8.713   4.959   6.421
11671WAT     H235256   8.665   5.048   6.549
11672WAT      O35257   6.857   1.810   7.080
11672WAT     H135258   6.777   1.867   7.059
11672WAT     H235259   6.858   1.790   7.178
11673WAT      O35260   0.332   0.377   2.463
11673WAT     H135261   0.283   0.459   2.492
11673WAT     H235262   0.295   0.345   2.376
11674WAT      O35263   1.576   3.474   9.358
11674WAT     H135264   1.512   3.547   9.335
11674WAT     H235265   1.543   3.388   9.319
11675WAT      O35266   8.705   3.776   1.194
11675WAT     H135267   8.665   3.825   1.271
11675WAT     H235268   8.788   3.728   1.223
11676WAT      O35269   0.123   3.679   8.547
11676WAT     H135270   0.189   3.754   8.544
11676WAT     H235271   0.051   3.695   8.481
11677WAT      O35272   8.154   6.706   7.826
11677WAT     H135273   8.246   6.742   7.839
11677WAT     H235274   8.138   6.630   7.889
11678WAT      O35275   8.891   7.374   1.375
11678WAT     H135276   8.890   7.420   1.464
11678WAT     H235277   8.895   7.443   1.302
11679WAT      O35278   0.096   7.187   4.001
11679WAT     H135279   0.035   7.132   4.058
11679WAT     H235280   0.181   7.137   3.985
11680WAT      O35281   8.866   7.682   9.800
11680WAT     H135282   8.913   7.762   9.838
11680WAT     H235283   8.885   7.674   9.703
11681WAT      O35284   8.142   1.134   5.922
11681WAT     H135285   8.119   1.051   5.972
11681WAT     H235286   8.207   1.113   5.849
11682WAT      O35287   9.234   5.534   0.279
11682WAT     H135288   9.272   5.442   0.273
11682WAT     H235289   9.147   5.538   0.229
11683WAT      O35290   5.876   2.696   0.257
11683WAT     H135291   5.803   2.627   0.258
11683WAT     H235292   5.902   2.718   0.351
11684WAT      O35293   9.230   4.064   7.703
11684WAT     H135294   9.176   4.097   7.780
11684WAT     H235295   9.312   4.120   7.693
11685WAT      O35296   8.438   3.687   7.779
11685WAT     H135297   8.469   3.781   7.762
11685WAT     H235298   8.447   3.666   7.876
11686WAT      O35299   3.420   5.073   7.363
11686WAT     H135300   3.473   5.156   7.348
11686WAT     H235301   3.323   5.096   7.369
11687WAT      O35302   9.673   0.473   2.965
11687WAT     H135303   9.587   0.496   3.011
11687WAT     H235304   9.658   0.396   2.903
11688WAT      O35305   6.541   6.792   1.703
11688WAT     H135306   6.561   6.811   1.799
11688WAT     H235307   6.545   6.694   1.686
11689WAT      O35308   3.197   6.789   3.978
11689WAT     H135309   3.168   6.716   3.916
11689WAT     H235310   3.225   6.869   3.925
11690WAT      O35311   6.555   4.119   3.693
11690WAT     H135312   6.484   4.099   3.625
11690WAT     H235313   6.520   4.183   3.760
11691WAT      O35314   5.367   1.205   6.694
11691WAT     H135315   5.464   1.187   6.702
11691WAT     H235316   5.321   1.126   6.654
11692WAT      O35317   6.818   0.088   4.497
11692WAT     H135318   6.777   0.004   4.534
11692WAT     H235319   6.908   0.067   4.458
11693WAT      O35320   8.680   8.015   6.524
11693WAT     H135321   8.724   8.048   6.440
11693WAT     H235322   8.749   7.976   6.585
11694WAT      O35323   3.603   0.415   6.060
11694WAT     H135324   3.650   0.482   6.003
11694WAT     H235325   3.653   0.328   6.057
11695WAT      O35326   6.519   5.021   9.069
11695WAT     H135327   6.485   4.956   9.002
11695WAT     H235328   6.613   5.047   9.045
11696WAT      O35329   0.330   3.984   6.269
11696WAT     H135330   0.416   3.933   6.262
11696WAT     H235331   0.254   3.921   6.283
11697WAT      O35332   2.079   7.164   9.846
11697WAT     H135333   2.028   7.239   9.887
11697WAT     H235334   2.081   7.174   9.747
11698WAT      O35335   9.303   4.357   3.484
11698WAT     H135336   9.220   4.410   3.502
11698WAT     H235337   9.358   4.353   3.567
11699WAT      O35338   4.134   9.660   7.614
11699WAT     H135339   4.197   9.702   7.549
11699WAT     H235340   4.056   9.721   7.630
11700WAT      O35341   8.553   0.299   0.413
11700WAT     H135342   8.485   0.261   0.476
11700WAT     H235343   8.568   0.235   0.338
11701WAT      O35344   1.324   5.856   4.973
11701WAT     H135345   1.309   5.858   5.071
11701WAT     H235346   1.274   5.779   4.932
11702WAT      O35347   8.938   0.799   8.373
11702WAT     H135348   8.928   0.885   8.422
11702WAT     H235349   8.980   0.731   8.434
11703WAT      O35350   8.095   4.816   0.950
11703WAT     H135351   8.066   4.885   1.016
11703WAT     H235352   8.144   4.861   0.875
11704WAT      O35353   9.824   3.299   2.070
11704WAT     H135354   9.860   3.336   1.984
11704WAT     H235355   9.814   3.200   2.063
11705WAT      O35356   3.853   9.620   2.341
11705WAT     H135357   3.784   9.554   2.310
11705WAT     H235358   3.942   9.576   2.341
11706WAT      O35359   4.340   2.035   3.008
11706WAT     H135360   4.319   2.073   3.098
11706WAT     H235361   4.437   2.014   3.002
11707WAT      O35362   6.640   1.891   6.750
11707WAT     H135363   6.595   1.926   6.832
11707WAT     H235364   6.726   1.940   6.736
11708WAT      O35365   5.731   7.823   5.995
11708WAT     H135366   5.821   7.783   5.980
11708WAT     H235367   5.734   7.883   6.075
11709WAT      O35368   5.736   7.338   1.111
11709WAT     H135369   5.710   7.283   1.031
11709WAT     H235370   5.665   7.406   1.128
11710WAT      O35371   6.673   4.796   9.321
11710WAT     H135372   6.750   4.798   9.258
11710WAT     H235373   6.595   4.844   9.280
11711WAT      O35374   6.107   3.901   9.023
11711WAT     H135375   6.066   3.928   8.936
11711WAT     H235376   6.036   3.894   9.093
11712WAT      O35377   4.116   6.636   8.882
11712WAT     H135378   4.053   6.695   8.933
11712WAT     H235379   4.191   6.608   8.941
11713WAT      O35380   8.228   8.755   8.318
11713WAT     H135381   8.242   8.657   8.304
11713WAT     H235382   8.192   8.771   8.410
11714WAT      O35383   8.389   0.482   2.777
11714WAT     H135384   8.367   0.579   2.771
11714WAT     H235385   8.487   0.471   2.796
11715WAT      O35386   4.303   9.689   4.674
11715WAT     H135387   4.270   9.783   4.683
11715WAT     H235388   4.403   9.688   4.684
11716WAT      O35389   5.910   8.457   8.510
11716WAT     H135390   5.965   8.400   8.449
11716WAT     H235391   5.815   8.425   8.509
11717WAT      O35392   7.180   7.695   1.923
11717WAT     H135393   7.215   7.758   1.853
11717WAT     H235394   7.222   7.717   2.011
11718WAT      O35395   6.227   1.978   6.704
11718WAT     H135396   6.177   2.052   6.748
11718WAT     H235397   6.184   1.891   6.726
11719WAT      O35398   8.733   9.785   6.108
11719WAT     H135399   8.712   9.693   6.076
11719WAT     H235400   8.724   9.789   6.207
11720WAT      O35401   7.220   6.152   0.524
11720WAT     H135402   7.215   6.225   0.456
11720WAT     H235403   7.314   6.142   0.555
11721WAT      O35404   7.479   0.484   7.696
11721WAT     H135405   7.449   0.486   7.791
11721WAT     H235406   7.467   0.391   7.659
11722WAT      O35407   3.169   5.135   0.558
11722WAT     H135408   3.088   5.092   0.597
11722WAT     H235409   3.150   5.232   0.542
11723WAT      O35410   5.707   2.809   0.910
11723WAT     H135411   5.788   2.847   0.864
11723WAT     H235412   5.736   2.756   0.989
11724WAT      O35413   4.745   8.313   7.653
11724WAT     H135414   4.743   8.407   7.618
11724WAT     H235415   4.739   8.249   7.577
11725WAT      O35416   5.051   7.835   3.526
11725WAT     H135417   4.977   7.848   3.460
11725WAT     H235418   5.105   7.919   3.532
11726WAT      O35419   9.812   0.783   8.220
11726WAT     H135420   9.858   0.706   8.176
11726WAT     H235421   9.713   0.769   8.217
11727WAT      O35422   3.855   8.536   6.598
11727WAT     H135423   3.955   8.535   6.598
11727WAT     H235424   3.822   8.611   6.655
11728WAT      O35425   7.695   5.965   5.222
11728WAT     H135426   7.742   6.048   5.252
11728WAT     H235427   7.763   5.893   5.207
11729WAT      O35428   3.147   7.650   2.666
11729WAT     H135429   3.196   7.620   2.747
11729WAT     H235430   3.175   7.744   2.643
11730WAT      O35431   4.755   9.705   0.902
11730WAT     H135432   4.664   9.741   0.883
11730WAT     H235433   4.818   9.732   0.830
11731WAT      O35434   3.403   3.350   0.188
11731WAT     H135435   3.471   3.279   0.203
11731WAT     H235436   3.443   3.440   0.206
11732WAT      O35437   8.847   8.301   2.847
11732WAT     H135438   8.932   8.310   2.899
11732WAT     H235439   8.789   8.381   2.863
11733WAT      O35440   2.085   9.838   8.417
11733WAT     H135441   2.055   9.770   8.351
11733WAT     H235442   2.171   9.878   8.387
11734WAT      O35443   9.873   4.964   8.333
11734WAT     H135444   9.800   4.901   8.307
11734WAT     H235445   9.921   4.995   8.251
11735WAT      O35446   9.534   7.652   1.463
11735WAT     H135447   9.624   7.610   1.456
11735WAT     H235448   9.543   7.751   1.456
11736WAT      O35449   4.140   0.865   8.370
11736WAT     H135450   4.114   0.956   8.400
11736WAT     H235451   4.237   0.849   8.389
11737WAT      O35452   6.924   8.070   5.729
11737WAT     H135453   7.000   8.112   5.778
11737WAT     H235454   6.899   8.127   5.651
11738WAT      O35455   1.499   0.342   3.131
11738WAT     H135456   1.597   0.336   3.153
11738WAT     H235457   1.446   0.349   3.215
11739WAT      O35458   7.621   7.023   7.612
11739WAT     H135459   7.672   6.968   7.546
11739WAT     H235460   7.574   6.963   7.677
11740WAT      O35461   9.289   6.342   8.443
11740WAT     H135462   9.220   6.411   8.469
11740WAT     H235463   9.335   6.371   8.360
11741WAT      O35464   5.527   5.124   7.325
11741WAT     H135465   5.584   5.126   7.407
11741WAT     H235466   5.489   5.033   7.313
11742WAT      O35467   0.487   6.938   4.212
11742WAT     H135468   0.480   6.977   4.121
11742WAT     H235469   0.433   6.992   4.277
11743WAT      O35470   0.075   5.370   7.002
11743WAT     H135471   0.118   5.282   6.982
11743WAT     H235472   0.044   5.371   7.097
11744WAT      O35473   8.489   3.678   7.303
11744WAT     H135474   8.552   3.623   7.356
11744WAT     H235475   8.492   3.773   7.336
11745WAT      O35476   3.482   3.616   0.241
11745WAT     H135477   3.402   3.673   0.258
11745WAT     H235478   3.532   3.601   0.327
11746WAT      O35479   0.569   6.817   7.034
11746WAT     H135480   0.580   6.721   7.061
11746WAT     H235481   0.627   6.835   6.954
11747WAT      O35482   5.351   8.995   2.864
11747WAT     H135483   5.266   8.952   2.896
11747WAT     H235484   5.359   9.086   2.906
11748WAT      O35485   0.779   6.810   0.669
11748WAT     H135486   0.864   6.849   0.636
11748WAT     H235487   0.734   6.874   0.732
11749WAT      O35488   7.918   4.550   4.459
11749WAT     H135489   7.965   4.638   4.448
11749WAT     H235490   7.827   4.566   4.496
11750WAT      O35491   9.333   4.713   7.786
11750WAT     H135492   9.363   4.622   7.815
11750WAT     H235493   9.238   4.708   7.754
11751WAT      O35494   0.019   2.346   1.636
11751WAT     H135495   0.113   2.326   1.664
11751WAT     H235496  -0.007   2.437   1.670
11752WAT      O35497   4.031   2.797   6.047
11752WAT     H135498   4.083   2.867   5.998
11752WAT     H235499   3.946   2.778   5.998
11753WAT      O35500   3.048   6.921   1.201
11753WAT     H135501   2.972   6.872   1.244
11753WAT     H235502   3.110   6.955   1.272
11754WAT      O35503   5.655   0.697   8.212
11754WAT     H135504   5.684   0.703   8.117
11754WAT     H235505   5.612   0.783   8.240
11755WAT      O35506   2.603   1.816   7.481
11755WAT     H135507   2.597   1.808   7.382
11755WAT     H235508   2.559   1.901   7.510
11756WAT      O35509   0.619   3.155   3.261
11756WAT     H135510   0.615   3.241   3.312
11756WAT     H235511   0.567   3.164   3.176
11757WAT      O35512   7.423   7.169   0.081
11757WAT     H135513   7.437   7.160  -0.017
11757WAT     H235514   7.438   7.081   0.126
11758WAT      O35515   1.471   5.528   9.354
11758WAT     H135516   1.434   5.567   9.269
11758WAT     H235517   1.554   5.576   9.380
11759WAT      O35518   7.446   0.810   6.473
11759WAT     H135519   7.354   0.773   6.482
11759WAT     H235520   7.478   0.800   6.379
11760WAT      O35521   4.360   8.437   4.234
11760WAT     H135522   4.339   8.415   4.139
11760WAT     H235523   4.282   8.483   4.276
11761WAT      O35524   0.847   8.195   9.757
11761WAT     H135525   0.921   8.145   9.712
11761WAT     H235526   0.765   8.138   9.760
11762WAT      O35527   4.121   8.585   4.318
11762WAT     H135528   4.087   8.674   4.348
11762WAT     H235529   4.063   8.550   4.245
11763WAT      O35530   0.331   7.887   4.999
11763WAT     H135531   0.384   7.954   5.050
11763WAT     H235532   0.389   7.809   4.976
11764WAT      O35533   4.194   7.171   6.755
11764WAT     H135534   4.229   7.080   6.733
11764WAT     H235535   4.151   7.170   6.845
11765WAT      O35536   3.310   7.715   1.665
11765WAT     H135537   3.352   7.780   1.603
11765WAT     H235538   3.377   7.646   1.692
11766WAT      O35539   6.653   4.027   7.273
11766WAT     H135540   6.631   4.044   7.177
11766WAT     H235541   6.656   3.928   7.289
11767WAT      O35542   4.544   0.370   1.545
11767WAT     H135543   4.505   0.324   1.624
11767WAT     H235544   4.570   0.303   1.476
11768WAT      O35545   5.859   7.528   5.524
11768WAT     H135546   5.871   7.606   5.586
11768WAT     H235547   5.904   7.448   5.563
11769WAT      O35548   6.460   3.076   5.040
11769WAT     H135549   6.444   2.999   5.103
11769WAT     H235550   6.376   3.095   4.988
11770WAT      O35551   2.453   8.890   0.718
11770WAT     H135552   2.453   8.931   0.810
11770WAT     H235553   2.546   8.894   0.681
11771WAT      O35554   9.771   5.758   7.210
11771WAT     H135555   9.813   5.820   7.144
11771WAT     H235556   9.687   5.799   7.246
11772WAT      O35557   2.152   8.251   4.991
11772WAT     H135558   2.128   8.347   4.999
11772WAT     H235559   2.130   8.204   5.076
11773WAT      O35560   2.146   5.873   9.797
11773WAT     H135561   2.118   5.800   9.735
11773WAT     H235562   2.113   5.961   9.762
11774WAT      O35563   6.095   1.182   3.291
11774WAT     H135564   6.081   1.153   3.385
11774WAT     H235565   6.099   1.101   3.231
11775WAT      O35566   0.756   1.603   2.322
11775WAT     H135567   0.672   1.657   2.319
11775WAT     H235568   0.834   1.663   2.341
11776WAT      O35569   9.024   0.574   6.193
11776WAT     H135570   9.024   0.564   6.292
11776WAT     H235571   9.011   0.671   6.169
11777WAT      O35572   9.650   0.045   5.999
11777WAT     H135573   9.660  -0.038   5.943
11777WAT     H235574   9.576   0.032   6.065
11778WAT      O35575   2.363   7.374   6.673
11778WAT     H135576   2.427   7.329   6.611
11778WAT     H235577   2.269   7.346   6.649
11779WAT      O35578   0.238   6.674   3.031
11779WAT     H135579   0.176   6.720   2.967
11779WAT     H235580   0.288   6.602   2.983
11780WAT      O35581   4.272   2.501   0.623
11780WAT     H135582   4.317   2.439   0.559
11780WAT     H235583   4.327   2.510   0.706
11781WAT      O35584   1.051   4.684   6.942
11781WAT     H135585   1.146   4.680   6.913
11781WAT     H235586   1.018   4.591   6.962
11782WAT      O35587   6.507   0.152   7.128
11782WAT     H135588   6.558   0.129   7.211
11782WAT     H235589   6.551   0.109   7.049
11783WAT      O35590   4.267   6.705   9.704
11783WAT     H135591   4.255   6.607   9.688
11783WAT     H235592   4.357   6.720   9.746
11784WAT      O35593   3.500   0.003   2.038
11784WAT     H135594   3.594   0.035   2.023
11784WAT     H235595   3.463   0.046   2.120
11785WAT      O35596   7.581   2.905   4.488
11785WAT     H135597   7.542   2.852   4.412
11785WAT     H235598   7.644   2.973   4.451
11786WAT      O35599   4.933   2.633   8.554
11786WAT     H135600   4.969   2.720   8.587
11786WAT     H235601   4.938   2.565   8.627
11787WAT      O35602   0.432   9.759   6.134
11787WAT     H135603   0.529   9.783   6.135
11787WAT     H235604   0.378   9.840   6.154
11788WAT      O35605   8.026   2.454   1.229
11788WAT     H135606   8.031   2.467   1.130
11788WAT     H235607   8.084   2.521   1.275
11789WAT      O35608   0.451   9.086   4.960
11789WAT     H135609   0.459   9.004   5.017
11789WAT     H235610   0.372   9.140   4.990
11790WAT      O35611   9.063   5.120   8.780
11790WAT     H135612   9.061   5.040   8.839
11790WAT     H235613   9.152   5.126   8.735
11791WAT      O35614   8.435   2.556   7.858
11791WAT     H135615   8.440   2.461   7.829
11791WAT     H235616   8.506   2.609   7.812
11792WAT      O35617   5.145   9.099   0.299
11792WAT     H135618   5.101   9.132   0.382
11792WAT     H235619   5.125   9.002   0.287
11793WAT      O35620   3.535   4.893   3.093
11793WAT     H135621   3.529   4.858   3.000
11793WAT     H235622   3.535   4.993   3.091
11794WAT      O35623   6.740   8.596   2.502
11794WAT     H135624   6.741   8.556   2.410
11794WAT     H235625   6.783   8.532   2.566
11795WAT      O35626   5.719   3.228   8.349
11795WAT     H135627   5.802   3.251   8.401
11795WAT     H235628   5.693   3.306   8.293
11796WAT      O35629   3.502   9.750   6.148
11796WAT     H135630   3.435   9.676   6.139
11796WAT     H235631   3.515   9.794   6.059
11797WAT      O35632   7.514   1.226   5.301
11797WAT     H135633   7.543   1.193   5.391
11797WAT     H235634   7.447   1.163   5.262
11798WAT      O35635   0.047   8.540   6.087
11798WAT     H135636   0.114   8.600   6.043
11798WAT     H235637  -0.042   8.552   6.042
11799WAT      O35638   5.272   9.063   4.091
11799WAT     H135639   5.323   9.052   4.006
11799WAT     H235640   5.202   9.133   4.080
11800WAT      O35641   4.298   7.556   9.418
11800WAT     H135642   4.233   7.624   9.450
11800WAT     H235643   4.329   7.581   9.326
11801WAT      O35644   0.091   1.405   4.223
11801WAT     H135645   0.077   1.339   4.297
11801WAT     H235646   0.023   1.389   4.151
11802WAT      O35647   4.015   7.309   0.654
11802WAT     H135648   3.994   7.378   0.723
11802WAT     H235649   4.113   7.289   0.657
11803WAT      O35650   0.582   7.757   0.089
11803WAT     H135651   0.579   7.722  -0.005
11803WAT     H235652   0.500   7.726   0.138
11804WAT      O35653   3.331   6.695   4.516
11804WAT     H135654   3.244   6.723   4.559
11804WAT     H235655   3.319   6.690   4.417
11805WAT      O35656   3.401   5.592   8.875
11805WAT     H135657   3.310   5.633   8.868
11805WAT     H235658   3.442   5.615   8.963
11806WAT      O35659   3.610   6.113   5.664
11806WAT     H135660   3.671   6.142   5.591
11806WAT     H235661   3.540   6.052   5.627
11807WAT      O35662   4.127   9.595   8.913
11807WAT     H135663   4.210   9.548   8.943
11807WAT     H235664   4.145   9.647   8.830
11808WAT      O35665   9.509   5.621   0.657
11808WAT     H135666   9.576   5.609   0.585
11808WAT     H235667   9.515   5.544   0.722
11809WAT      O35668   8.084   7.085   4.071
11809WAT     H135669   7.993   7.075   4.031
11809WAT     H235670   8.151   7.039   4.012
11810WAT      O35671   8.150   7.755   1.133
11810WAT     H135672   8.110   7.751   1.225
11810WAT     H235673   8.202   7.672   1.116
11811WAT      O35674   2.396   4.782   4.171
11811WAT     H135675   2.348   4.713   4.226
11811WAT     H235676   2.438   4.738   4.092
11812WAT      O35677   1.115   0.699   4.873
11812WAT     H135678   1.082   0.788   4.905
11812WAT     H235679   1.172   0.658   4.945
11813WAT      O35680   6.568   6.641   2.283
11813WAT     H135681   6.475   6.670   2.307
11813WAT     H235682   6.564   6.561   2.224
11814WAT      O35683   2.940   0.024   7.162
11814WAT     H135684   3.004   0.071   7.223
11814WAT     H235685   2.870  -0.023   7.216
11815WAT      O35686   8.500   1.405   8.336
11815WAT     H135687   8.495   1.498   8.301
11815WAT     H235688   8.501   1.407   8.436
11816WAT      O35689   4.574   0.451   9.085
11816WAT     H135690   4.632   0.380   9.124
11816WAT     H235691   4.546   0.424   8.993
11817WAT      O35692   1.691   4.826   2.170
11817WAT     H135693   1.646   4.853   2.255
11817WAT     H235694   1.788   4.809   2.188
11818WAT      O35695   2.039   3.449   7.373
11818WAT     H135696   1.994   3.464   7.285
11818WAT     H235697   1.976   3.402   7.435
11819WAT      O35698   0.963   4.711   0.650
11819WAT     H135699   0.891   4.642   0.644
11819WAT     H235700   1.034   4.680   0.713
11820WAT      O35701   2.206   4.173   1.195
11820WAT     H135702   2.249   4.086   1.218
11820WAT     H235703   2.219   4.193   1.098
11821WAT      O35704   1.601   2.205   6.878
11821WAT     H135705   1.630   2.148   6.801
11821WAT     H235706   1.675   2.209   6.946
11822WAT      O35707   7.797   0.482   6.000
11822WAT     H135708   7.828   0.524   5.914
11822WAT     H235709   7.867   0.418   6.031
11823WAT      O35710   2.968   4.582   3.691
11823WAT     H135711   2.933   4.669   3.726
11823WAT     H235712   2.936   4.507   3.748
11824WAT      O35713   8.879   6.255   2.844
11824WAT     H135714   8.847   6.224   2.755
11824WAT     H235715   8.866   6.353   2.852
11825WAT      O35716   4.163   6.084   3.759
11825WAT     H135717   4.070   6.120   3.756
11825WAT     H235718   4.224   6.150   3.803
11826WAT      O35719   3.427   3.628   8.185
11826WAT     H135720   3.450   3.542   8.231
11826WAT     H235721   3.510   3.679   8.166
11827WAT      O35722   0.473   9.148   0.502
11827WAT     H135723   0.507   9.099   0.422
11827WAT     H235724   0.375   9.167   0.491
11828WAT      O35725   8.259   1.486   9.322
11828WAT     H135726   8.330   1.449   9.262
11828WAT     H235727   8.248   1.427   9.401
11829WAT      O35728   9.274   1.793   6.625
11829WAT     H135729   9.371   1.773   6.615
11829WAT     H235730   9.254   1.882   6.584
11830WAT      O35731   2.686   1.338   7.102
11830WAT     H135732   2.742   1.386   7.170
11830WAT     H235733   2.595   1.379   7.098
11831WAT      O35734   5.045   9.189   4.170
11831WAT     H135735   4.966   9.247   4.148
11831WAT     H235736   5.016   9.117   4.233
11832WAT      O35737   3.533   3.678   2.986
11832WAT     H135738   3.495   3.610   2.923
11832WAT     H235739   3.623   3.648   3.018
11833WAT      O35740   3.290   3.112   2.928
11833WAT     H135741   3.346   3.135   2.848
11833WAT     H235742   3.196   3.142   2.913
11834WAT      O35743   2.422   1.401   5.928
11834WAT     H135744   2.509   1.351   5.933
11834WAT     H235745   2.347   1.335   5.934
11835WAT      O35746   6.104   3.393   4.176
11835WAT     H135747   6.171   3.331   4.216
11835WAT     H235748   6.102   3.478   4.229
11836WAT      O35749   5.986   8.058   5.320
11836WAT     H135750   6.055   8.108   5.372
11836WAT     H235751   6.006   7.960   5.323
11837WAT      O35752   8.154   1.953   9.355
11837WAT     H135753   8.084   1.983   9.290
11837WAT     H235754   8.192   1.865   9.325
11838WAT      O35755   6.169   9.136   7.734
11838WAT     H135756   6.070   9.152   7.737
11838WAT     H235757   6.188   9.039   7.749
11839WAT      O35758   2.050   6.364   0.960
11839WAT     H135759   2.140   6.406   0.952
11839WAT     H235760   1.980   6.433   0.943
11840WAT      O35761   1.695   2.945   1.772
11840WAT     H135762   1.636   2.938   1.692
11840WAT     H235763   1.695   3.039   1.806
11841WAT      O35764   2.029   0.673   2.201
11841WAT     H135765   2.074   0.759   2.227
11841WAT     H235766   2.093   0.597   2.214
11842WAT      O35767   0.715   8.301   2.403
11842WAT     H135768   0.786   8.272   2.338
11842WAT     H235769   0.625   8.294   2.359
11843WAT      O35770   2.237   7.266   8.553
11843WAT     H135771   2.211   7.172   8.531
11843WAT     H235772   2.317   7.292   8.499
11844WAT      O35773   8.717   9.320   1.385
11844WAT     H135774   8.780   9.378   1.333
11844WAT     H235775   8.703   9.358   1.476
11845WAT      O35776   3.334   4.780   3.542
11845WAT     H135777   3.255   4.813   3.490
11845WAT     H235778   3.415   4.777   3.483
11846WAT      O35779   4.393   7.865   6.182
11846WAT     H135780   4.478   7.837   6.229
11846WAT     H235781   4.354   7.786   6.135
11847WAT      O35782   3.826   4.767   6.436
11847WAT     H135783   3.916   4.793   6.403
11847WAT     H235784   3.758   4.779   6.364
11848WAT      O35785   1.814   3.673   6.679
11848WAT     H135786   1.859   3.745   6.627
11848WAT     H235787   1.849   3.584   6.650
11849WAT      O35788   9.474   4.885   8.641
11849WAT     H135789   9.431   4.884   8.551
11849WAT     H235790   9.415   4.839   8.707
11850WAT      O35791   3.046   4.895   4.284
11850WAT     H135792   3.142   4.921   4.294
11850WAT     H235793   3.006   4.942   4.205
11851WAT      O35794   3.420   1.268   6.193
11851WAT     H135795   3.417   1.368   6.184
11851WAT     H235796   3.328   1.231   6.181
11852WAT      O35797   2.187   0.951   6.885
11852WAT     H135798   2.265   0.977   6.942
11852WAT     H235799   2.113   1.017   6.897
11853WAT      O35800   5.189   6.451   1.086
11853WAT     H135801   5.245   6.515   1.034
11853WAT     H235802   5.238   6.364   1.097
11854WAT      O35803   6.816   8.966   7.386
11854WAT     H135804   6.812   8.973   7.286
11854WAT     H235805   6.839   9.056   7.424
11855WAT      O35806   9.554   5.027   4.726
11855WAT     H135807   9.585   4.965   4.798
11855WAT     H235808   9.492   5.095   4.765
11856WAT      O35809   5.051   3.265   4.680
11856WAT     H135810   5.052   3.172   4.716
11856WAT     H235811   5.124   3.276   4.612
11857WAT      O35812   9.583   7.390   2.874
11857WAT     H135813   9.652   7.439   2.927
11857WAT     H235814   9.526   7.336   2.935
11858WAT      O35815   5.521   4.470   3.166
11858WAT     H135816   5.529   4.555   3.218
11858WAT     H235817   5.570   4.397   3.213
11859WAT      O35818   4.697   0.112   2.850
11859WAT     H135819   4.768   0.106   2.920
11859WAT     H235820   4.712   0.194   2.794
11860WAT      O35821   7.753   7.673   5.187
11860WAT     H135822   7.810   7.611   5.241
11860WAT     H235823   7.812   7.735   5.136
11861WAT      O35824   2.830   6.365   3.177
11861WAT     H135825   2.922   6.390   3.147
11861WAT     H235826   2.835   6.288   3.240
11862WAT      O35827   0.465   2.229   2.262
11862WAT     H135828   0.530   2.167   2.306
11862WAT     H235829   0.381   2.232   2.315
11863WAT      O35830   9.733   4.323   1.245
11863WAT     H135831   9.643   4.285   1.265
11863WAT     H235832   9.779   4.264   1.178
11864WAT      O35833   1.876   5.292   2.011
11864WAT     H135834   1.907   5.337   2.095
11864WAT     H235835   1.920   5.335   1.932
11865WAT      O35836   6.378   2.341   2.685
11865WAT     H135837   6.378   2.242   2.697
11865WAT     H235838   6.372   2.385   2.774
11866WAT      O35839   7.160   4.523   7.629
11866WAT     H135840   7.206   4.612   7.625
11866WAT     H235841   7.088   4.527   7.698
11867WAT      O35842   2.650   3.666   4.853
11867WAT     H135843   2.613   3.630   4.939
11867WAT     H235844   2.577   3.677   4.787
11868WAT      O35845   9.339   5.742   2.601
11868WAT     H135846   9.269   5.807   2.573
11868WAT     H235847   9.416   5.791   2.641
11869WAT      O35848   8.416   0.033   5.036
11869WAT     H135849   8.487   0.083   4.987
11869WAT     H235850   8.357   0.097   5.084
11870WAT      O35851   7.480   6.837   1.809
11870WAT     H135852   7.473   6.738   1.809
11870WAT     H235853   7.424   6.875   1.735
11871WAT      O35854   9.527   6.673   1.166
11871WAT     H135855   9.520   6.768   1.194
11871WAT     H235856   9.613   6.634   1.199
11872WAT      O35857   2.380   3.881   5.480
11872WAT     H135858   2.418   3.964   5.439
11872WAT     H235859   2.357   3.899   5.576
11873WAT      O35860   8.624   4.081   1.023
11873WAT     H135861   8.582   4.155   0.971
11873WAT     H235862   8.673   4.118   1.102
11874WAT      O35863   1.384   0.752   8.417
11874WAT     H135864   1.398   0.754   8.318
11874WAT     H235865   1.340   0.666   8.444
11875WAT      O35866   2.439   1.302   2.477
11875WAT     H135867   2.531   1.331   2.450
11875WAT     H235868   2.371   1.362   2.435
11876WAT      O35869   7.115   5.818   6.039
11876WAT     H135870   7.101   5.839   6.135
11876WAT     H235871   7.099   5.900   5.984
11877WAT      O35872   8.551   5.980   0.430
11877WAT     H135873   8.590   6.049   0.369
11877WAT     H235874   8.537   6.019   0.520
11878WAT      O35875   2.185   3.841   9.547
11878WAT     H135876   2.240   3.821   9.628
11878WAT     H235877   2.235   3.813   9.465
11879WAT      O35878   8.594   6.492   7.020
11879WAT     H135879   8.543   6.541   7.090
11879WAT     H235880   8.617   6.555   6.945
11880WAT      O35881   8.469   6.010   0.906
11880WAT     H135882   8.383   6.055   0.930
11880WAT     H235883   8.470   5.918   0.945
11881WAT      O35884   4.096   8.927   3.524
11881WAT     H135885   4.142   9.016   3.526
11881WAT     H235886   4.096   8.887   3.615
11882WAT      O35887   6.158   4.744   7.663
11882WAT     H135888   6.187   4.827   7.712
11882WAT     H235889   6.079   4.704   7.710
11883WAT      O35890   4.352   2.730   7.865
11883WAT     H135891   4.303   2.662   7.919
11883WAT     H235892   4.305   2.744   7.777
11884WAT      O35893   9.350   0.027   4.012
11884WAT     H135894   9.288  -0.052   4.013
11884WAT     H235895   9.299   0.110   3.991
11885WAT      O35896   2.901   9.812   8.716
11885WAT     H135897   2.836   9.756   8.665
11885WAT     H235898   2.969   9.850   8.653
11886WAT      O35899   4.819   8.358   5.944
11886WAT     H135900   4.915   8.360   5.972
11886WAT     H235901   4.761   8.344   6.025
11887WAT      O35902   9.588   6.077   5.418
11887WAT     H135903   9.534   6.100   5.337
11887WAT     H235904   9.622   6.161   5.461
11888WAT      O35905   3.263   3.382   9.577
11888WAT     H135906   3.177   3.331   9.572
11888WAT     H235907   3.283   3.422   9.488
11889WAT      O35908   8.981   1.161   3.386
11889WAT     H135909   8.888   1.148   3.422
11889WAT     H235910   9.048   1.143   3.458
11890WAT      O35911   1.501   3.604   6.135
11890WAT     H135912   1.443   3.578   6.058
11890WAT     H235913   1.444   3.640   6.209
11891WAT      O35914   5.684   6.317   0.716
11891WAT     H135915   5.641   6.405   0.698
11891WAT     H235916   5.658   6.286   0.808
11892WAT      O35917   5.708   0.551   1.348
11892WAT     H135918   5.620   0.518   1.314
11892WAT     H235919   5.782   0.514   1.292
11893WAT      O35920   1.983   9.581   6.894
11893WAT     H135921   1.941   9.665   6.861
11893WAT     H235922   2.082   9.585   6.880
11894WAT      O35923   8.318   9.731   2.212
11894WAT     H135924   8.237   9.737   2.270
11894WAT     H235925   8.384   9.801   2.240
11895WAT      O35926   9.264   5.468   2.406
11895WAT     H135927   9.300   5.552   2.367
11895WAT     H235928   9.288   5.391   2.348
11896WAT      O35929   4.649   4.751   5.040
11896WAT     H135930   4.737   4.761   4.992
11896WAT     H235931   4.583   4.815   5.000
11897WAT      O35932   3.772   5.202   9.729
11897WAT     H135933   3.769   5.102   9.735
11897WAT     H235934   3.861   5.235   9.762
11898WAT      O35935   9.594   5.389   8.507
11898WAT     H135936   9.500   5.359   8.492
11898WAT     H235937   9.646   5.379   8.422
11899WAT      O35938   7.821   4.886   6.520
11899WAT     H135939   7.801   4.813   6.585
11899WAT     H235940   7.865   4.962   6.567
11900WAT      O35941   3.348   8.431   4.803
11900WAT     H135942   3.255   8.463   4.786
11900WAT     H235943   3.356   8.400   4.898
11901WAT      O35944   1.872   6.275   0.119
11901WAT     H135945   1.917   6.323   0.195
11901WAT     H235946   1.819   6.198   0.155
11902WAT      O35947   5.870   2.733   1.722
11902WAT     H135948   5.815   2.657   1.690
11902WAT     H235949   5.891   2.721   1.819
11903WAT      O35950   0.163   3.588   6.034
11903WAT     H135951   0.252   3.632   6.020
11903WAT     H235952   0.096   3.627   5.970
11904WAT      O35953   1.151   3.072   6.227
11904WAT     H135954   1.240   3.036   6.200
11904WAT     H235955   1.079   3.015   6.189
11905WAT      O35956   0.953   7.765   0.711
11905WAT     H135957   1.010   7.822   0.651
11905WAT     H235958   0.858   7.796   0.705
11906WAT      O35959   9.650   3.004   4.514
11906WAT     H135960   9.718   3.078   4.509
11906WAT     H235961   9.563   3.042   4.546
11907WAT      O35962   6.644   2.255   1.274
11907WAT     H135963   6.559   2.237   1.224
11907WAT     H235964   6.661   2.182   1.339
11908WAT      O35965   8.410   7.011   4.750
11908WAT     H135966   8.451   6.935   4.699
11908WAT     H235967   8.374   6.976   4.837
11909WAT      O35968   6.728   5.059   5.782
11909WAT     H135969   6.825   5.036   5.790
11909WAT     H235970   6.675   5.000   5.843
11910WAT      O35971   6.269   5.409   7.395
11910WAT     H135972   6.213   5.352   7.454
11910WAT     H235973   6.337   5.352   7.348
11911WAT      O35974   7.325   4.008   6.873
11911WAT     H135975   7.412   3.959   6.876
11911WAT     H235976   7.293   4.013   6.778
11912WAT      O35977   4.274   4.290   5.926
11912WAT     H135978   4.293   4.191   5.922
11912WAT     H235979   4.208   4.308   5.999
11913WAT      O35980   3.448   5.788   9.540
11913WAT     H135981   3.442   5.690   9.525
11913WAT     H235982   3.472   5.807   9.635
11914WAT      O35983   8.432   7.110   9.141
11914WAT     H135984   8.353   7.067   9.185
11914WAT     H235985   8.407   7.201   9.109
11915WAT      O35986   2.971   4.372   3.879
11915WAT     H135987   3.021   4.439   3.933
11915WAT     H235988   3.032   4.297   3.854
11916WAT      O35989   9.592   5.694   0.190
11916WAT     H135990   9.633   5.773   0.144
11916WAT     H235991   9.497   5.715   0.213
11917WAT      O35992   2.176   7.203   7.411
11917WAT     H135993   2.236   7.273   7.372
11917WAT     H235994   2.082   7.219   7.381
11918WAT      O35995   0.620   0.344   5.478
11918WAT     H135996   0.545   0.394   5.521
11918WAT     H235997   0.646   0.390   5.393
11919WAT      O35998   8.386   2.996   0.826
11919WAT     H135999   8.436   3.051   0.893
11919WAT     H236000   8.404   3.032   0.734
11920WAT      O36001   3.800   4.755   8.161
11920WAT     H136002   3.803   4.678   8.097
11920WAT     H236003   3.730   4.820   8.130
11921WAT      O36004   4.311   8.888   2.099
11921WAT     H136005   4.353   8.959   2.156
11921WAT     H236006   4.238   8.844   2.150
11922WAT      O36007   4.527   6.616   6.084
11922WAT     H136008   4.472   6.661   6.013
11922WAT     H236009   4.585   6.684   6.129
11923WAT      O36010   1.581   2.696   6.778
11923WAT     H136011   1.664   2.733   6.735
11923WAT     H236012   1.558   2.753   6.857
11924WAT      O36013   1.959   4.717   9.729
11924WAT     H136014   1.934   4.622   9.748
11924WAT     H236015   2.050   4.720   9.690
11925WAT      O36016   2.838   9.612   3.886
11925WAT     H136017   2.821   9.615   3.787
11925WAT     H236018   2.750   9.614   3.935
11926WAT      O36019   0.592   0.917   8.541
11926WAT     H136020   0.637   0.963   8.465
11926WAT     H236021   0.594   0.976   8.622
11927WAT      O36022   0.879   7.403   5.476
11927WAT     H136023   0.850   7.371   5.567
11927WAT     H236024   0.972   7.371   5.458
11928WAT      O36025   7.908   9.809   0.048
11928WAT     H136026   7.855   9.844   0.125
11928WAT     H236027   7.850   9.805  -0.033
11929WAT      O36028   1.875   7.337   4.044
11929WAT     H136029   1.782   7.348   4.009
11929WAT     H236030   1.937   7.315   3.968
11930WAT      O36031   0.069   5.873   3.825
11930WAT     H136032   0.083   5.955   3.771
11930WAT     H236033   0.102   5.793   3.775
11931WAT      O36034   6.008   6.552   9.148
11931WAT     H136035   6.006   6.643   9.188
11931WAT     H236036   5.951   6.490   9.203
11932WAT      O36037   5.458   7.233   4.350
11932WAT     H136038   5.473   7.288   4.268
11932WAT     H236039   5.364   7.247   4.383
11933WAT      O36040   8.770   2.122   4.542
11933WAT     H136041   8.761   2.029   4.580
11933WAT     H236042   8.797   2.185   4.615
11934WAT      O36043   2.401   7.647   6.762
11934WAT     H136044   2.304   7.672   6.752
11934WAT     H236045   2.423   7.576   6.695
11935WAT      O36046   2.592   0.455   4.242
11935WAT     H136047   2.659   0.442   4.315
11935WAT     H236048   2.510   0.498   4.280
11936WAT      O36049   6.703   7.275   9.798
11936WAT     H136050   6.671   7.351   9.741
11936WAT     H236051   6.658   7.279   9.887
11937WAT      O36052   7.674   5.943   5.934
11937WAT     H136053   7.701   5.938   6.031
11937WAT     H236054   7.595   6.003   5.925
11938WAT      O36055   6.414   0.088   6.775
11938WAT     H136056   6.505   0.069   6.737
11938WAT     H236057   6.404   0.040   6.863
11939WAT      O36058   5.497   2.353   8.435
11939WAT     H136059   5.513   2.443   8.474
11939WAT     H236060   5.420   2.357   8.371
11940WAT      O36061   1.391   1.301   4.625
11940WAT     H136062   1.449   1.228   4.661
11940WAT     H236063   1.418   1.321   4.531
11941WAT      O36064   4.005   2.566   0.643
11941WAT     H136065   3.955   2.504   0.704
11941WAT     H236066   4.097   2.531   0.626
11942WAT      O36067   3.577   7.769   8.005
11942WAT     H136068   3.579   7.738   7.910
11942WAT     H236069   3.642   7.845   8.016
11943WAT      O36070   2.461   8.791   5.486
11943WAT     H136071   2.464   8.743   5.399
11943WAT     H236072   2.529   8.752   5.548
11944WAT      O36073   0.086   3.987   9.381
11944WAT     H136074  -0.003   3.982   9.426
11944WAT     H236075   0.127   4.077   9.397
11945WAT      O36076   8.088   0.293   7.743
11945WAT     H136077   8.019   0.304   7.671
11945WAT     H236078   8.163   0.236   7.708
11946WAT      O36079   7.558   3.819   2.607
11946WAT     H136080   7.628   3.824   2.678
11946WAT     H236081   7.470   3.797   2.649
11947WAT      O36082   4.053   6.040   0.587
11947WAT     H136083   3.980   6.030   0.521
11947WAT     H236084   4.107   6.121   0.566
11948WAT      O36085   8.705   3.496   6.048
11948WAT     H136086   8.747   3.493   5.957
11948WAT     H236087   8.610   3.466   6.041
11949WAT      O36088   7.145   0.622   4.302
11949WAT     H136089   7.096   0.553   4.355
11949WAT     H236090   7.139   0.710   4.349
11950WAT      O36091   1.687   5.969   5.714
11950WAT     H136092   1.623   5.985   5.789
11950WAT     H236093   1.638   5.933   5.635
11951WAT      O36094   6.684   0.932   6.732
11951WAT     H136095   6.752   0.864   6.703
11951WAT     H236096   6.595   0.908   6.694
11952WAT      O36097   6.505   6.038   3.561
11952WAT     H136098   6.594   5.994   3.554
11952WAT     H236099   6.433   5.971   3.547
11953WAT      O36100   3.930   6.508   6.074
11953WAT     H136101   3.945   6.416   6.109
11953WAT     H236102   3.832   6.529   6.077
11954WAT      O36103   4.193   4.434   0.035
11954WAT     H136104   4.252   4.475   0.104
11954WAT     H236105   4.233   4.449  -0.056
11955WAT      O36106   7.182   4.389   6.990
11955WAT     H136107   7.263   4.342   7.026
11955WAT     H236108   7.124   4.418   7.067
11956WAT      O36109   6.414   1.664   3.254
11956WAT     H136110   6.388   1.693   3.346
11956WAT     H236111   6.436   1.567   3.254
11957WAT      O36112   0.364   1.239   9.167
11957WAT     H136113   0.311   1.184   9.232
11957WAT     H236114   0.381   1.187   9.084
11958WAT      O36115   3.333   2.548   5.783
11958WAT     H136116   3.284   2.594   5.709
11958WAT     H236117   3.308   2.451   5.784
11959WAT      O36118   4.152   2.178   7.329
11959WAT     H136119   4.210   2.102   7.300
11959WAT     H236120   4.059   2.145   7.344
11960WAT      O36121   3.641   0.141   9.209
11960WAT     H136122   3.639   0.241   9.200
11960WAT     H236123   3.734   0.108   9.192
11961WAT      O36124   4.861   4.979   7.758
11961WAT     H136125   4.921   4.910   7.797
11961WAT     H236126   4.769   4.970   7.798
11962WAT      O36127   3.361   1.542   2.414
11962WAT     H136128   3.275   1.560   2.366
11962WAT     H236129   3.398   1.455   2.382
11963WAT      O36130   3.165   2.326   8.859
11963WAT     H136131   3.145   2.232   8.886
11963WAT     H236132   3.166   2.332   8.759
11964WAT      O36133   0.500   6.482   6.926
11964WAT     H136134   0.537   6.517   7.012
11964WAT     H236135   0.428   6.543   6.894
11965WAT      O36136   6.550   4.367   3.298
11965WAT     H136137   6.643   4.399   3.285
11965WAT     H236138   6.491   4.445   3.323
11966WAT      O36139   0.574   2.768   3.526
11966WAT     H136140   0.483   2.809   3.525
11966WAT     H236141   0.642   2.836   3.498
11967WAT      O36142   0.273   4.171   7.099
11967WAT     H136143   0.334   4.112   7.150
11967WAT     H236144   0.183   4.128   7.090
11968WAT      O36145   6.633   1.626   6.715
11968WAT     H136146   6.615   1.724   6.719
11968WAT     H236147   6.706   1.608   6.650
11969WAT      O36148   4.767   1.616   2.322
11969WAT     H136149   4.670   1.604   2.300
11969WAT     H236150   4.804   1.528   2.353
11970WAT      O36151   7.367   0.772   4.009
11970WAT     H136152   7.354   0.755   3.911
11970WAT     H236153   7.375   0.684   4.057
11971WAT      O36154   7.909   4.368   2.843
11971WAT     H136155   7.994   4.374   2.894
11971WAT     H236156   7.923   4.402   2.750
11972WAT      O36157   9.490   8.809   0.118
11972WAT     H136158   9.402   8.808   0.166
11972WAT     H236159   9.495   8.731   0.056
11973WAT      O36160   9.071   5.182   1.539
11973WAT     H136161   9.161   5.200   1.500
11973WAT     H236162   9.072   5.093   1.586
11974WAT      O36163   1.359   3.854   2.660
11974WAT     H136164   1.397   3.892   2.575
11974WAT     H236165   1.328   3.761   2.644
11975WAT      O36166   4.153   6.745   3.125
11975WAT     H136167   4.240   6.761   3.079
11975WAT     H236168   4.151   6.795   3.212
11976WAT      O36169   3.794   5.788   9.148
11976WAT     H136170   3.816   5.711   9.208
11976WAT     H236171   3.860   5.861   9.162
11977WAT      O36172   0.851   8.328   7.667
11977WAT     H136173   0.911   8.252   7.692
11977WAT     H236174   0.863   8.403   7.733
11978WAT      O36175   0.150   7.605   6.273
11978WAT     H136176   0.066   7.601   6.220
11978WAT     H236177   0.228   7.610   6.211
11979WAT      O36178   9.241   8.726   0.651
11979WAT     H136179   9.239   8.682   0.740
11979WAT     H236180   9.206   8.662   0.581
11980WAT      O36181   7.091   6.961   5.492
11980WAT     H136182   7.019   6.990   5.429
11980WAT     H236183   7.178   6.957   5.443
11981WAT      O36184   7.643   5.524   6.225
11981WAT     H136185   7.646   5.567   6.315
11981WAT     H236186   7.672   5.590   6.155
11982WAT      O36187   1.082   9.252   7.391
11982WAT     H136188   1.028   9.214   7.316
11982WAT     H236189   1.061   9.350   7.401
11983WAT      O36190   3.172   0.148   7.293
11983WAT     H136191   3.261   0.114   7.324
11983WAT     H236192   3.180   0.182   7.199
11984WAT      O36193   2.068   7.489   6.862
11984WAT     H136194   2.131   7.413   6.875
11984WAT     H236195   1.974   7.455   6.858
11985WAT      O36196   7.490   9.110   6.579
11985WAT     H136197   7.542   9.096   6.664
11985WAT     H236198   7.527   9.188   6.530
11986WAT      O36199   0.721   3.373   7.242
11986WAT     H136200   0.677   3.416   7.163
11986WAT     H236201   0.650   3.341   7.305
11987WAT      O36202   8.831   5.784   2.309
11987WAT     H136203   8.863   5.771   2.403
11987WAT     H236204   8.879   5.862   2.268
11988WAT      O36205   5.023   4.531   2.917
11988WAT     H136206   5.117   4.528   2.952
11988WAT     H236207   5.018   4.481   2.830
11989WAT      O36208   0.554   9.737   0.328
11989WAT     H136209   0.515   9.829   0.337
11989WAT     H236210   0.486   9.669   0.353
11990WAT      O36211   3.611   3.649   5.875
11990WAT     H136212   3.684   3.707   5.837
11990WAT     H236213   3.559   3.702   5.943
11991WAT      O36214   4.408   0.623   2.719
11991WAT     H136215   4.397   0.525   2.734
11991WAT     H236216   4.446   0.638   2.627
11992WAT      O36217   3.044   2.723   7.254
11992WAT     H136218   3.056   2.662   7.332
11992WAT     H236219   3.087   2.811   7.273
11993WAT      O36220   3.561   0.120   5.398
11993WAT     H136221   3.641   0.179   5.397
11993WAT     H236222   3.569   0.050   5.326
11994WAT      O36223   3.029   6.922   4.200
11994WAT     H136224   3.075   6.900   4.286
11994WAT     H236225   3.051   6.852   4.132
11995WAT      O36226   9.459   8.388   1.192
11995WAT     H136227   9.369   8.420   1.162
11995WAT     H236228   9.518   8.466   1.210
11996WAT      O36229   9.858   1.630   7.009
11996WAT     H136230   9.774   1.596   7.050
11996WAT     H236231   9.931   1.631   7.077
11997WAT      O36232   6.224   3.825   8.635
11997WAT     H136233   6.274   3.911   8.621
11997WAT     H236234   6.129   3.845   8.658
11998WAT      O36235   1.960   2.343   3.133
11998WAT     H136236   1.867   2.330   3.167
11998WAT     H236237   1.975   2.285   3.054
11999WAT      O36238   7.281   9.240   1.578
11999WAT     H136239   7.340   9.225   1.498
11999WAT     H236240   7.268   9.338   1.591
12000WAT      O36241   9.018   4.609   9.624
12000WAT     H136242   9.037   4.692   9.571
12000WAT     H236243   8.989   4.536   9.561
12001WAT      O36244   0.727   1.796   0.387
12001WAT     H136245   0.809   1.761   0.431
12001WAT     H236246   0.723   1.765   0.292
12002WAT      O36247   7.411   8.513   8.750
12002WAT     H136248   7.436   8.417   8.748
12002WAT     H236249   7.349   8.531   8.826
12003WAT      O36250   8.657   9.130   3.647
12003WAT     H136251   8.722   9.059   3.619
12003WAT     H236252   8.572   9.088   3.677
12004WAT      O36253   4.072   0.867   8.107
12004WAT     H136254   3.994   0.930   8.099
12004WAT     H236255   4.099   0.860   8.203
12005WAT      O36256   6.516   3.621   9.501
12005WAT     H136257   6.549   3.603   9.408
12005WAT     H236258   6.550   3.550   9.562
12006WAT      O36259   4.577   6.261   9.266
12006WAT     H136260   4.504   6.205   9.227
12006WAT     H236261   4.574   6.255   9.366
12007WAT      O36262   1.784   5.893   4.002
12007WAT     H136263   1.881   5.869   3.989
12007WAT     H236264   1.750   5.848   4.085
12008WAT      O36265   8.779   2.718   6.622
12008WAT     H136266   8.776   2.745   6.718
12008WAT     H236267   8.866   2.746   6.582
12009WAT      O36268   7.004   1.368   7.330
12009WAT     H136269   6.922   1.372   7.272
12009WAT     H236270   7.026   1.272   7.348
12010WAT      O36271   4.898   1.205   5.210
12010WAT     H136272   4.971   1.272   5.198
12010WAT     H236273   4.888   1.183   5.307
12011WAT      O36274   0.230   9.417   1.314
12011WAT     H136275   0.204   9.356   1.388
12011WAT     H236276   0.192   9.384   1.228
12012WAT      O36277   6.840   2.942   1.649
12012WAT     H136278   6.784   2.928   1.731
12012WAT     H236279   6.815   3.028   1.605
12013WAT      O36280   3.831   8.189   3.020
12013WAT     H136281   3.866   8.096   3.030
12013WAT     H236282   3.789   8.199   2.930
12014WAT      O36283   9.840   4.730   3.308
12014WAT     H136284   9.758   4.754   3.360
12014WAT     H236285   9.813   4.684   3.223
12015WAT      O36286   2.634   9.355   9.758
12015WAT     H136287   2.728   9.352   9.793
12015WAT     H236288   2.634   9.334   9.661
12016WAT      O36289   5.282   6.698   3.359
12016WAT     H136290   5.256   6.613   3.403
12016WAT     H236291   5.379   6.696   3.335
12017WAT      O36292   8.683   8.285   8.589
12017WAT     H136293   8.723   8.375   8.610
12017WAT     H236294   8.690   8.267   8.491
12018WAT      O36295   8.267   6.308   0.086
12018WAT     H136296   8.301   6.389   0.135
12018WAT     H236297   8.315   6.227   0.119
12019WAT      O36298   7.464   3.649   9.483
12019WAT     H136299   7.455   3.714   9.408
12019WAT     H236300   7.410   3.567   9.463
12020WAT      O36301   9.550   6.522   3.293
12020WAT     H136302   9.628   6.580   3.267
12020WAT     H236303   9.585   6.438   3.335
12021WAT      O36304   1.028   9.336   9.821
12021WAT     H136305   1.025   9.379   9.912
12021WAT     H236306   0.990   9.244   9.826
12022WAT      O36307   6.491   5.751   1.092
12022WAT     H136308   6.560   5.681   1.074
12022WAT     H236309   6.526   5.815   1.161
12023WAT      O36310   1.157   0.282   7.326
12023WAT     H136311   1.121   0.372   7.302
12023WAT     H236312   1.245   0.268   7.280
12024WAT      O36313   4.609   7.711   8.238
12024WAT     H136314   4.585   7.763   8.156
12024WAT     H236315   4.631   7.617   8.212
12025WAT      O36316   8.603   7.875   5.455
12025WAT     H136317   8.680   7.888   5.517
12025WAT     H236318   8.543   7.803   5.491
12026WAT      O36319   0.252   2.552   8.286
12026WAT     H136320   0.210   2.504   8.363
12026WAT     H236321   0.184   2.570   8.216
12027WAT      O36322   2.309   9.437   5.846
12027WAT     H136323   2.250   9.356   5.836
12027WAT     H236324   2.371   9.442   5.768
12028WAT      O36325   7.348   8.662   1.887
12028WAT     H136326   7.344   8.761   1.902
12028WAT     H236327   7.385   8.643   1.796
12029WAT      O36328   2.424   8.274   6.814
12029WAT     H136329   2.518   8.246   6.835
12029WAT     H236330   2.416   8.373   6.823
12030WAT      O36331   7.314   8.810   9.876
12030WAT     H136332   7.285   8.898   9.838
12030WAT     H236333   7.399   8.781   9.833
12031WAT      O36334   8.641   4.091   9.270
12031WAT     H136335   8.651   4.185   9.239
12031WAT     H236336   8.715   4.035   9.231
12032WAT      O36337   7.108   1.925   3.403
12032WAT     H136338   7.026   1.900   3.352
12032WAT     H236339   7.151   1.843   3.440
12033WAT      O36340   5.151   2.872   5.457
12033WAT     H136341   5.137   2.938   5.530
12033WAT     H236342   5.209   2.797   5.490
12034WAT      O36343   6.796   8.337   8.839
12034WAT     H136344   6.781   8.260   8.776
12034WAT     H236345   6.775   8.309   8.932
12035WAT      O36346   6.230   7.956   6.798
12035WAT     H136347   6.232   7.874   6.856
12035WAT     H236348   6.279   8.030   6.844
12036WAT      O36349   1.333   6.348   1.081
12036WAT     H136350   1.421   6.372   1.040
12036WAT     H236351   1.348   6.293   1.163
12037WAT      O36352   6.927   7.100   4.263
12037WAT     H136353   6.990   7.126   4.336
12037WAT     H236354   6.853   7.167   4.257
12038WAT      O36355   1.262   9.723   5.835
12038WAT     H136356   1.185   9.672   5.796
12038WAT     H236357   1.295   9.675   5.917
12039WAT      O36358   0.953   1.256   9.833
12039WAT     H136359   1.023   1.259   9.762
12039WAT     H236360   0.940   1.348   9.871
12040WAT      O36361   3.262   6.525   3.560
12040WAT     H136362   3.216   6.613   3.550
12040WAT     H236363   3.360   6.540   3.574
12041WAT      O36364   1.572   4.454   7.817
12041WAT     H136365   1.584   4.553   7.828
12041WAT     H236366   1.559   4.433   7.721
12042WAT      O36367   1.091   5.688   4.829
12042WAT     H136368   1.017   5.620   4.829
12042WAT     H236369   1.136   5.689   4.740
12043WAT      O36370   4.415   7.270   0.122
12043WAT     H136371   4.373   7.290   0.034
12043WAT     H236372   4.347   7.279   0.194
12044WAT      O36373   3.321   7.653   6.716
12044WAT     H136374   3.282   7.736   6.676
12044WAT     H236375   3.407   7.631   6.668
12045WAT      O36376   9.271   1.576   4.683
12045WAT     H136377   9.175   1.600   4.696
12045WAT     H236378   9.328   1.637   4.738
12046WAT      O36379   8.582   8.829   3.806
12046WAT     H136380   8.512   8.862   3.743
12046WAT     H236381   8.673   8.846   3.767
12047WAT      O36382   6.146   3.688   6.999
12047WAT     H136383   6.096   3.683   6.912
12047WAT     H236384   6.114   3.767   7.051
12048WAT      O36385   3.790   7.698   8.904
12048WAT     H136386   3.736   7.765   8.956
12048WAT     H236387   3.729   7.649   8.842
12049WAT      O36388   8.444   3.460   0.006
12049WAT     H136389   8.423   3.421   0.096
12049WAT     H236390   8.542   3.457  -0.010
12050WAT      O36391   9.700   6.832   1.822
12050WAT     H136392   9.775   6.871   1.769
12050WAT     H236393   9.626   6.899   1.831
12051WAT      O36394   9.376   5.805   3.177
12051WAT     H136395   9.411   5.823   3.085
12051WAT     H236396   9.440   5.841   3.245
12052WAT      O36397   6.174   8.268   5.858
12052WAT     H136398   6.108   8.286   5.785
12052WAT     H236399   6.138   8.197   5.919
12053WAT      O36400   0.574   2.243   7.780
12053WAT     H136401   0.482   2.210   7.758
12053WAT     H236402   0.641   2.196   7.723
12054WAT      O36403   2.434   9.601   0.892
12054WAT     H136404   2.452   9.533   0.821
12054WAT     H236405   2.472   9.569   0.979
12055WAT      O36406   2.118   7.168   2.794
12055WAT     H136407   2.168   7.083   2.773
12055WAT     H236408   2.090   7.211   2.709
12056WAT      O36409   4.572   1.340   2.492
12056WAT     H136410   4.622   1.386   2.565
12056WAT     H236411   4.474   1.355   2.504
12057WAT      O36412   2.037   6.286   9.013
12057WAT     H136413   2.034   6.367   8.954
12057WAT     H236414   1.971   6.219   8.980
12058WAT      O36415   2.549   0.758   7.727
12058WAT     H136416   2.638   0.755   7.772
12058WAT     H236417   2.497   0.675   7.749
12059WAT      O36418   7.945   2.828   6.782
12059WAT     H136419   7.977   2.770   6.856
12059WAT     H236420   7.965   2.924   6.802
12060WAT      O36421   0.576   3.016   0.213
12060WAT     H136422   0.488   2.994   0.172
12060WAT     H236423   0.562   3.072   0.295
12061WAT      O36424   1.512   2.755   5.503
12061WAT     H136425   1.553   2.844   5.520
12061WAT     H236426   1.444   2.735   5.574
12062WAT      O36427   7.070   9.296   3.289
12062WAT     H136428   7.128   9.312   3.210
12062WAT     H236429   6.974   9.300   3.262
12063WAT      O36430   8.818   2.145   3.647
12063WAT     H136431   8.829   2.139   3.548
12063WAT     H236432   8.895   2.196   3.686
12064WAT      O36433   4.505   4.268   7.336
12064WAT     H136434   4.436   4.299   7.271
12064WAT     H236435   4.493   4.316   7.423
12065WAT      O36436   4.025   4.542   3.297
12065WAT     H136437   4.097   4.478   3.267
12065WAT     H236438   4.014   4.534   3.396
12066WAT      O36439   1.343   2.964   1.232
12066WAT     H136440   1.365   2.869   1.251
12066WAT     H236441   1.427   3.019   1.231
12067WAT      O36442   5.555   3.945   6.110
12067WAT     H136443   5.552   4.042   6.087
12067WAT     H236444   5.617   3.897   6.048
12068WAT      O36445   5.238   6.422   6.517
12068WAT     H136446   5.264   6.453   6.609
12068WAT     H236447   5.138   6.419   6.510
12069WAT      O36448   6.461   9.845   4.507
12069WAT     H136449   6.492   9.864   4.414
12069WAT     H236450   6.512   9.767   4.543
12070WAT      O36451   4.905   2.436   7.732
12070WAT     H136452   4.940   2.403   7.644
12070WAT     H236453   4.884   2.358   7.791
12071WAT      O36454   2.928   3.733   3.921
12071WAT     H136455   3.007   3.774   3.876
12071WAT     H236456   2.937   3.633   3.919
12072WAT      O36457   3.360   3.158   1.744
12072WAT     H136458   3.292   3.129   1.676
12072WAT     H236459   3.338   3.116   1.832
12073WAT      O36460   9.657   3.802   8.166
12073WAT     H136461   9.689   3.868   8.235
12073WAT     H236462   9.696   3.712   8.186
12074WAT      O36463   5.319   6.153   0.467
12074WAT     H136464   5.227   6.119   0.483
12074WAT     H236465   5.382   6.075   0.459
12075WAT      O36466   7.478   7.701   1.161
12075WAT     H136467   7.431   7.622   1.201
12075WAT     H236468   7.464   7.781   1.219
12076WAT      O36469   3.314   4.694   4.184
12076WAT     H136470   3.398   4.676   4.237
12076WAT     H236471   3.337   4.700   4.087
12077WAT      O36472   5.802   3.732   1.422
12077WAT     H136473   5.722   3.674   1.441
12077WAT     H236474   5.773   3.812   1.370
12078WAT      O36475   8.465   2.893   3.755
12078WAT     H136476   8.522   2.814   3.734
12078WAT     H236477   8.388   2.864   3.812
12079WAT      O36478   0.515   0.893   1.013
12079WAT     H136479   0.533   0.796   1.032
12079WAT     H236480   0.556   0.918   0.925
12080WAT      O36481   0.081   7.877   0.355
12080WAT     H136482   0.111   7.969   0.380
12080WAT     H236483   0.102   7.813   0.429
12081WAT      O36484   2.101   0.470   7.886
12081WAT     H136485   2.033   0.438   7.953
12081WAT     H236486   2.086   0.567   7.869
12082WAT      O36487   3.937   8.941   3.278
12082WAT     H136488   3.840   8.937   3.303
12082WAT     H236489   3.993   8.930   3.360
12083WAT      O36490   1.424   9.393   4.376
12083WAT     H136491   1.510   9.351   4.404
12083WAT     H236492   1.442   9.465   4.309
12084WAT      O36493   6.780   4.270   1.891
12084WAT     H136494   6.799   4.364   1.861
12084WAT     H236495   6.683   4.262   1.915
12085WAT      O36496   9.806   4.994   1.491
12085WAT     H136497   9.807   5.010   1.393
12085WAT     H236498   9.744   4.918   1.512
12086WAT      O36499   4.514   5.076   7.438
12086WAT     H136500   4.433   5.021   7.457
12086WAT     H236501   4.587   5.017   7.405
12087WAT      O36502   3.397   9.447   0.813
12087WAT     H136503   3.344   9.362   0.814
12087WAT     H236504   3.493   9.427   0.795
12088WAT      O36505   0.312   4.324   4.389
12088WAT     H136506   0.280   4.318   4.483
12088WAT     H236507   0.355   4.413   4.374
12089WAT      O36508   1.378   0.673   5.664
12089WAT     H136509   1.459   0.730   5.657
12089WAT     H236510   1.348   0.645   5.573
12090WAT      O36511   4.420   0.417   9.453
12090WAT     H136512   4.375   0.334   9.423
12090WAT     H236513   4.361   0.466   9.518
12091WAT      O36514   9.066   2.208   8.795
12091WAT     H136515   9.102   2.135   8.736
12091WAT     H236516   8.982   2.245   8.754
12092WAT      O36517   2.069   1.551   1.872
12092WAT     H136518   1.981   1.561   1.824
12092WAT     H236519   2.052   1.535   1.969
12093WAT      O36520   3.284   0.071   2.820
12093WAT     H136521   3.326   0.091   2.908
12093WAT     H236522   3.276   0.156   2.767
12094WAT      O36523   4.267   3.473   4.346
12094WAT     H136524   4.215   3.555   4.322
12094WAT     H236525   4.361   3.499   4.370
12095WAT      O36526   5.089   9.010   8.746
12095WAT     H136527   5.153   9.033   8.673
12095WAT     H236528   5.006   8.972   8.707
12096WAT      O36529   1.588   4.884   1.235
12096WAT     H136530   1.542   4.920   1.316
12096WAT     H236531   1.598   4.785   1.244
12097WAT      O36532   7.755   9.535   1.455
12097WAT     H136533   7.714   9.542   1.364
12097WAT     H236534   7.758   9.625   1.497
12098WAT      O36535   5.646   3.330   9.474
12098WAT     H136536   5.651   3.423   9.511
12098WAT     H236537   5.597   3.271   9.538
12099WAT      O36538   2.205   2.322   1.827
12099WAT     H136539   2.168   2.269   1.903
12099WAT     H236540   2.271   2.267   1.776
12100WAT      O36541   3.239   1.247   6.775
12100WAT     H136542   3.224   1.173   6.840
12100WAT     H236543   3.333   1.279   6.781
12101WAT      O36544   8.780   3.598   0.845
12101WAT     H136545   8.734   3.626   0.929
12101WAT     H236546   8.867   3.647   0.837
12102WAT      O36547   8.226   1.054   6.342
12102WAT     H136548   8.220   0.963   6.301
12102WAT     H236549   8.271   1.047   6.431
12103WAT      O36550   8.961   9.103   0.233
12103WAT     H136551   8.989   9.142   0.146
12103WAT     H236552   8.866   9.070   0.227
12104WAT      O36553   6.841   0.754   4.171
12104WAT     H136554   6.815   0.658   4.159
12104WAT     H236555   6.928   0.770   4.124
12105WAT      O36556   6.662   1.247   6.488
12105WAT     H136557   6.758   1.219   6.494
12105WAT     H236558   6.643   1.314   6.560
12106WAT      O36559   4.643   0.169   0.905
12106WAT     H136560   4.707   0.213   0.968
12106WAT     H236561   4.692   0.144   0.821
12107WAT      O36562   3.686   4.731   9.887
12107WAT     H136563   3.645   4.764   9.972
12107WAT     H236564   3.743   4.651   9.906
12108WAT      O36565   7.895   4.676   5.632
12108WAT     H136566   7.952   4.607   5.588
12108WAT     H236567   7.853   4.637   5.714
12109WAT      O36568   5.197   5.417   4.285
12109WAT     H136569   5.189   5.513   4.309
12109WAT     H236570   5.170   5.360   4.363
12110WAT      O36571   2.286   4.814   8.267
12110WAT     H136572   2.191   4.782   8.265
12110WAT     H236573   2.291   4.897   8.322
12111WAT      O36574   5.457   0.116   0.551
12111WAT     H136575   5.430   0.205   0.589
12111WAT     H236576   5.420   0.107   0.458
12112WAT      O36577   3.796   5.226   8.916
12112WAT     H136578   3.872   5.166   8.892
12112WAT     H236579   3.764   5.273   8.833
12113WAT      O36580   0.499   4.546   8.207
12113WAT     H136581   0.514   4.526   8.303
12113WAT     H236582   0.578   4.595   8.171
12114WAT      O36583   2.529   1.570   0.658
12114WAT     H136584   2.585   1.636   0.607
12114WAT     H236585   2.516   1.488   0.603
12115WAT      O36586   0.422   1.414   1.889
12115WAT     H136587   0.334   1.383   1.924
12115WAT     H236588   0.496   1.360   1.931
12116WAT      O36589   7.950   9.347   1.488
12116WAT     H136590   7.883   9.420   1.502
12116WAT     H236591   8.009   9.370   1.410
12117WAT      O36592   8.012   4.974   9.586
12117WAT     H136593   7.931   4.937   9.631
12117WAT     H236594   8.031   4.923   9.503
12118WAT      O36595   8.468   2.362   4.207
12118WAT     H136596   8.427   2.277   4.240
12118WAT     H236597   8.454   2.434   4.274
12119WAT      O36598   0.428   3.937   9.139
12119WAT     H136599   0.420   4.030   9.176
12119WAT     H236600   0.519   3.925   9.100
12120WAT      O36601   3.714   2.999   0.869
12120WAT     H136602   3.712   3.075   0.804
12120WAT     H236603   3.759   2.920   0.826
12121WAT      O36604   5.537   9.813   6.078
12121WAT     H136605   5.457   9.824   6.137
12121WAT     H236606   5.619   9.801   6.135
12122WAT      O36607   0.872   1.243   3.161
12122WAT     H136608   0.828   1.332   3.177
12122WAT     H236609   0.823   1.172   3.211
12123WAT      O36610   9.205   4.967   7.517
12123WAT     H136611   9.294   4.937   7.484
12123WAT     H236612   9.204   5.066   7.526
12124WAT      O36613   9.748   3.874   3.564
12124WAT     H136614   9.662   3.846   3.607
12124WAT     H236615   9.822   3.867   3.631
12125WAT      O36616   7.414   8.577   2.664
12125WAT     H136617   7.332   8.621   2.701
12125WAT     H236618   7.415   8.481   2.690
12126WAT      O36619   7.127   8.464   9.440
12126WAT     H136620   7.094   8.530   9.508
12126WAT     H236621   7.226   8.472   9.431
12127WAT      O36622   7.871   2.430   3.118
12127WAT     H136623   7.924   2.378   3.186
12127WAT     H236624   7.921   2.432   3.032
12128WAT      O36625   8.930   4.720   6.017
12128WAT     H136626   8.970   4.811   6.029
12128WAT     H236627   9.000   4.657   5.984
12129WAT      O36628   5.100   2.806   2.186
12129WAT     H136629   5.175   2.778   2.126
12129WAT     H236630   5.036   2.730   2.196
12130WAT      O36631   1.237   5.958   6.188
12130WAT     H136632   1.180   6.027   6.144
12130WAT     H236633   1.309   6.004   6.241
12131WAT      O36634   7.006   1.106   2.364
12131WAT     H136635   6.928   1.047   2.384
12131WAT     H236636   6.997   1.146   2.273
12132WAT      O36637   4.719   5.323   4.658
12132WAT     H136638   4.745   5.393   4.725
12132WAT     H236639   4.694   5.239   4.706
12133WAT      O36640   7.958   2.022   5.645
12133WAT     H136641   8.036   1.999   5.703
12133WAT     H236642   7.984   2.094   5.581
12134WAT      O36643   2.221   6.771   7.420
12134WAT     H136644   2.189   6.839   7.486
12134WAT     H236645   2.308   6.801   7.381
12135WAT      O36646   5.161   4.577   5.273
12135WAT     H136647   5.235   4.643   5.283
12135WAT     H236648   5.183   4.514   5.198
12136WAT      O36649   2.070   4.621   6.941
12136WAT     H136650   2.056   4.572   6.855
12136WAT     H236651   2.082   4.719   6.922
12137WAT      O36652   8.760   9.380   3.381
12137WAT     H136653   8.695   9.379   3.456
12137WAT     H236654   8.740   9.305   3.318
12138WAT      O36655   6.591   0.008   8.177
12138WAT     H136656   6.597   0.020   8.276
12138WAT     H236657   6.503  -0.034   8.153
12139WAT      O36658   0.003   0.581   7.004
12139WAT     H136659  -0.054   0.500   6.990
12139WAT     H236660   0.098   0.560   6.983
12140WAT      O36661   4.419   6.877   8.239
12140WAT     H136662   4.347   6.932   8.196
12140WAT     H236663   4.490   6.856   8.172
12141WAT      O36664   1.182   7.302   4.155
12141WAT     H136665   1.147   7.354   4.233
12141WAT     H236666   1.222   7.216   4.187
12142WAT      O36667   7.198   0.817   5.200
12142WAT     H136668   7.120   0.763   5.167
12142WAT     H236669   7.283   0.768   5.179
12143WAT      O36670   7.062   4.536   0.761
12143WAT     H136671   7.028   4.469   0.696
12143WAT     H236672   7.162   4.540   0.756
12144WAT      O36673   4.529   8.646   4.233
12144WAT     H136674   4.473   8.563   4.235
12144WAT     H236675   4.469   8.726   4.233
12145WAT      O36676   6.009   9.169   2.002
12145WAT     H136677   6.048   9.242   2.058
12145WAT     H236678   5.952   9.110   2.059
12146WAT      O36679   1.079   6.648   3.749
12146WAT     H136680   1.040   6.720   3.807
12146WAT     H236681   1.063   6.669   3.653
12147WAT      O36682   1.463   6.820   1.220
12147WAT     H136683   1.446   6.737   1.273
12147WAT     H236684   1.375   6.861   1.194
12148WAT      O36685   1.326   9.431   2.752
12148WAT     H136686   1.376   9.383   2.680
12148WAT     H236687   1.284   9.513   2.713
12149WAT      O36688   4.047   5.468   7.618
12149WAT     H136689   4.123   5.533   7.622
12149WAT     H236690   3.961   5.515   7.636
12150WAT      O36691   4.631   7.671   0.847
12150WAT     H136692   4.644   7.579   0.811
12150WAT     H236693   4.599   7.731   0.774
12151WAT      O36694   9.820   8.806   0.914
12151WAT     H136695   9.876   8.724   0.898
12151WAT     H236696   9.869   8.869   0.974
12152WAT      O36697   0.924   6.561   4.541
12152WAT     H136698   0.968   6.472   4.547
12152WAT     H236699   0.920   6.604   4.631
12153WAT      O36700   7.611   9.429   2.590
12153WAT     H136701   7.708   9.411   2.607
12153WAT     H236702   7.581   9.507   2.645
12154WAT      O36703   5.639   9.652   2.589
12154WAT     H136704   5.623   9.734   2.535
12154WAT     H236705   5.718   9.666   2.649
12155WAT      O36706   4.575   1.824   2.703
12155WAT     H136707   4.610   1.883   2.630
12155WAT     H236708   4.491   1.779   2.672
12156WAT      O36709   2.451   3.673   4.644
12156WAT     H136710   2.361   3.716   4.649
12156WAT     H236711   2.508   3.723   4.579
12157WAT      O36712   3.592   2.266   6.953
12157WAT     H136713   3.506   2.316   6.952
12157WAT     H236714   3.665   2.323   6.916
12158WAT      O36715   2.397   3.599   6.956
12158WAT     H136716   2.308   3.582   7.000
12158WAT     H236717   2.415   3.698   6.956
12159WAT      O36718   4.935   0.057   7.573
12159WAT     H136719   4.984   0.135   7.612
12159WAT     H236720   4.885   0.087   7.492
12160WAT      O36721   8.367   2.133   5.374
12160WAT     H136722   8.461   2.133   5.339
12160WAT     H236723   8.314   2.062   5.328
12161WAT      O36724   8.383   4.154   0.309
12161WAT     H136725   8.294   4.138   0.353
12161WAT     H236726   8.448   4.084   0.339
12162WAT      O36727   4.973   2.491   1.232
12162WAT     H136728   5.051   2.534   1.186
12162WAT     H236729   4.896   2.487   1.169
12163WAT      O36730   4.452   4.906   5.982
12163WAT     H136731   4.428   4.891   5.886
12163WAT     H236732   4.548   4.880   5.996
12164WAT      O36733   7.787   6.647   6.506
12164WAT     H136734   7.864   6.605   6.460
12164WAT     H236735   7.713   6.579   6.516
12165WAT      O36736   3.283   5.643   3.010
12165WAT     H136737   3.219   5.720   3.018
12165WAT     H236738   3.231   5.559   2.998
12166WAT      O36739   7.467   5.383   6.586
12166WAT     H136740   7.409   5.355   6.662
12166WAT     H236741   7.535   5.313   6.567
12167WAT      O36742   3.783   9.156   4.767
12167WAT     H136743   3.750   9.225   4.703
12167WAT     H236744   3.771   9.065   4.727
12168WAT      O36745   8.249   4.890   8.361
12168WAT     H136746   8.305   4.818   8.401
12168WAT     H236747   8.259   4.974   8.416
12169WAT      O36748   1.450   0.634   1.943
12169WAT     H136749   1.517   0.561   1.929
12169WAT     H236750   1.358   0.594   1.951
12170WAT      O36751   4.343   4.194   6.530
12170WAT     H136752   4.248   4.181   6.501
12170WAT     H236753   4.394   4.241   6.458
12171WAT      O36754   2.836   0.299   0.322
12171WAT     H136755   2.823   0.272   0.417
12171WAT     H236756   2.892   0.382   0.318
12172WAT      O36757   6.216   2.721   0.291
12172WAT     H136758   6.311   2.752   0.294
12172WAT     H236759   6.155   2.799   0.305
12173WAT      O36760   2.676   4.985   1.537
12173WAT     H136761   2.695   4.992   1.439
12173WAT     H236762   2.638   4.894   1.557
12174WAT      O36763   7.234   7.978   5.460
12174WAT     H136764   7.242   7.906   5.529
12174WAT     H236765   7.216   7.935   5.371
12175WAT      O36766   0.283   2.936   8.286
12175WAT     H136767   0.333   2.924   8.201
12175WAT     H236768   0.188   2.905   8.274
12176WAT      O36769   3.103   6.589   4.785
12176WAT     H136770   3.021   6.565   4.836
12176WAT     H236771   3.176   6.613   4.849
12177WAT      O36772   7.254   1.679   0.309
12177WAT     H136773   7.192   1.604   0.287
12177WAT     H236774   7.311   1.653   0.387
12178WAT      O36775   9.388   2.509   6.667
12178WAT     H136776   9.317   2.527   6.599
12178WAT     H236777   9.416   2.596   6.709
12179WAT      O36778   7.872   4.267   1.309
12179WAT     H136779   7.951   4.299   1.258
12179WAT     H236780   7.800   4.237   1.246
12180WAT      O36781   0.771   7.849   6.814
12180WAT     H136782   0.851   7.790   6.816
12180WAT     H236783   0.775   7.913   6.891
12181WAT      O36784   1.587   5.506   8.863
12181WAT     H136785   1.655   5.471   8.798
12181WAT     H236786   1.567   5.436   8.931
12182WAT      O36787   7.252   0.829   7.993
12182WAT     H136788   7.200   0.744   7.995
12182WAT     H236789   7.263   0.864   8.086
12183WAT      O36790   0.407   4.583   4.353
12183WAT     H136791   0.461   4.644   4.412
12183WAT     H236792   0.400   4.622   4.262
12184WAT      O36793   6.431   3.373   3.686
12184WAT     H136794   6.391   3.428   3.612
12184WAT     H236795   6.357   3.328   3.737
12185WAT      O36796   6.239   0.198   9.872
12185WAT     H136797   6.203   0.274   9.817
12185WAT     H236798   6.170   0.169   9.938
12186WAT      O36799   9.613   5.534   1.520
12186WAT     H136800   9.618   5.453   1.577
12186WAT     H236801   9.666   5.521   1.436
12187WAT      O36802   5.106   0.987   3.612
12187WAT     H136803   5.041   0.946   3.676
12187WAT     H236804   5.121   1.083   3.637
12188WAT      O36805   7.772   0.488   9.409
12188WAT     H136806   7.779   0.477   9.310
12188WAT     H236807   7.684   0.532   9.430
12189WAT      O36808  -0.002   7.805   5.606
12189WAT     H136809   0.036   7.742   5.537
12189WAT     H236810   0.067   7.875   5.627
12190WAT      O36811   4.135   3.377   7.940
12190WAT     H136812   4.085   3.393   7.855
12190WAT     H236813   4.130   3.458   7.998
12191WAT      O36814   6.393   1.092   5.695
12191WAT     H136815   6.312   1.036   5.679
12191WAT     H236816   6.472   1.049   5.651
12192WAT      O36817   8.749   6.628   4.185
12192WAT     H136818   8.751   6.605   4.088
12192WAT     H236819   8.797   6.714   4.200
12193WAT      O36820   2.392   1.554   7.779
12193WAT     H136821   2.486   1.552   7.814
12193WAT     H236822   2.329   1.524   7.851
12194WAT      O36823   8.782   1.821   7.012
12194WAT     H136824   8.788   1.919   6.993
12194WAT     H236825   8.747   1.774   6.931
12195WAT      O36826   2.227   2.485   8.306
12195WAT     H136827   2.327   2.491   8.299
12195WAT     H236828   2.203   2.446   8.395
12196WAT      O36829   0.848   6.133   7.207
12196WAT     H136830   0.866   6.187   7.125
12196WAT     H236831   0.758   6.157   7.244
12197WAT      O36832   7.657   5.685   7.715
12197WAT     H136833   7.754   5.662   7.719
12197WAT     H236834   7.630   5.699   7.620
12198WAT      O36835   7.934   6.359   1.782
12198WAT     H136836   7.928   6.447   1.829
12198WAT     H236837   8.019   6.355   1.730
12199WAT      O36838   6.027   5.148   5.007
12199WAT     H136839   5.946   5.152   5.066
12199WAT     H236840   6.050   5.053   4.988
12200WAT      O36841   0.455   6.091   6.583
12200WAT     H136842   0.423   6.049   6.499
12200WAT     H236843   0.385   6.082   6.654
12201WAT      O36844   5.505   9.442   5.499
12201WAT     H136845   5.481   9.536   5.523
12201WAT     H236846   5.537   9.438   5.405
12202WAT      O36847   2.446   0.025   5.770
12202WAT     H136848   2.373  -0.028   5.813
12202WAT     H236849   2.442   0.120   5.802
12203WAT      O36850   8.814   2.907   6.123
12203WAT     H136851   8.760   2.833   6.083
12203WAT     H236852   8.907   2.905   6.085
12204WAT      O36853   1.433   2.985   4.456
12204WAT     H136854   1.363   3.052   4.431
12204WAT     H236855   1.390   2.908   4.503
12205WAT      O36856   9.088   1.158   7.734
12205WAT     H136857   9.036   1.089   7.684
12205WAT     H236858   9.025   1.224   7.775
12206WAT      O36859   6.304   2.864   9.840
12206WAT     H136860   6.266   2.930   9.904
12206WAT     H236861   6.379   2.907   9.789
12207WAT      O36862   0.082   2.589   4.237
12207WAT     H136863   0.080   2.591   4.137
12207WAT     H236864   0.097   2.495   4.268
12208WAT      O36865   5.620   3.446   8.192
12208WAT     H136866   5.596   3.387   8.115
12208WAT     H236867   5.708   3.489   8.174
12209WAT      O36868   0.871   5.395   7.764
12209WAT     H136869   0.839   5.318   7.818
12209WAT     H236870   0.796   5.428   7.705
12210WAT      O36871   4.388   2.460   4.621
12210WAT     H136872   4.350   2.506   4.541
12210WAT     H236873   4.318   2.399   4.661
12211WAT      O36874   7.148   2.076   2.585
12211WAT     H136875   7.052   2.092   2.563
12211WAT     H236876   7.189   2.161   2.620
12212WAT      O36877   3.047   8.425   4.830
12212WAT     H136878   3.048   8.392   4.925
12212WAT     H236879   2.984   8.503   4.823
12213WAT      O36880   8.160   5.325   5.121
12213WAT     H136881   8.255   5.328   5.090
12213WAT     H236882   8.158   5.303   5.219
12214WAT      O36883   0.992   0.568   4.519
12214WAT     H136884   0.920   0.548   4.586
12214WAT     H236885   1.056   0.492   4.515
12215WAT      O36886   3.672   8.689   8.112
12215WAT     H136887   3.682   8.608   8.170
12215WAT     H236888   3.628   8.762   8.165
12216WAT      O36889   7.267   2.176   4.961
12216WAT     H136890   7.282   2.272   4.939
12216WAT     H236891   7.248   2.167   5.059
12217WAT      O36892   2.552   5.142   4.422
12217WAT     H136893   2.534   5.111   4.515
12217WAT     H236894   2.553   5.064   4.360
12218WAT      O36895   8.150   4.138   6.234
12218WAT     H136896   8.159   4.225   6.283
12218WAT     H236897   8.241   4.100   6.216
12219WAT      O36898   9.627   8.672   9.760
12219WAT     H136899   9.677   8.702   9.841
12219WAT     H236900   9.642   8.574   9.747
12220WAT      O36901   7.001   3.965   3.197
12220WAT     H136902   7.026   4.046   3.144
12220WAT     H236903   6.955   3.899   3.137
12221WAT      O36904   7.046   3.122   0.049
12221WAT     H136905   6.974   3.062   0.016
12221WAT     H236906   7.126   3.114  -0.011
12222WAT      O36907   6.980   0.817   7.772
12222WAT     H136908   6.923   0.826   7.854
12222WAT     H236909   7.044   0.741   7.784
12223WAT      O36910   2.479   3.600   5.695
12223WAT     H136911   2.424   3.516   5.706
12223WAT     H236912   2.433   3.661   5.630
12224WAT      O36913   6.224   3.793   2.193
12224WAT     H136914   6.197   3.699   2.214
12224WAT     H236915   6.158   3.856   2.234
12225WAT      O36916   7.810   8.710   7.437
12225WAT     H136917   7.812   8.719   7.537
12225WAT     H236918   7.890   8.659   7.406
12226WAT      O36919   6.208   8.861   7.724
12226WAT     H136920   6.257   8.812   7.796
12226WAT     H236921   6.270   8.883   7.649
12227WAT      O36922   1.044   3.846   3.813
12227WAT     H136923   1.068   3.752   3.793
12227WAT     H236924   0.967   3.848   3.877
12228WAT      O36925   8.050   2.396   0.123
12228WAT     H136926   8.115   2.438   0.060
12228WAT     H236927   8.012   2.467   0.183
12229WAT      O36928   4.285   8.289   2.652
12229WAT     H136929   4.190   8.260   2.638
12229WAT     H236930   4.288   8.389   2.654
12230WAT      O36931   7.154   1.776   3.165
12230WAT     H136932   7.178   1.764   3.261
12230WAT     H236933   7.056   1.762   3.153
12231WAT      O36934   7.114   7.881   3.119
12231WAT     H136935   7.159   7.795   3.142
12231WAT     H236936   7.182   7.955   3.121
12232WAT      O36937   5.730   8.072   2.300
12232WAT     H136938   5.772   8.049   2.212
12232WAT     H236939   5.782   8.145   2.344
12233WAT      O36940   9.326   0.712   5.517
12233WAT     H136941   9.384   0.634   5.542
12233WAT     H236942   9.347   0.790   5.576
12234WAT      O36943   8.652   4.987   2.531
12234WAT     H136944   8.655   4.947   2.440
12234WAT     H236945   8.558   4.989   2.564
12235WAT      O36946   6.155   1.834   3.084
12235WAT     H136947   6.255   1.841   3.077
12235WAT     H236948   6.126   1.747   3.043
12236WAT      O36949   5.480   9.493   9.841
12236WAT     H136950   5.447   9.576   9.797
12236WAT     H236951   5.473   9.503   9.941
12237WAT      O36952   9.713   2.301   5.540
12237WAT     H136953   9.729   2.378   5.478
12237WAT     H236954   9.625   2.259   5.518
12238WAT      O36955   1.645   1.749   5.650
12238WAT     H136956   1.608   1.840   5.668
12238WAT     H236957   1.572   1.690   5.614
12239WAT      O36958   0.512   1.494   3.017
12239WAT     H136959   0.519   1.453   2.926
12239WAT     H236960   0.447   1.442   3.072
12240WAT      O36961   6.921   9.194   6.263
12240WAT     H136962   7.002   9.139   6.242
12240WAT     H236963   6.878   9.223   6.177
12241WAT      O36964   3.553   7.888   1.131
12241WAT     H136965   3.564   7.921   1.224
12241WAT     H236966   3.462   7.912   1.097
12242WAT      O36967   5.006   9.446   1.607
12242WAT     H136968   5.047   9.518   1.662
12242WAT     H236969   5.070   9.416   1.537
12243WAT      O36970   4.394   5.191   6.764
12243WAT     H136971   4.440   5.117   6.715
12243WAT     H236972   4.324   5.232   6.705
12244WAT      O36973   5.763   9.502   1.554
12244WAT     H136974   5.857   9.535   1.543
12244WAT     H236975   5.758   9.406   1.528
12245WAT      O36976   5.435   5.349   2.904
12245WAT     H136977   5.476   5.301   2.827
12245WAT     H236978   5.348   5.391   2.876
12246WAT      O36979   4.216   9.761   3.764
12246WAT     H136980   4.195   9.745   3.860
12246WAT     H236981   4.169   9.693   3.708
12247WAT      O36982   8.156   0.538   9.027
12247WAT     H136983   8.128   0.601   9.099
12247WAT     H236984   8.252   0.513   9.041
12248WAT      O36985   8.694   5.276   6.375
12248WAT     H136986   8.601   5.294   6.342
12248WAT     H236987   8.702   5.179   6.398
12249WAT      O36988   6.616   7.931   4.957
12249WAT     H136989   6.593   7.931   5.054
12249WAT     H236990   6.708   7.893   4.945
12250WAT      O36991   7.617   9.653   1.746
12250WAT     H136992   7.621   9.718   1.822
12250WAT     H236993   7.618   9.559   1.782
12251WAT      O36994   3.669   9.221   9.192
12251WAT     H136995   3.747   9.168   9.223
12251WAT     H236996   3.590   9.161   9.182
12252WAT      O36997   8.008   1.439   1.972
12252WAT     H136998   8.042   1.424   1.879
12252WAT     H236999   7.914   1.405   1.978
12253WAT      O37000   8.914   5.580   0.129
12253WAT     H137001   8.930   5.614   0.221
12253WAT     H237002   8.838   5.515   0.130
12254WAT      O37003   7.891   2.772   2.807
12254WAT     H137004   7.934   2.755   2.896
12254WAT     H237005   7.845   2.861   2.808
12255WAT      O37006   4.246   4.584   4.471
12255WAT     H137007   4.258   4.485   4.472
12255WAT     H237008   4.175   4.610   4.537
12256WAT      O37009   2.691   2.032   8.411
12256WAT     H137010   2.783   2.031   8.451
12256WAT     H237011   2.631   2.087   8.468
12257WAT      O37012   7.181   5.939   5.401
12257WAT     H137013   7.099   5.916   5.349
12257WAT     H237014   7.217   6.028   5.370
12258WAT      O37015   4.707   4.788   2.375
12258WAT     H137016   4.662   4.699   2.380
12258WAT     H237017   4.760   4.794   2.291
12259WAT      O37018   9.006   0.878   0.629
12259WAT     H137019   9.083   0.925   0.672
12259WAT     H237020   8.997   0.786   0.668
12260WAT      O37021   3.612   7.488   9.277
12260WAT     H137022   3.595   7.448   9.187
12260WAT     H237023   3.709   7.481   9.299
12261WAT      O37024   2.729   0.320   2.683
12261WAT     H137025   2.825   0.295   2.700
12261WAT     H237026   2.724   0.416   2.655
12262WAT      O37027   8.175   8.690   0.793
12262WAT     H137028   8.233   8.659   0.869
12262WAT     H237029   8.170   8.618   0.723
12263WAT      O37030   7.097   7.042   1.783
12263WAT     H137031   7.130   7.035   1.877
12263WAT     H237032   7.105   7.137   1.752
12264WAT      O37033   4.986   2.391   7.249
12264WAT     H137034   4.920   2.341   7.193
12264WAT     H237035   5.073   2.400   7.199
12265WAT      O37036   5.294   5.430   1.680
12265WAT     H137037   5.212   5.374   1.689
12265WAT     H237038   5.298   5.468   1.587
12266WAT      O37039   1.856   1.663   9.322
12266WAT     H137040   1.805   1.670   9.236
12266WAT     H237041   1.829   1.739   9.382
12267WAT      O37042   3.176   2.032   1.861
12267WAT     H137043   3.199   1.935   1.865
12267WAT     H237044   3.244   2.080   1.805
12268WAT      O37045   5.920   5.684   5.652
12268WAT     H137046   5.958   5.594   5.672
12268WAT     H237047   5.824   5.687   5.681
12269WAT      O37048   9.046   3.422   5.173
12269WAT     H137049   9.005   3.343   5.128
12269WAT     H237050   9.142   3.402   5.193
12270WAT      O37051   9.044   2.893   2.248
12270WAT     H137052   9.068   2.930   2.337
12270WAT     H237053   9.033   2.794   2.254
12271WAT      O37054   5.650   0.056   7.312
12271WAT     H137055   5.600   0.040   7.397
12271WAT     H237056   5.697  -0.028   7.285
12272WAT      O37057   7.025   9.065   0.155
12272WAT     H137058   6.936   9.107   0.173
12272WAT     H237059   7.054   9.085   0.062
12273WAT      O37060   8.375   1.669   5.208
12273WAT     H137061   8.338   1.761   5.226
12273WAT     H237062   8.420   1.668   5.119
12274WAT      O37063   8.216   6.823   9.044
12274WAT     H137064   8.166   6.736   9.047
12274WAT     H237065   8.274   6.825   8.963
12275WAT      O37066   8.801   9.596   5.693
12275WAT     H137067   8.873   9.581   5.761
12275WAT     H237068   8.803   9.691   5.662
12276WAT      O37069   3.784   2.487   8.766
12276WAT     H137070   3.708   2.433   8.801
12276WAT     H237071   3.808   2.559   8.831
12277WAT      O37072   2.179   1.174   5.748
12277WAT     H137073   2.262   1.123   5.772
12277WAT     H237074   2.142   1.138   5.662
12278WAT      O37075   0.023   8.138   9.431
12278WAT     H137076   0.045   8.137   9.333
12278WAT     H237077   0.093   8.190   9.480
12279WAT      O37078   9.495   1.152   1.254
12279WAT     H137079   9.472   1.122   1.161
12279WAT     H237080   9.595   1.155   1.264
12280WAT      O37081   5.526   3.036   2.955
12280WAT     H137082   5.467   2.959   2.933
12280WAT     H237083   5.544   3.089   2.873
12281WAT      O37084   7.841   7.701   8.555
12281WAT     H137085   7.822   7.798   8.539
12281WAT     H237086   7.791   7.670   8.636
12282WAT      O37087   4.515   2.010   3.547
12282WAT     H137088   4.488   2.088   3.491
12282WAT     H237089   4.434   1.959   3.574
12283WAT      O37090   7.772   1.650   2.855
12283WAT     H137091   7.733   1.703   2.930
12283WAT     H237092   7.698   1.613   2.798
12284WAT      O37093   4.504   7.752   1.372
12284WAT     H137094   4.413   7.737   1.410
12284WAT     H237095   4.495   7.782   1.276
12285WAT      O37096   0.871   2.381   4.039
12285WAT     H137097   0.879   2.405   3.942
12285WAT     H237098   0.824   2.455   4.087
12286WAT      O37099   3.103   6.036   0.150
12286WAT     H137100   3.120   6.119   0.203
12286WAT     H237101   3.132   5.956   0.203
12287WAT      O37102   0.154   1.857   8.150
12287WAT     H137103   0.095   1.924   8.196
12287WAT     H237104   0.128   1.851   8.054
12288WAT      O37105   8.963   0.277   1.435
12288WAT     H137106   8.892   0.206   1.432
12288WAT     H237107   8.992   0.298   1.341
12289WAT      O37108   1.857   2.066   8.282
12289WAT     H137109   1.855   2.118   8.368
12289WAT     H237110   1.766   2.031   8.262
12290WAT      O37111   7.545   7.280   4.447
12290WAT     H137112   7.556   7.312   4.541
12290WAT     H237113   7.631   7.289   4.398
12291WAT      O37114   1.421   6.479   8.553
12291WAT     H137115   1.511   6.463   8.514
12291WAT     H237116   1.392   6.573   8.534
12292WAT      O37117   8.201   9.252   0.819
12292WAT     H137118   8.147   9.328   0.854
12292WAT     H237119   8.178   9.236   0.723
12293WAT      O37120   6.526   2.063   6.928
12293WAT     H137121   6.573   2.147   6.957
12293WAT     H237122   6.444   2.050   6.983
12294WAT      O37123   6.623   6.620   2.669
12294WAT     H137124   6.614   6.535   2.721
12294WAT     H237125   6.718   6.631   2.639
12295WAT      O37126   5.466   1.886   5.303
12295WAT     H137127   5.375   1.847   5.321
12295WAT     H237128   5.460   1.986   5.307
12296WAT      O37129   6.546   4.574   2.639
12296WAT     H137130   6.574   4.604   2.548
12296WAT     H237131   6.604   4.617   2.708
12297WAT      O37132   3.934   7.384   9.594
12297WAT     H137133   3.915   7.380   9.496
12297WAT     H237134   3.868   7.326   9.643
12298WAT      O37135   7.074   1.929   5.560
12298WAT     H137136   7.111   1.972   5.477
12298WAT     H237137   7.019   1.995   5.610
12299WAT      O37138   6.208   3.270   1.628
12299WAT     H137139   6.177   3.244   1.537
12299WAT     H237140   6.146   3.233   1.697
12300WAT      O37141   3.338   6.902   2.450
12300WAT     H137142   3.348   6.879   2.547
12300WAT     H237143   3.346   7.001   2.438
12301WAT      O37144   1.734   4.723   9.418
12301WAT     H137145   1.699   4.634   9.448
12301WAT     H237146   1.804   4.710   9.348
12302WAT      O37147   7.922   5.772   1.713
12302WAT     H137148   8.017   5.774   1.683
12302WAT     H237149   7.893   5.863   1.743
12303WAT      O37150   8.790   6.473   5.852
12303WAT     H137151   8.862   6.507   5.792
12303WAT     H237152   8.701   6.491   5.810
12304WAT      O37153   7.690   9.818   1.963
12304WAT     H137154   7.722   9.913   1.962
12304WAT     H237155   7.654   9.796   2.054
12305WAT      O37156   0.868   3.057   3.195
12305WAT     H137157   0.902   3.044   3.288
12305WAT     H237158   0.778   3.099   3.198
12306WAT      O37159   9.148   2.518   0.047
12306WAT     H137160   9.103   2.539   0.133
12306WAT     H237161   9.082   2.526  -0.028
12307WAT      O37162   6.639   8.590   1.570
12307WAT     H137163   6.611   8.557   1.479
12307WAT     H237164   6.565   8.645   1.609
12308WAT      O37165   4.445   4.111   3.848
12308WAT     H137166   4.408   4.202   3.833
12308WAT     H237167   4.449   4.092   3.946
12309WAT      O37168   6.341   2.864   7.513
12309WAT     H137169   6.382   2.896   7.428
12309WAT     H237170   6.403   2.800   7.558
12310WAT      O37171   1.435   9.324   9.246
12310WAT     H137172   1.457   9.270   9.165
12310WAT     H237173   1.336   9.334   9.253
12311WAT      O37174   6.851   7.275   2.383
12311WAT     H137175   6.915   7.284   2.459
12311WAT     H237176   6.757   7.289   2.416
12312WAT      O37177   1.518   6.572   3.787
12312WAT     H137178   1.443   6.577   3.853
12312WAT     H237179   1.601   6.541   3.834
12313WAT      O37180   8.373   1.087   8.674
12313WAT     H137181   8.394   1.028   8.596
12313WAT     H237182   8.297   1.148   8.650
12314WAT      O37183   3.303   8.232   1.934
12314WAT     H137184   3.204   8.242   1.941
12314WAT     H237185   3.347   8.318   1.958
12315WAT      O37186   9.803   6.474   1.568
12315WAT     H137187   9.750   6.391   1.549
12315WAT     H237188   9.851   6.463   1.656
12316WAT      O37189   4.306   6.657   0.917
12316WAT     H137190   4.268   6.598   0.845
12316WAT     H237191   4.403   6.672   0.900
12317WAT      O37192   7.696   8.585   3.742
12317WAT     H137193   7.616   8.528   3.724
12317WAT     H237194   7.748   8.597   3.657
12318WAT      O37195   0.556   4.650   5.652
12318WAT     H137196   0.467   4.671   5.693
12318WAT     H237197   0.553   4.559   5.611
12319WAT      O37198   9.044   0.412   3.227
12319WAT     H137199   9.018   0.348   3.300
12319WAT     H237200   9.005   0.502   3.246
12320WAT      O37201   7.968   1.583   3.164
12320WAT     H137202   7.907   1.511   3.131
12320WAT     H237203   8.052   1.583   3.109
12321WAT      O37204   7.986   2.889   8.988
12321WAT     H137205   7.916   2.900   8.918
12321WAT     H237206   8.042   2.809   8.966
12322WAT      O37207   7.734   5.948   1.110
12322WAT     H137208   7.649   5.983   1.070
12322WAT     H237209   7.749   5.992   1.199
12323WAT      O37210   9.212   7.380   7.373
12323WAT     H137211   9.306   7.413   7.376
12323WAT     H237212   9.151   7.456   7.350
12324WAT      O37213   8.240   5.182   9.247
12324WAT     H137214   8.275   5.232   9.327
12324WAT     H237215   8.307   5.187   9.173
12325WAT      O37216   1.224   4.327   8.024
12325WAT     H137217   1.151   4.296   8.085
12325WAT     H237218   1.201   4.417   7.988
12326WAT      O37219   4.714   6.522   2.062
12326WAT     H137220   4.799   6.548   2.015
12326WAT     H237221   4.723   6.429   2.097
12327WAT      O37222   5.689   3.922   1.273
12327WAT     H137223   5.620   3.907   1.202
12327WAT     H237224   5.671   4.010   1.318
12328WAT      O37225   0.709   3.151   5.196
12328WAT     H137226   0.708   3.145   5.296
12328WAT     H237227   0.796   3.117   5.161
12329WAT      O37228   4.910   0.043   3.691
12329WAT     H137229   4.983  -0.018   3.724
12329WAT     H237230   4.837  -0.012   3.650
12330WAT      O37231   2.863   4.265   9.793
12330WAT     H137232   2.768   4.256   9.764
12330WAT     H237233   2.923   4.223   9.724
12331WAT      O37234   5.816   4.200   2.421
12331WAT     H137235   5.907   4.239   2.414
12331WAT     H237236   5.787   4.201   2.517
12332WAT      O37237   2.242   6.425   2.240
12332WAT     H137238   2.294   6.503   2.204
12332WAT     H237239   2.192   6.454   2.322
12333WAT      O37240   0.477   2.448   9.079
12333WAT     H137241   0.418   2.429   9.157
12333WAT     H237242   0.572   2.452   9.109
12334WAT      O37243   8.739   0.292   8.502
12334WAT     H137244   8.789   0.367   8.545
12334WAT     H237245   8.654   0.276   8.551
12335WAT      O37246   0.291   7.951   4.213
12335WAT     H137247   0.289   7.899   4.128
12335WAT     H237248   0.229   7.909   4.280
12336WAT      O37249   3.214   3.604   0.554
12336WAT     H137250   3.146   3.534   0.577
12336WAT     H237251   3.286   3.604   0.623
12337WAT      O37252   7.323   5.408   7.668
12337WAT     H137253   7.299   5.345   7.742
12337WAT     H237254   7.285   5.499   7.689
12338WAT      O37255   9.576   1.544   9.257
12338WAT     H137256   9.550   1.628   9.209
12338WAT     H237257   9.549   1.551   9.353
12339WAT      O37258   1.303   0.109   8.533
12339WAT     H137259   1.204   0.115   8.548
12339WAT     H237260   1.349   0.178   8.589
12340WAT      O37261   0.364   8.875   5.168
12340WAT     H137262   0.287   8.812   5.154
12340WAT     H237263   0.348   8.929   5.251
12341WAT      O37264   1.219   0.505   2.035
12341WAT     H137265   1.230   0.568   2.112
12341WAT     H237266   1.137   0.530   1.984
12342WAT      O37267   1.269   0.085   7.631
12342WAT     H137268   1.287   0.184   7.628
12342WAT     H237269   1.354   0.035   7.615
12343WAT      O37270   3.244   9.676   5.998
12343WAT     H137271   3.260   9.654   5.902
12343WAT     H237272   3.151   9.649   6.024
12344WAT      O37273   6.264   3.441   0.346
12344WAT     H137274   6.181   3.476   0.303
12344WAT     H237275   6.291   3.503   0.421
12345WAT      O37276   8.358   8.456   5.932
12345WAT     H137277   8.294   8.519   5.889
12345WAT     H237278   8.432   8.508   5.975
12346WAT      O37279   0.591   0.449   2.416
12346WAT     H137280   0.492   0.445   2.421
12346WAT     H237281   0.618   0.490   2.329
12347WAT      O37282   1.005   4.616   4.459
12347WAT     H137283   1.066   4.598   4.536
12347WAT     H237284   0.941   4.689   4.483
12348WAT      O37285   0.559   9.277   2.798
12348WAT     H137286   0.473   9.328   2.802
12348WAT     H237287   0.620   9.307   2.872
12349WAT      O37288   4.408   7.596   0.991
12349WAT     H137289   4.329   7.569   0.935
12349WAT     H237290   4.488   7.610   0.932
12350WAT      O37291   3.979   8.659   2.494
12350WAT     H137292   3.966   8.719   2.573
12350WAT     H237293   3.905   8.593   2.490
12351WAT      O37294   2.178   3.021   0.328
12351WAT     H137295   2.093   3.006   0.380
12351WAT     H237296   2.256   3.017   0.390
12352WAT      O37297   7.296   3.587   6.557
12352WAT     H137298   7.210   3.564   6.511
12352WAT     H237299   7.339   3.665   6.510
12353WAT      O37300   7.282   0.372   2.268
12353WAT     H137301   7.184   0.390   2.263
12353WAT     H237302   7.332   0.449   2.229
12354WAT      O37303   5.077   3.827   2.384
12354WAT     H137304   5.040   3.749   2.435
12354WAT     H237305   5.124   3.889   2.446
12355WAT      O37306   2.533   0.465   7.498
12355WAT     H137307   2.595   0.515   7.436
12355WAT     H237308   2.587   0.423   7.571
12356WAT      O37309   3.895   9.829   4.288
12356WAT     H137310   3.796   9.836   4.276
12356WAT     H237311   3.917   9.838   4.385
12357WAT      O37312   6.983   1.099   3.938
12357WAT     H137313   6.884   1.089   3.932
12357WAT     H237314   7.012   1.090   4.034
12358WAT      O37315   5.574   0.005   3.657
12358WAT     H137316   5.559   0.032   3.752
12358WAT     H237317   5.617   0.080   3.607
12359WAT      O37318   6.655   9.459   7.196
12359WAT     H137319   6.746   9.448   7.156
12359WAT     H237320   6.660   9.517   7.277
12360WAT      O37321   4.869   2.848   5.712
12360WAT     H137322   4.829   2.926   5.665
12360WAT     H237323   4.969   2.852   5.705
12361WAT      O37324   3.835   6.418   7.157
12361WAT     H137325   3.738   6.435   7.143
12361WAT     H237326   3.882   6.504   7.176
12362WAT      O37327   9.082   2.909   1.532
12362WAT     H137328   9.054   3.003   1.511
12362WAT     H237329   9.014   2.845   1.495
12363WAT      O37330   4.734   0.554   1.320
12363WAT     H137331   4.734   0.646   1.359
12363WAT     H237332   4.768   0.489   1.388
12364WAT      O37333   2.460   2.190   5.982
12364WAT     H137334   2.510   2.246   5.917
12364WAT     H237335   2.365   2.219   5.985
12365WAT      O37336   7.437   8.955   9.479
12365WAT     H137337   7.523   8.918   9.444
12365WAT     H237338   7.393   9.009   9.407
12366WAT      O37339   5.476   8.563   7.281
12366WAT     H137340   5.569   8.548   7.247
12366WAT     H237341   5.411   8.516   7.221
12367WAT      O37342   4.261   6.322   3.863
12367WAT     H137343   4.192   6.350   3.929
12367WAT     H237344   4.327   6.396   3.849
12368WAT      O37345   3.195   3.725   1.430
12368WAT     H137346   3.140   3.646   1.402
12368WAT     H237347   3.277   3.694   1.478
12369WAT      O37348   6.011   0.455   9.399
12369WAT     H137349   5.959   0.520   9.343
12369WAT     H237350   5.998   0.362   9.364
12370WAT      O37351   5.091   3.397   6.220
12370WAT     H137352   5.126   3.353   6.303
12370WAT     H237353   5.098   3.333   6.144
12371WAT      O37354   8.048   5.858   7.022
12371WAT     H137355   8.088   5.878   6.933
12371WAT     H237356   8.033   5.759   7.031
12372WAT      O37357   9.481   9.667   0.058
12372WAT     H137358   9.568   9.698   0.021
12372WAT     H237359   9.419   9.745   0.067
12373WAT      O37360   7.889   2.942   5.975
12373WAT     H137361   7.892   2.863   6.036
12373WAT     H237362   7.981   2.962   5.943
12374WAT      O37363   0.696   8.137   5.517
12374WAT     H137364   0.597   8.138   5.521
12374WAT     H237365   0.728   8.046   5.489
12375WAT      O37366   9.605   4.498   8.057
12375WAT     H137367   9.620   4.413   8.106
12375WAT     H237368   9.521   4.491   8.003
12376WAT      O37369   5.015   9.355   3.533
12376WAT     H137370   4.941   9.422   3.536
12376WAT     H237371   5.078   9.378   3.459
12377WAT      O37372   5.024   2.019   1.699
12377WAT     H137373   4.976   2.002   1.786
12377WAT     H237374   4.962   2.000   1.623
12378WAT      O37375   1.641   4.845   4.997
12378WAT     H137376   1.551   4.818   4.964
12378WAT     H237377   1.710   4.784   4.957
12379WAT      O37378   3.610   0.641   2.477
12379WAT     H137379   3.531   0.634   2.538
12379WAT     H237380   3.694   0.640   2.532
12380WAT      O37381   4.546   4.249   5.037
12380WAT     H137382   4.616   4.193   5.081
12380WAT     H237383   4.457   4.231   5.079
12381WAT      O37384   4.418   4.028   7.909
12381WAT     H137385   4.357   4.051   7.985
12381WAT     H237386   4.507   4.000   7.945
12382WAT      O37387   4.290   5.067   6.112
12382WAT     H137388   4.208   5.069   6.054
12382WAT     H237389   4.359   5.008   6.070
12383WAT      O37390   0.654   0.289   9.598
12383WAT     H137391   0.591   0.356   9.558
12383WAT     H237392   0.662   0.305   9.696
12384WAT      O37393   5.419   3.650   2.996
12384WAT     H137394   5.480   3.728   2.981
12384WAT     H237395   5.330   3.670   2.955
12385WAT      O37396   4.474   6.760   9.896
12385WAT     H137397   4.477   6.846   9.844
12385WAT     H237398   4.558   6.708   9.879
12386WAT      O37399   4.168   8.255   1.806
12386WAT     H137400   4.131   8.214   1.890
12386WAT     H237401   4.212   8.184   1.751
12387WAT      O37402   5.153   1.744   9.279
12387WAT     H137403   5.139   1.657   9.231
12387WAT     H237404   5.160   1.818   9.212
12388WAT      O37405   7.471   9.246   9.780
12388WAT     H137406   7.457   9.240   9.879
12388WAT     H237407   7.445   9.337   9.748
12389WAT      O37408   3.295   5.263   0.994
12389WAT     H137409   3.228   5.326   1.032
12389WAT     H237410   3.361   5.236   1.065
12390WAT      O37411   5.867   6.055   5.497
12390WAT     H137412   5.815   6.043   5.582
12390WAT     H237413   5.811   6.106   5.431
12391WAT      O37414   0.930   8.755   0.151
12391WAT     H137415   0.908   8.666   0.189
12391WAT     H237416   1.028   8.762   0.135
12392WAT      O37417   4.889   6.150   5.571
12392WAT     H137418   4.927   6.242   5.576
12392WAT     H237419   4.883   6.111   5.663
12393WAT      O37420   7.329   3.442   9.885
12393WAT     H137421   7.392   3.365   9.899
12393WAT     H237422   7.376   3.528   9.906
12394WAT      O37423   3.907   5.439   1.596
12394WAT     H137424   3.977   5.419   1.527
12394WAT     H237425   3.885   5.537   1.593
12395WAT      O37426   8.054   6.230   9.426
12395WAT     H137427   8.102   6.317   9.432
12395WAT     H237428   8.026   6.201   9.517
12396WAT      O37429   3.721   5.905   8.374
12396WAT     H137430   3.645   5.842   8.358
12396WAT     H237431   3.805   5.868   8.335
12397WAT      O37432   9.734   8.475   5.795
12397WAT     H137433   9.675   8.529   5.855
12397WAT     H237434   9.782   8.536   5.731
12398WAT      O37435   3.470   7.174   1.654
12398WAT     H137436   3.461   7.237   1.577
12398WAT     H237437   3.515   7.090   1.623
12399WAT      O37438   7.674   9.575   0.100
12399WAT     H137439   7.674   9.634   0.180
12399WAT     H237440   7.595   9.596   0.043
12400WAT      O37441   1.354   8.094   9.557
12400WAT     H137442   1.360   8.042   9.472
12400WAT     H237443   1.377   8.034   9.634
12401WAT      O37444   1.323   7.541   0.594
12401WAT     H137445   1.231   7.505   0.581
12401WAT     H237446   1.332   7.628   0.546
12402WAT      O37447   8.630   4.114   8.466
12402WAT     H137448   8.647   4.078   8.374
12402WAT     H237449   8.685   4.196   8.480
12403WAT      O37450   8.280   9.159   6.222
12403WAT     H137451   8.218   9.107   6.281
12403WAT     H237452   8.346   9.208   6.278
12404WAT      O37453   8.938   4.418   3.845
12404WAT     H137454   9.017   4.398   3.904
12404WAT     H237455   8.889   4.497   3.882
12405WAT      O37456   7.258   0.163   2.564
12405WAT     H137457   7.196   0.240   2.576
12405WAT     H237458   7.233   0.112   2.482
12406WAT      O37459   5.681   7.803   0.581
12406WAT     H137460   5.688   7.720   0.525
12406WAT     H237461   5.772   7.841   0.595
12407WAT      O37462   7.934   9.353   2.833
12407WAT     H137463   7.870   9.303   2.775
12407WAT     H237464   8.025   9.315   2.824
12408WAT      O37465   8.853   0.893   9.033
12408WAT     H137466   8.832   0.950   9.113
12408WAT     H237467   8.940   0.922   8.993
12409WAT      O37468   1.338   3.175   9.771
12409WAT     H137469   1.287   3.116   9.833
12409WAT     H237470   1.369   3.257   9.820
12410WAT      O37471   3.000   6.307   6.967
12410WAT     H137472   2.926   6.335   6.906
12410WAT     H237473   3.010   6.372   7.042
12411WAT      O37474   4.516   4.906   2.631
12411WAT     H137475   4.556   4.819   2.660
12411WAT     H237476   4.586   4.962   2.587
12412WAT      O37477   3.610   6.311   8.768
12412WAT     H137478   3.569   6.288   8.680
12412WAT     H237479   3.625   6.409   8.773
12413WAT      O37480   9.045   5.322   5.176
12413WAT     H137481   9.036   5.416   5.209
12413WAT     H237482   9.137   5.289   5.195
12414WAT      O37483   7.781   4.387   6.145
12414WAT     H137484   7.684   4.389   6.121
12414WAT     H237485   7.822   4.301   6.114
12415WAT      O37486   6.513   0.727   6.716
12415WAT     H137487   6.563   0.682   6.790
12415WAT     H237488   6.418   0.740   6.742
12416WAT      O37489   7.339   7.327   3.160
12416WAT     H137490   7.277   7.333   3.239
12416WAT     H237491   7.291   7.284   3.084
12417WAT      O37492   4.559   0.309   7.896
12417WAT     H137493   4.551   0.228   7.954
12417WAT     H237494   4.597   0.385   7.950
12418WAT      O37495   3.536   7.581   8.392
12418WAT     H137496   3.516   7.549   8.300
12418WAT     H237497   3.612   7.528   8.430
12419WAT      O37498   1.651   7.376   7.744
12419WAT     H137499   1.703   7.298   7.778
12419WAT     H237500   1.711   7.456   7.736
12420WAT      O37501   2.492   2.348   7.836
12420WAT     H137502   2.401   2.355   7.877
12420WAT     H237503   2.487   2.293   7.753
12421WAT      O37504   7.078   2.708   4.470
12421WAT     H137505   7.154   2.643   4.469
12421WAT     H237506   7.046   2.720   4.564
12422WAT      O37507   4.752   7.457   5.675
12422WAT     H137508   4.714   7.544   5.705
12422WAT     H237509   4.824   7.473   5.608
12423WAT      O37510   5.586   6.724   8.449
12423WAT     H137511   5.631   6.702   8.363
12423WAT     H237512   5.592   6.822   8.466
12424WAT      O37513   4.830   5.975   9.205
12424WAT     H137514   4.848   5.883   9.169
12424WAT     H237515   4.748   5.972   9.261
12425WAT      O37516   3.674   8.206   3.612
12425WAT     H137517   3.698   8.141   3.540
12425WAT     H237518   3.593   8.175   3.661
12426WAT      O37519   3.415   9.204   3.942
12426WAT     H137520   3.509   9.201   3.975
12426WAT     H237521   3.355   9.235   4.016
12427WAT      O37522   5.444   8.316   0.107
12427WAT     H137523   5.422   8.395   0.049
12427WAT     H237524   5.463   8.348   0.200
12428WAT      O37525   8.575   8.599   0.884
12428WAT     H137526   8.562   8.510   0.839
12428WAT     H237527   8.631   8.587   0.966
12429WAT      O37528   8.485   9.104   6.025
12429WAT     H137529   8.415   9.134   6.090
12429WAT     H237530   8.442   9.048   5.954
12430WAT      O37531   0.013   2.074   9.644
12430WAT     H137532  -0.008   2.166   9.677
12430WAT     H237533   0.072   2.027   9.710
12431WAT      O37534   7.385   3.216   2.972
12431WAT     H137535   7.477   3.237   3.004
12431WAT     H237536   7.324   3.202   3.050
12432WAT      O37537   0.627   0.087   5.896
12432WAT     H137538   0.549   0.135   5.936
12432WAT     H237539   0.712   0.126   5.932
12433WAT      O37540   8.625   9.330   2.473
12433WAT     H137541   8.641   9.322   2.375
12433WAT     H237542   8.711   9.314   2.522
12434WAT      O37543   9.029   1.444   1.637
12434WAT     H137544   9.122   1.479   1.626
12434WAT     H237545   9.029   1.345   1.626
12435WAT      O37546   3.726   3.585   8.634
12435WAT     H137547   3.635   3.555   8.665
12435WAT     H237548   3.780   3.613   8.714
12436WAT      O37549   8.650   2.465   8.138
12436WAT     H137550   8.650   2.393   8.068
12436WAT     H237551   8.663   2.554   8.094
12437WAT      O37552   0.765   8.034   4.452
12437WAT     H137553   0.757   8.099   4.377
12437WAT     H237554   0.824   7.958   4.424
12438WAT      O37555   0.496   3.674   4.239
12438WAT     H137556   0.403   3.706   4.259
12438WAT     H237557   0.561   3.747   4.259
12439WAT      O37558   4.081   3.073   7.000
12439WAT     H137559   4.003   3.017   6.975
12439WAT     H237560   4.117   3.043   7.089
12440WAT      O37561   7.581   0.788   7.375
12440WAT     H137562   7.497   0.811   7.423
12440WAT     H237563   7.584   0.690   7.358
12441WAT      O37564   4.134   6.922   8.480
12441WAT     H137565   4.151   6.840   8.535
12441WAT     H237566   4.218   6.977   8.475
12442WAT      O37567   5.268   2.430   6.073
12442WAT     H137568   5.206   2.368   6.026
12442WAT     H237569   5.236   2.446   6.166
12443WAT      O37570   8.673   1.561   8.021
12443WAT     H137571   8.617   1.581   8.102
12443WAT     H237572   8.696   1.647   7.975
12444WAT      O37573   7.130   0.107   2.151
12444WAT     H137574   7.099   0.199   2.174
12444WAT     H237575   7.188   0.072   2.225
12445WAT      O37576   9.223   0.295   7.755
12445WAT     H137577   9.162   0.216   7.754
12445WAT     H237578   9.173   0.374   7.791
12446WAT      O37579   3.482   9.120   4.447
12446WAT     H137580   3.384   9.118   4.464
12446WAT     H237581   3.514   9.029   4.423
12447WAT      O37582   0.272   2.340   6.923
12447WAT     H137583   0.225   2.428   6.916
12447WAT     H237584   0.283   2.301   6.832
12448WAT      O37585   7.186   7.734   8.505
12448WAT     H137586   7.204   7.830   8.485
12448WAT     H237587   7.206   7.715   8.601
12449WAT      O37588   1.129   6.800   1.666
12449WAT     H137589   1.101   6.869   1.733
12449WAT     H237590   1.109   6.833   1.574
12450WAT      O37591   8.800   0.403   6.088
12450WAT     H137592   8.818   0.453   6.004
12450WAT     H237593   8.867   0.428   6.158
12451WAT      O37594   4.091   5.994   6.129
12451WAT     H137595   4.040   5.968   6.046
12451WAT     H237596   4.035   5.975   6.210
12452WAT      O37597   8.564   8.008   7.933
12452WAT     H137598   8.491   8.040   7.994
12452WAT     H237599   8.566   7.908   7.934
12453WAT      O37600   1.227   0.217   1.786
12453WAT     H137601   1.299   0.243   1.850
12453WAT     H237602   1.176   0.139   1.823
12454WAT      O37603   6.438   5.171   4.465
12454WAT     H137604   6.342   5.165   4.492
12454WAT     H237605   6.495   5.188   4.546
12455WAT      O37606   6.266   9.719   7.218
12455WAT     H137607   6.322   9.749   7.140
12455WAT     H237608   6.185   9.671   7.185
12456WAT      O37609   4.272   6.050   0.384
12456WAT     H137610   4.255   5.958   0.420
12456WAT     H237611   4.316   6.106   0.455
12457WAT      O37612   9.491   6.710   5.818
12457WAT     H137613   9.523   6.768   5.744
12457WAT     H237614   9.540   6.623   5.817
12458WAT      O37615   1.496   1.696   9.705
12458WAT     H137616   1.437   1.696   9.624
12458WAT     H237617   1.517   1.601   9.731
12459WAT      O37618   6.998   5.439   5.812
12459WAT     H137619   7.052   5.481   5.886
12459WAT     H237620   6.932   5.375   5.851
12460WAT      O37621   1.489   2.077   7.098
12460WAT     H137622   1.508   2.094   7.002
12460WAT     H237623   1.434   2.152   7.136
12461WAT      O37624   5.310   4.670   1.552
12461WAT     H137625   5.405   4.701   1.551
12461WAT     H237626   5.260   4.713   1.478
12462WAT      O37627   5.089   8.256   6.373
12462WAT     H137628   5.121   8.244   6.467
12462WAT     H237629   4.990   8.245   6.370
12463WAT      O37630   8.708   5.548   0.901
12463WAT     H137631   8.732   5.467   0.848
12463WAT     H237632   8.707   5.525   0.999
12464WAT      O37633   9.053   4.317   6.561
12464WAT     H137634   8.994   4.237   6.566
12464WAT     H237635   9.069   4.354   6.653
12465WAT      O37636   4.484   7.292   1.442
12465WAT     H137637   4.426   7.367   1.474
12465WAT     H237638   4.426   7.223   1.397
12466WAT      O37639   5.094   9.730   9.814
12466WAT     H137640   5.074   9.658   9.880
12466WAT     H237641   5.024   9.730   9.742
12467WAT      O37642   1.095   2.998   1.674
12467WAT     H137643   0.996   2.981   1.667
12467WAT     H237644   1.135   2.931   1.737
12468WAT      O37645   2.863   6.571   9.198
12468WAT     H137646   2.956   6.600   9.174
12468WAT     H237647   2.840   6.488   9.148
12469WAT      O37648   3.016   7.035   4.597
12469WAT     H137649   3.093   7.087   4.561
12469WAT     H237650   3.024   6.940   4.569
12470WAT      O37651   4.185   2.086   2.325
12470WAT     H137652   4.188   2.040   2.414
12470WAT     H237653   4.265   2.059   2.271
12471WAT      O37654   3.854   0.867   3.706
12471WAT     H137655   3.871   0.773   3.733
12471WAT     H237656   3.790   0.910   3.770
12472WAT      O37657   5.062   0.337   5.115
12472WAT     H137658   5.013   0.420   5.140
12472WAT     H237659   4.998   0.261   5.109
12473WAT      O37660   5.988   4.184   6.462
12473WAT     H137661   5.975   4.115   6.391
12473WAT     H237662   6.012   4.271   6.420
12474WAT      O37663   8.203   4.993   4.492
12474WAT     H137664   8.240   5.075   4.449
12474WAT     H237665   8.216   4.999   4.591
12475WAT      O37666   5.589   3.151   4.748
12475WAT     H137667   5.589   3.250   4.763
12475WAT     H237668   5.605   3.104   4.835
12476WAT      O37669   4.748   2.930   0.338
12476WAT     H137670   4.668   2.902   0.392
12476WAT     H237671   4.745   2.885   0.249
12477WAT      O37672   2.436   4.315   8.058
12477WAT     H137673   2.499   4.253   8.106
12477WAT     H237674   2.376   4.358   8.125
12478WAT      O37675   9.134   6.112   3.908
12478WAT     H137676   9.045   6.118   3.953
12478WAT     H237677   9.202   6.077   3.973
12479WAT      O37678   5.202   4.306   0.166
12479WAT     H137679   5.300   4.321   0.181
12479WAT     H237680   5.180   4.329   0.071
12480WAT      O37681   1.313   0.140   5.379
12480WAT     H137682   1.387   0.078   5.353
12480WAT     H237683   1.225   0.097   5.361
12481WAT      O37684   1.946   3.440   4.506
12481WAT     H137685   2.013   3.365   4.502
12481WAT     H237686   1.971   3.510   4.439
12482WAT      O37687   0.220   8.729   5.980
12482WAT     H137688   0.295   8.764   6.037
12482WAT     H237689   0.165   8.805   5.946
12483WAT      O37690   7.342   4.317   2.971
12483WAT     H137691   7.385   4.337   3.059
12483WAT     H237692   7.397   4.250   2.921
12484WAT      O37693   7.715   0.222   9.620
12484WAT     H137694   7.769   0.194   9.541
12484WAT     H237695   7.623   0.247   9.589
12485WAT      O37696   0.102   8.504   6.597
12485WAT     H137697   0.143   8.508   6.506
12485WAT     H237698   0.047   8.586   6.612
12486WAT      O37699   1.056   3.230   6.830
12486WAT     H137700   1.061   3.133   6.852
12486WAT     H237701   0.960   3.260   6.835
12487WAT      O37702   8.787   0.311   4.583
12487WAT     H137703   8.827   0.229   4.623
12487WAT     H237704   8.825   0.392   4.627
12488WAT      O37705   5.253   5.001   6.927
12488WAT     H137706   5.340   4.968   6.964
12488WAT     H237707   5.263   5.020   6.830
12489WAT      O37708   6.148   3.952   2.677
12489WAT     H137709   6.228   3.928   2.732
12489WAT     H237710   6.162   4.042   2.636
12490WAT      O37711   0.405   1.679   2.544
12490WAT     H137712   0.441   1.747   2.480
12490WAT     H237713   0.392   1.592   2.497
12491WAT      O37714   4.097   3.690   4.270
12491WAT     H137715   4.065   3.745   4.347
12491WAT     H237716   4.040   3.708   4.190
12492WAT      O37717   2.444   0.827   8.966
12492WAT     H137718   2.362   0.827   9.022
12492WAT     H237719   2.424   0.787   8.876
12493WAT      O37720   5.006   4.847   2.483
12493WAT     H137721   4.969   4.915   2.547
12493WAT     H237722   5.105   4.843   2.493
12494WAT      O37723   5.612   2.763   8.118
12494WAT     H137724   5.512   2.765   8.114
12494WAT     H237725   5.645   2.840   8.172
12495WAT      O37726   8.842   1.286   0.150
12495WAT     H137727   8.745   1.290   0.175
12495WAT     H237728   8.852   1.243   0.060
12496WAT      O37729   8.357   2.872   8.469
12496WAT     H137730   8.334   2.938   8.540
12496WAT     H237731   8.453   2.846   8.478
12497WAT      O37732   6.620   4.057   7.672
12497WAT     H137733   6.536   4.014   7.639
12497WAT     H237734   6.630   4.148   7.632
12498WAT      O37735   9.075   1.314   1.310
12498WAT     H137736   9.107   1.266   1.228
12498WAT     H237737   9.153   1.339   1.367
12499WAT      O37738   6.869   4.709   0.603
12499WAT     H137739   6.886   4.704   0.505
12499WAT     H237740   6.945   4.668   0.652
12500WAT      O37741   7.769   0.673   2.244
12500WAT     H137742   7.674   0.688   2.272
12500WAT     H237743   7.830   0.726   2.304
12501WAT      O37744   1.697   4.209   9.565
12501WAT     H137745   1.690   4.194   9.466
12501WAT     H237746   1.723   4.304   9.582
12502WAT      O37747   5.193   8.043   6.226
12502WAT     H137748   5.152   8.050   6.135
12502WAT     H237749   5.165   8.122   6.281
12503WAT      O37750   5.277   0.915   3.195
12503WAT     H137751   5.199   0.883   3.250
12503WAT     H237752   5.350   0.946   3.255
12504WAT      O37753   4.876   1.161   4.920
12504WAT     H137754   4.882   1.138   5.018
12504WAT     H237755   4.847   1.080   4.869
12505WAT      O37756   5.264   6.194   1.949
12505WAT     H137757   5.325   6.247   1.891
12505WAT     H237758   5.312   6.114   1.984
12506WAT      O37759   4.934   7.325   7.707
12506WAT     H137760   4.927   7.225   7.708
12506WAT     H237761   5.025   7.353   7.739
12507WAT      O37762   5.213   8.750   3.948
12507WAT     H137763   5.177   8.837   3.917
12507WAT     H237764   5.216   8.685   3.872
12508WAT      O37765   7.684   7.043   0.388
12508WAT     H137766   7.761   6.980   0.402
12508WAT     H237767   7.626   7.043   0.470
12509WAT      O37768   3.630   0.005   0.674
12509WAT     H137769   3.709  -0.052   0.654
12509WAT     H237770   3.604   0.056   0.593
12510WAT      O37771   9.372   5.682   1.556
12510WAT     H137772   9.418   5.764   1.588
12510WAT     H237773   9.441   5.617   1.522
12511WAT      O37774   8.688   3.886   0.815
12511WAT     H137775   8.685   3.950   0.892
12511WAT     H237776   8.753   3.812   0.834
12512WAT      O37777   9.693   9.411   8.405
12512WAT     H137778   9.767   9.360   8.448
12512WAT     H237779   9.707   9.509   8.419
12513WAT      O37780   4.647   6.231   4.910
12513WAT     H137781   4.663   6.308   4.848
12513WAT     H237782   4.613   6.265   4.998
12514WAT      O37783   7.677   1.577   2.348
12514WAT     H137784   7.638   1.655   2.397
12514WAT     H237785   7.618   1.554   2.271
12515WAT      O37786   8.120   3.588   8.184
12515WAT     H137787   8.075   3.677   8.177
12515WAT     H237788   8.050   3.516   8.195
12516WAT      O37789   6.773   3.880   6.004
12516WAT     H137790   6.725   3.793   6.017
12516WAT     H237791   6.710   3.947   5.966
12517WAT      O37792   7.467   4.595   1.365
12517WAT     H137793   7.389   4.533   1.373
12517WAT     H237794   7.511   4.606   1.454
12518WAT      O37795   8.576   7.210   7.383
12518WAT     H137796   8.515   7.131   7.390
12518WAT     H237797   8.629   7.203   7.299
12519WAT      O37798   4.516   0.317   3.998
12519WAT     H137799   4.533   0.303   3.901
12519WAT     H237800   4.517   0.229   4.045
12520WAT      O37801   9.611   5.447   3.767
12520WAT     H137802   9.634   5.353   3.791
12520WAT     H237803   9.692   5.493   3.731
12521WAT      O37804   0.208   7.153   8.281
12521WAT     H137805   0.245   7.061   8.271
12521WAT     H237806   0.216   7.182   8.377
12522WAT      O37807   8.873   5.756   9.092
12522WAT     H137808   8.812   5.797   9.161
12522WAT     H237809   8.867   5.657   9.097
12523WAT      O37810   4.323   7.545   6.184
12523WAT     H137811   4.414   7.509   6.162
12523WAT     H237812   4.289   7.598   6.107
12524WAT      O37813   7.375   6.307   1.584
12524WAT     H137814   7.400   6.328   1.489
12524WAT     H237815   7.457   6.306   1.641
12525WAT      O37816   7.677   2.619   9.091
12525WAT     H137817   7.670   2.682   9.169
12525WAT     H237818   7.683   2.673   9.007
12526WAT      O37819   5.779   3.672   6.633
12526WAT     H137820   5.772   3.744   6.563
12526WAT     H237821   5.719   3.596   6.607
12527WAT      O37822   7.493   8.883   5.571
12527WAT     H137823   7.420   8.845   5.515
12527WAT     H237824   7.469   8.872   5.668
12528WAT      O37825   2.065   9.695   4.772
12528WAT     H137826   2.044   9.666   4.678
12528WAT     H237827   2.161   9.677   4.792
12529WAT      O37828   0.097   6.123   5.472
12529WAT     H137829   0.071   6.060   5.398
12529WAT     H237830   0.015   6.165   5.511
12530WAT      O37831   1.649   2.145   2.646
12530WAT     H137832   1.626   2.067   2.588
12530WAT     H237833   1.609   2.132   2.737
12531WAT      O37834   7.568   3.821   2.274
12531WAT     H137835   7.474   3.811   2.242
12531WAT     H237836   7.574   3.793   2.370
12532WAT      O37837   2.454   7.373   7.556
12532WAT     H137838   2.418   7.467   7.554
12532WAT     H237839   2.479   7.348   7.649
12533WAT      O37840   9.723   4.797   8.685
12533WAT     H137841   9.629   4.829   8.677
12533WAT     H237842   9.741   4.729   8.614
12534WAT      O37843   7.868   3.108   4.946
12534WAT     H137844   7.941   3.078   5.008
12534WAT     H237845   7.856   3.039   4.874
12535WAT      O37846   3.027   3.155   8.358
12535WAT     H137847   3.005   3.246   8.391
12535WAT     H237848   2.996   3.145   8.264
12536WAT      O37849   7.020   9.362   2.413
12536WAT     H137850   7.021   9.365   2.313
12536WAT     H237851   7.066   9.443   2.449
12537WAT      O37852   9.127   0.389   4.524
12537WAT     H137853   9.192   0.462   4.501
12537WAT     H237854   9.051   0.428   4.576
12538WAT      O37855   4.396   0.630   3.111
12538WAT     H137856   4.486   0.586   3.105
12538WAT     H237857   4.326   0.561   3.128
12539WAT      O37858   4.522   3.169   0.283
12539WAT     H137859   4.471   3.230   0.223
12539WAT     H237860   4.461   3.097   0.316
12540WAT      O37861   9.044   1.619   9.452
12540WAT     H137862   9.047   1.696   9.389
12540WAT     H237863   9.132   1.572   9.453
12541WAT      O37864   1.926   3.098   5.161
12541WAT     H137865   1.898   3.034   5.231
12541WAT     H237866   2.025   3.089   5.145
12542WAT      O37867   7.707   0.025   0.720
12542WAT     H137868   7.750   0.011   0.631
12542WAT     H237869   7.616   0.066   0.707
12543WAT      O37870   6.711   9.236   6.909
12543WAT     H137871   6.758   9.315   6.948
12543WAT     H237872   6.660   9.189   6.981
12544WAT      O37873   8.280   2.638   3.038
12544WAT     H137874   8.302   2.627   3.135
12544WAT     H237875   8.186   2.674   3.030
12545WAT      O37876   6.036   9.499   5.593
12545WAT     H137877   5.959   9.511   5.531
12545WAT     H237878   6.103   9.572   5.577
12546WAT      O37879   6.846   3.612   7.689
12546WAT     H137880   6.877   3.706   7.675
12546WAT     H237881   6.843   3.593   7.787
12547WAT      O37882   1.816   9.795   8.772
12547WAT     H137883   1.719   9.771   8.782
12547WAT     H237884   1.837   9.873   8.831
12548WAT      O37885   0.840   6.116   4.892
12548WAT     H137886   0.935   6.092   4.910
12548WAT     H237887   0.782   6.076   4.962
12549WAT      O37888   4.093   8.387   8.880
12549WAT     H137889   4.036   8.395   8.963
12549WAT     H237890   4.039   8.345   8.807
12550WAT      O37891   8.466   0.972   8.382
12550WAT     H137892   8.459   0.886   8.331
12550WAT     H237893   8.485   1.047   8.319
12551WAT      O37894   2.057   0.603   3.264
12551WAT     H137895   2.005   0.560   3.337
12551WAT     H237896   2.016   0.579   3.175
12552WAT      O37897   8.420   1.688   6.489
12552WAT     H137898   8.495   1.740   6.449
12552WAT     H237899   8.451   1.643   6.572
12553WAT      O37900   6.719   4.031   8.276
12553WAT     H137901   6.747   3.983   8.193
12553WAT     H237902   6.797   4.084   8.311
12554WAT      O37903   6.205   4.844   8.538
12554WAT     H137904   6.289   4.854   8.592
12554WAT     H237905   6.127   4.835   8.600
12555WAT      O37906   6.607   4.479   7.750
12555WAT     H137907   6.602   4.578   7.740
12555WAT     H237908   6.661   4.455   7.831
12556WAT      O37909   0.500   0.420   3.494
12556WAT     H137910   0.499   0.426   3.593
12556WAT     H237911   0.588   0.452   3.459
12557WAT      O37912   9.129   6.546   9.056
12557WAT     H137913   9.096   6.464   9.103
12557WAT     H237914   9.223   6.531   9.024
12558WAT      O37915   6.633   1.846   7.388
12558WAT     H137916   6.621   1.941   7.357
12558WAT     H237917   6.573   1.786   7.335
12559WAT      O37918   3.062   3.458   3.131
12559WAT     H137919   3.159   3.444   3.112
12559WAT     H237920   3.046   3.552   3.159
12560WAT      O37921   7.750   2.443   0.776
12560WAT     H137922   7.746   2.343   0.777
12560WAT     H237923   7.663   2.481   0.808
12561WAT      O37924   1.774   9.407   5.142
12561WAT     H137925   1.806   9.410   5.237
12561WAT     H237926   1.786   9.497   5.100
12562WAT      O37927   0.958   0.949   1.369
12562WAT     H137928   0.862   0.938   1.395
12562WAT     H237929   1.007   0.864   1.387
12563WAT      O37930   5.767   3.445   4.572
12563WAT     H137931   5.725   3.372   4.520
12563WAT     H237932   5.703   3.522   4.580
12564WAT      O37933   4.493   5.169   1.041
12564WAT     H137934   4.584   5.127   1.042
12564WAT     H237935   4.480   5.223   1.124
12565WAT      O37936   1.836   6.857   5.670
12565WAT     H137937   1.936   6.859   5.683
12565WAT     H237938   1.807   6.940   5.622
12566WAT      O37939   2.020   2.522   5.132
12566WAT     H137940   2.018   2.424   5.113
12566WAT     H237941   2.081   2.567   5.067
12567WAT      O37942   0.059   8.103   3.846
12567WAT     H137943   0.051   8.195   3.808
12567WAT     H237944   0.051   8.035   3.773
12568WAT      O37945   8.337   6.306   4.644
12568WAT     H137946   8.414   6.309   4.581
12568WAT     H237947   8.370   6.291   4.737
12569WAT      O37948   6.535   7.332   3.223
12569WAT     H137949   6.603   7.403   3.240
12569WAT     H237950   6.443   7.372   3.225
12570WAT      O37951   8.988   6.987   2.062
12570WAT     H137952   9.036   6.912   2.017
12570WAT     H237953   8.996   7.070   2.007
12571WAT      O37954   9.412   2.859   3.215
12571WAT     H137955   9.500   2.896   3.184
12571WAT     H237956   9.425   2.805   3.298
12572WAT      O37957   1.891   2.187   9.847
12572WAT     H137958   1.956   2.128   9.894
12572WAT     H237959   1.811   2.133   9.819
12573WAT      O37960   1.250   5.623   0.080
12573WAT     H137961   1.180   5.607   0.149
12573WAT     H237962   1.217   5.593  -0.009
12574WAT      O37963   4.118   0.315   9.228
12574WAT     H137964   4.036   0.325   9.285
12574WAT     H237965   4.091   0.297   9.133
12575WAT      O37966   1.515   3.235   7.714
12575WAT     H137967   1.492   3.138   7.721
12575WAT     H237968   1.537   3.271   7.805
12576WAT      O37969   5.454   0.724   5.349
12576WAT     H137970   5.457   0.636   5.396
12576WAT     H237971   5.417   0.794   5.411
12577WAT      O37972   8.121   4.703   3.555
12577WAT     H137973   8.171   4.616   3.561
12577WAT     H237974   8.026   4.689   3.583
12578WAT      O37975   1.394   4.795   3.892
12578WAT     H137976   1.400   4.895   3.881
12578WAT     H237977   1.414   4.751   3.804
12579WAT      O37978   1.083   1.981   2.913
12579WAT     H137979   1.012   1.942   2.855
12579WAT     H237980   1.125   2.059   2.867
12580WAT      O37981   7.948   5.272   0.940
12580WAT     H137982   7.983   5.358   0.976
12580WAT     H237983   7.849   5.279   0.928
12581WAT      O37984   1.314   4.805   1.831
12581WAT     H137985   1.369   4.863   1.890
12581WAT     H237986   1.285   4.723   1.881
12582WAT      O37987   2.982   1.511   0.380
12582WAT     H137988   3.004   1.500   0.477
12582WAT     H237989   2.895   1.466   0.360
12583WAT      O37990   9.641   2.310   3.900
12583WAT     H137991   9.656   2.408   3.897
12583WAT     H237992   9.603   2.284   3.988
12584WAT      O37993   7.078   5.431   4.565
12584WAT     H137994   7.152   5.364   4.558
12584WAT     H237995   7.013   5.402   4.636
12585WAT      O37996   8.682   3.387   9.360
12585WAT     H137997   8.766   3.350   9.319
12585WAT     H237998   8.618   3.412   9.288
12586WAT      O37999   2.080   3.542   6.076
12586WAT     H138000   2.138   3.513   6.153
12586WAT     H238001   1.987   3.558   6.110
12587WAT      O38002   7.306   1.946   2.393
12587WAT     H138003   7.389   2.002   2.402
12587WAT     H238004   7.239   1.974   2.461
12588WAT      O38005   0.155   6.224   1.757
12588WAT     H138006   0.126   6.133   1.784
12588WAT     H238007   0.102   6.292   1.808
12589WAT      O38008   4.563   9.447   1.228
12589WAT     H138009   4.647   9.502   1.225
12589WAT     H238010   4.490   9.500   1.270
12590WAT      O38011   5.625   5.866   6.137
12590WAT     H138012   5.722   5.883   6.117
12590WAT     H238013   5.568   5.917   6.073
12591WAT      O38014   7.534   3.893   3.356
12591WAT     H138015   7.481   3.959   3.303
12591WAT     H238016   7.603   3.851   3.297
12592WAT      O38017   2.759   4.028   8.801
12592WAT     H138018   2.817   3.948   8.818
12592WAT     H238019   2.752   4.043   8.702
12593WAT      O38020   7.492   8.868   6.846
12593WAT     H138021   7.463   8.839   6.937
12593WAT     H238022   7.487   8.791   6.783
12594WAT      O38023   0.741   1.836   3.624
12594WAT     H138024   0.793   1.786   3.694
12594WAT     H238025   0.661   1.782   3.598
12595WAT      O38026   1.279   2.082   1.937
12595WAT     H138027   1.220   2.017   1.985
12595WAT     H238028   1.319   2.039   1.857
12596WAT      O38029   8.271   4.241   2.739
12596WAT     H138030   8.362   4.271   2.712
12596WAT     H238031   8.228   4.313   2.795
12597WAT      O38032   9.875   5.920   0.621
12597WAT     H138033   9.861   5.875   0.710
12597WAT     H238034   9.838   6.012   0.624
12598WAT      O38035   6.236   0.714   6.721
12598WAT     H138036   6.182   0.706   6.637
12598WAT     H238037   6.190   0.778   6.784
12599WAT      O38038   2.175   6.559   4.830
12599WAT     H138039   2.095   6.523   4.782
12599WAT     H238040   2.195   6.500   4.908
12600WAT      O38041   7.845   7.627   0.818
12600WAT     H138042   7.853   7.714   0.770
12600WAT     H238043   7.901   7.558   0.771
12601WAT      O38044   8.275   2.148   2.069
12601WAT     H138045   8.243   2.056   2.043
12601WAT     H238046   8.234   2.174   2.156
12602WAT      O38047   0.188   8.582   7.409
12602WAT     H138048   0.216   8.487   7.422
12602WAT     H238049   0.193   8.606   7.312
12603WAT      O38050   9.054   1.308   3.766
12603WAT     H138051   9.059   1.245   3.689
12603WAT     H238052   8.958   1.317   3.795
12604WAT      O38053   1.602   6.237   6.036
12604WAT     H138054   1.533   6.305   6.010
12604WAT     H238055   1.577   6.148   5.997
12605WAT      O38056   5.818   4.968   7.120
12605WAT     H138057   5.848   4.941   7.212
12605WAT     H238058   5.756   5.046   7.127
12606WAT      O38059   6.846   3.890   5.378
12606WAT     H138060   6.773   3.952   5.351
12606WAT     H238061   6.934   3.924   5.344
12607WAT      O38062   7.798   0.225   5.867
12607WAT     H138063   7.749   0.312   5.863
12607WAT     H238064   7.796   0.189   5.960
12608WAT      O38065   3.834   2.903   0.168
12608WAT     H138066   3.804   2.874   0.078
12608WAT     H238067   3.757   2.897   0.232
12609WAT      O38068   7.339   6.731   8.413
12609WAT     H138069   7.375   6.784   8.336
12609WAT     H238070   7.399   6.744   8.492
12610WAT      O38071   0.729   9.734   3.278
12610WAT     H138072   0.803   9.799   3.259
12610WAT     H238073   0.765   9.655   3.328
12611WAT      O38074   9.002   4.203   1.775
12611WAT     H138075   9.092   4.230   1.810
12611WAT     H238076   8.995   4.103   1.776
12612WAT      O38077   3.614   1.455   0.213
12612WAT     H138078   3.606   1.498   0.303
12612WAT     H238079   3.585   1.359   0.219
12613WAT      O38080   1.175   6.720   5.271
12613WAT     H138081   1.234   6.764   5.203
12613WAT     H238082   1.198   6.623   5.275
12614WAT      O38083   1.364   7.470   3.276
12614WAT     H138084   1.445   7.448   3.222
12614WAT     H238085   1.308   7.388   3.288
12615WAT      O38086   7.360   7.701   6.596
12615WAT     H138087   7.351   7.791   6.553
12615WAT     H238088   7.447   7.660   6.568
12616WAT      O38089   8.474   6.161   2.491
12616WAT     H138090   8.520   6.073   2.504
12616WAT     H238091   8.414   6.179   2.569
12617WAT      O38092   4.703   6.282   6.657
12617WAT     H138093   4.733   6.222   6.584
12617WAT     H238094   4.603   6.276   6.667
12618WAT      O38095   5.960   3.682   3.846
12618WAT     H138096   6.060   3.681   3.857
12618WAT     H238097   5.918   3.618   3.910
12619WAT      O38098   6.886   8.015   2.554
12619WAT     H138099   6.917   7.977   2.640
12619WAT     H238100   6.952   7.995   2.482
12620WAT      O38101   1.856   5.756   5.679
12620WAT     H138102   1.779   5.816   5.700
12620WAT     H238103   1.888   5.714   5.764
12621WAT      O38104   3.463   2.211   9.740
12621WAT     H138105   3.387   2.163   9.784
12621WAT     H238106   3.538   2.221   9.805
12622WAT      O38107   3.779   8.770   1.918
12622WAT     H138108   3.771   8.783   1.820
12622WAT     H238109   3.808   8.855   1.962
12623WAT      O38110   5.788   5.676   8.421
12623WAT     H138111   5.752   5.604   8.362
12623WAT     H238112   5.854   5.637   8.486
12624WAT      O38113   0.555   7.738   8.028
12624WAT     H138114   0.560   7.826   7.981
12624WAT     H238115   0.575   7.751   8.125
12625WAT      O38116   6.346   2.383   7.409
12625WAT     H138117   6.258   2.403   7.453
12625WAT     H238118   6.330   2.354   7.315
12626WAT      O38119   6.785   8.906   1.290
12626WAT     H138120   6.866   8.954   1.257
12626WAT     H238121   6.760   8.834   1.226
12627WAT      O38122   9.074   6.901   2.562
12627WAT     H138123   9.162   6.938   2.533
12627WAT     H238124   9.015   6.888   2.482
12628WAT      O38125   4.565   8.998   1.485
12628WAT     H138126   4.550   9.087   1.441
12628WAT     H238127   4.658   8.967   1.466
12629WAT      O38128   1.235   7.618   3.062
12629WAT     H138129   1.299   7.566   3.119
12629WAT     H238130   1.175   7.672   3.120
12630WAT      O38131   3.095   0.871   4.230
12630WAT     H138132   3.072   0.965   4.255
12630WAT     H238133   3.138   0.824   4.307
12631WAT      O38134   7.572   3.495   6.578
12631WAT     H138135   7.616   3.410   6.548
12631WAT     H238136   7.475   3.479   6.595
12632WAT      O38137   9.798   6.347   3.550
12632WAT     H138138   9.842   6.435   3.565
12632WAT     H238139   9.784   6.332   3.452
12633WAT      O38140   5.235   1.780   0.775
12633WAT     H138141   5.201   1.707   0.834
12633WAT     H238142   5.179   1.785   0.692
12634WAT      O38143   9.840   1.598   2.261
12634WAT     H138144   9.921   1.542   2.240
12634WAT     H238145   9.828   1.667   2.190
12635WAT      O38146   1.106   3.776   7.220
12635WAT     H138147   1.170   3.851   7.236
12635WAT     H238148   1.019   3.795   7.265
12636WAT      O38149   7.022   1.548   0.211
12636WAT     H138150   7.013   1.648   0.210
12636WAT     H238151   6.953   1.509   0.271
12637WAT      O38152   5.124   4.551   9.626
12637WAT     H138153   5.064   4.629   9.640
12637WAT     H238154   5.135   4.535   9.527
12638WAT      O38155   1.748   2.137   4.820
12638WAT     H138156   1.744   2.054   4.765
12638WAT     H238157   1.717   2.215   4.766
12639WAT      O38158   8.549   7.275   0.732
12639WAT     H138159   8.603   7.320   0.661
12639WAT     H238160   8.496   7.200   0.691
12640WAT      O38161   0.827   3.503   0.462
12640WAT     H138162   0.868   3.437   0.525
12640WAT     H238163   0.813   3.459   0.373
12641WAT      O38164   6.755   9.477   6.677
12641WAT     H138165   6.782   9.452   6.584
12641WAT     H238166   6.824   9.538   6.717
12642WAT      O38167   8.625   0.855   6.066
12642WAT     H138168   8.626   0.851   6.166
12642WAT     H238169   8.612   0.763   6.029
12643WAT      O38170   3.381   5.505   6.801
12643WAT     H138171   3.337   5.524   6.714
12643WAT     H238172   3.374   5.586   6.860
12644WAT      O38173   9.744   6.820   9.699
12644WAT     H138174   9.652   6.781   9.689
12644WAT     H238175   9.739   6.908   9.745
12645WAT      O38176   8.158   4.072   7.131
12645WAT     H138177   8.124   4.146   7.073
12645WAT     H238178   8.082   4.011   7.155
12646WAT      O38179   5.514   8.204   4.263
12646WAT     H138180   5.445   8.209   4.191
12646WAT     H238181   5.557   8.294   4.275
12647WAT      O38182   5.615   8.062   2.825
12647WAT     H138183   5.579   8.042   2.734
12647WAT     H238184   5.615   8.160   2.840
12648WAT      O38185   9.604   5.595   8.671
12648WAT     H138186   9.616   5.521   8.605
12648WAT     H238187   9.589   5.681   8.622
12649WAT      O38188   8.165   1.577   2.155
12649WAT     H138189   8.245   1.625   2.119
12649WAT     H238190   8.136   1.508   2.089
12650WAT      O38191   9.461   2.666   5.316
12650WAT     H138192   9.417   2.754   5.299
12650WAT     H238193   9.516   2.640   5.237
12651WAT      O38194   7.631   2.465   4.580
12651WAT     H138195   7.618   2.559   4.613
12651WAT     H238196   7.548   2.412   4.599
12652WAT      O38197   7.628   8.637   8.869
12652WAT     H138198   7.663   8.584   8.946
12652WAT     H238199   7.540   8.599   8.840
12653WAT      O38200   8.561   7.537   2.061
12653WAT     H138201   8.648   7.548   2.013
12653WAT     H238202   8.545   7.440   2.079
12654WAT      O38203   1.398   2.967   7.698
12654WAT     H138204   1.464   2.909   7.746
12654WAT     H238205   1.415   2.963   7.600
12655WAT      O38206   2.198   7.878   0.414
12655WAT     H138207   2.154   7.808   0.357
12655WAT     H238208   2.276   7.916   0.365
12656WAT      O38209   2.016   6.981   6.564
12656WAT     H138210   2.034   6.988   6.662
12656WAT     H238211   1.976   6.892   6.543
12657WAT      O38212   8.284   0.249   5.723
12657WAT     H138213   8.329   0.161   5.735
12657WAT     H238214   8.197   0.235   5.675
12658WAT      O38215   8.420   1.234   5.341
12658WAT     H138216   8.517   1.249   5.358
12658WAT     H238217   8.396   1.272   5.251
12659WAT      O38218   1.338   7.716   2.168
12659WAT     H138219   1.403   7.646   2.196
12659WAT     H238220   1.374   7.764   2.088
12660WAT      O38221   4.813   4.731   6.690
12660WAT     H138222   4.894   4.704   6.744
12660WAT     H238223   4.837   4.806   6.629
12661WAT      O38224   2.582   5.237   5.358
12661WAT     H138225   2.638   5.162   5.321
12661WAT     H238226   2.516   5.267   5.289
12662WAT      O38227   4.881   2.843   5.318
12662WAT     H138228   4.973   2.821   5.351
12662WAT     H238229   4.814   2.816   5.387
12663WAT      O38230   9.247   3.903   6.979
12663WAT     H138231   9.203   3.874   7.064
12663WAT     H238232   9.303   3.828   6.943
12664WAT      O38233   4.294   5.552   4.500
12664WAT     H138234   4.318   5.638   4.457
12664WAT     H238235   4.358   5.531   4.574
12665WAT      O38236   2.395   9.193   4.726
12665WAT     H138237   2.442   9.115   4.683
12665WAT     H238238   2.409   9.275   4.671
12666WAT      O38239   8.502   8.054   3.688
12666WAT     H138240   8.432   8.112   3.729
12666WAT     H238241   8.536   7.989   3.756
12667WAT      O38242   8.042   9.757   3.182
12667WAT     H138243   7.974   9.828   3.167
12667WAT     H238244   8.090   9.738   3.097
12668WAT      O38245   4.395   8.960   9.650
12668WAT     H138246   4.466   8.924   9.589
12668WAT     H238247   4.305   8.949   9.607
12669WAT      O38248   9.108   7.177   6.186
12669WAT     H138249   9.131   7.253   6.125
12669WAT     H238250   9.128   7.091   6.141
12670WAT      O38251   6.940   8.283   2.563
12670WAT     H138252   6.910   8.187   2.564
12670WAT     H238253   7.015   8.296   2.627
12671WAT      O38254   7.691   1.072   0.321
12671WAT     H138255   7.782   1.114   0.319
12671WAT     H238256   7.633   1.122   0.386
12672WAT      O38257   2.983   5.710   0.022
12672WAT     H138258   2.890   5.686   0.049
12672WAT     H238259   2.999   5.680  -0.072
12673WAT      O38260   1.928   6.944   9.872
12673WAT     H138261   1.998   7.014   9.879
12673WAT     H238262   1.865   6.951   9.950
12674WAT      O38263   5.199   0.889   0.195
12674WAT     H138264   5.267   0.947   0.240
12674WAT     H238265   5.236   0.856   0.108
12675WAT      O38266   7.889   0.951   3.246
12675WAT     H138267   7.929   1.042   3.258
12675WAT     H238268   7.957   0.889   3.207
12676WAT      O38269   8.719   3.314   1.518
12676WAT     H138270   8.642   3.366   1.555
12676WAT     H238271   8.791   3.377   1.489
12677WAT      O38272   8.942   7.699   6.345
12677WAT     H138273   8.908   7.688   6.438
12677WAT     H238274   8.878   7.754   6.291
12678WAT      O38275   8.177   9.233   2.785
12678WAT     H138276   8.258   9.255   2.840
12678WAT     H238277   8.184   9.138   2.753
12679WAT      O38278   0.728   4.114   6.732
12679WAT     H138279   0.640   4.144   6.695
12679WAT     H238280   0.802   4.166   6.690
12680WAT      O38281   1.024   6.223   2.098
12680WAT     H138282   1.046   6.197   2.192
12680WAT     H238283   0.943   6.174   2.068
12681WAT      O38284   7.938   3.418   6.722
12681WAT     H138285   7.981   3.466   6.798
12681WAT     H238286   7.992   3.337   6.699
12682WAT      O38287   7.328   2.275   9.196
12682WAT     H138288   7.350   2.348   9.131
12682WAT     H238289   7.373   2.294   9.283
12683WAT      O38290   7.026   6.457  -0.000
12683WAT     H138291   7.116   6.488  -0.033
12683WAT     H238292   6.977   6.535   0.041
12684WAT      O38293   9.300   2.908   5.310
12684WAT     H138294   9.318   2.930   5.406
12684WAT     H238295   9.202   2.891   5.298
12685WAT      O38296   1.305   7.791   2.879
12685WAT     H138297   1.217   7.836   2.869
12685WAT     H238298   1.301   7.726   2.955
12686WAT      O38299   9.872   7.945   9.592
12686WAT     H138300   9.923   7.868   9.554
12686WAT     H238301   9.881   8.025   9.533
12687WAT      O38302   7.198   3.559   9.652
12687WAT     H138303   7.262   3.525   9.721
12687WAT     H238304   7.239   3.548   9.561
12688WAT      O38305   7.867   4.152   0.830
12688WAT     H138306   7.961   4.131   0.857
12688WAT     H238307   7.854   4.251   0.826
12689WAT      O38308   7.127   7.778   5.939
12689WAT     H138309   7.138   7.859   5.997
12689WAT     H238310   7.128   7.696   5.996
12690WAT      O38311   6.536   9.781   0.804
12690WAT     H138312   6.515   9.848   0.874
12690WAT     H238313   6.491   9.694   0.827
12691WAT      O38314   0.175   3.750   6.296
12691WAT     H138315   0.089   3.780   6.256
12691WAT     H238316   0.193   3.655   6.269
12692WAT      O38317   1.467   3.712   0.580
12692WAT     H138318   1.461   3.711   0.480
12692WAT     H238319   1.545   3.657   0.609
12693WAT      O38320   1.549   6.566   5.224
12693WAT     H138321   1.613   6.627   5.271
12693WAT     H238322   1.549   6.586   5.126
12694WAT      O38323   7.404   2.729   7.599
12694WAT     H138324   7.355   2.642   7.596
12694WAT     H238325   7.425   2.753   7.693
12695WAT      O38326   0.482   6.870   7.741
12695WAT     H138327   0.399   6.817   7.726
12695WAT     H238328   0.462   6.947   7.802
12696WAT      O38329   2.472   6.337   9.634
12696WAT     H138330   2.550   6.359   9.694
12696WAT     H238331   2.427   6.254   9.667
12697WAT      O38332   3.012   8.970   9.110
12697WAT     H138333   2.966   9.058   9.099
12697WAT     H238334   2.956   8.911   9.168
12698WAT      O38335   6.811   6.830   1.263
12698WAT     H138336   6.831   6.913   1.211
12698WAT     H238337   6.730   6.844   1.320
12699WAT      O38338   6.352   7.566   2.628
12699WAT     H138339   6.295   7.492   2.593
12699WAT     H238340   6.298   7.650   2.635
12700WAT      O38341   3.528   8.241   9.206
12700WAT     H138342   3.610   8.216   9.259
12700WAT     H238343   3.457   8.274   9.268
12701WAT      O38344   0.410   5.511   5.531
12701WAT     H138345   0.482   5.444   5.516
12701WAT     H238346   0.323   5.463   5.546
12702WAT      O38347   0.990   7.417   5.782
12702WAT     H138348   1.005   7.505   5.735
12702WAT     H238349   0.907   7.374   5.746
12703WAT      O38350   3.808   2.477   8.137
12703WAT     H138351   3.838   2.572   8.142
12703WAT     H238352   3.831   2.429   8.222
12704WAT      O38353   0.863   1.764   3.225
12704WAT     H138354   0.808   1.803   3.152
12704WAT     H238355   0.888   1.836   3.290
12705WAT      O38356   9.212   7.981   0.240
12705WAT     H138357   9.176   8.071   0.217
12705WAT     H238358   9.252   7.939   0.158
12706WAT      O38359   3.335   5.815   4.773
12706WAT     H138360   3.331   5.743   4.843
12706WAT     H238361   3.242   5.847   4.752
12707WAT      O38362   3.732   5.293   5.911
12707WAT     H138363   3.793   5.328   5.982
12707WAT     H238364   3.658   5.240   5.953
12708WAT      O38365   0.212   1.726   0.910
12708WAT     H138366   0.298   1.736   0.960
12708WAT     H238367   0.179   1.632   0.918
12709WAT      O38368   6.172   6.679   7.964
12709WAT     H138369   6.172   6.646   7.870
12709WAT     H238370   6.167   6.779   7.963
12710WAT      O38371   8.621   3.023   1.140
12710WAT     H138372   8.719   3.033   1.160
12710WAT     H238373   8.571   3.098   1.183
12711WAT      O38374   9.641   6.017   8.335
12711WAT     H138375   9.618   6.052   8.244
12711WAT     H238376   9.645   6.093   8.400
12712WAT      O38377   2.832   5.242   6.865
12712WAT     H138378   2.855   5.340   6.870
12712WAT     H238379   2.815   5.207   6.957
12713WAT      O38380   5.474   0.153   1.993
12713WAT     H138381   5.541   0.111   1.932
12713WAT     H238382   5.425   0.226   1.945
12714WAT      O38383   3.864   3.680   5.128
12714WAT     H138384   3.839   3.731   5.210
12714WAT     H238385   3.924   3.736   5.071
12715WAT      O38386   3.814   4.571   3.107
12715WAT     H138387   3.831   4.646   3.042
12715WAT     H238388   3.891   4.565   3.171
12716WAT      O38389   3.410   3.807   4.065
12716WAT     H138390   3.475   3.851   4.127
12716WAT     H238391   3.321   3.800   4.110
12717WAT      O38392   2.667   2.962   2.976
12717WAT     H138393   2.719   2.876   2.971
12717WAT     H238394   2.585   2.953   2.919
12718WAT      O38395   1.942   3.759   2.552
12718WAT     H138396   1.970   3.691   2.620
12718WAT     H238397   1.998   3.747   2.470
12719WAT      O38398   0.225   1.309   5.225
12719WAT     H138399   0.259   1.266   5.141
12719WAT     H238400   0.294   1.371   5.262
12720WAT      O38401   9.461   3.853   2.297
12720WAT     H138402   9.365   3.868   2.321
12720WAT     H238403   9.481   3.755   2.300
12721WAT      O38404   3.345   3.379   2.100
12721WAT     H138405   3.339   3.461   2.157
12721WAT     H238406   3.440   3.354   2.088
12722WAT      O38407   2.190   1.702   2.249
12722WAT     H138408   2.100   1.740   2.229
12722WAT     H238409   2.254   1.775   2.274
12723WAT      O38410   6.806   1.204   8.604
12723WAT     H138411   6.808   1.303   8.615
12723WAT     H238412   6.713   1.170   8.623
12724WAT      O38413   2.338   1.117   8.677
12724WAT     H138414   2.286   1.194   8.641
12724WAT     H238415   2.411   1.093   8.613
12725WAT      O38416   4.575   3.283   7.558
12725WAT     H138417   4.637   3.322   7.626
12725WAT     H238418   4.568   3.184   7.573
12726WAT      O38419   5.155   3.602   6.565
12726WAT     H138420   5.171   3.612   6.664
12726WAT     H238421   5.135   3.691   6.525
12727WAT      O38422   8.366   3.772   1.832
12727WAT     H138423   8.326   3.706   1.895
12727WAT     H238424   8.461   3.791   1.859
12728WAT      O38425   3.931   2.155   3.177
12728WAT     H138426   3.908   2.074   3.230
12728WAT     H238427   3.952   2.231   3.239
12729WAT      O38428   1.940   4.769   4.548
12729WAT     H138429   1.912   4.821   4.629
12729WAT     H238430   2.025   4.807   4.512
12730WAT      O38431   2.704   5.711   3.485
12730WAT     H138432   2.756   5.662   3.556
12730WAT     H238433   2.665   5.645   3.421
12731WAT      O38434   0.543   8.377   2.611
12731WAT     H138435   0.496   8.305   2.661
12731WAT     H238436   0.584   8.339   2.528
12732WAT      O38437   4.058   1.313   9.814
12732WAT     H138438   4.079   1.236   9.874
12732WAT     H238439   3.969   1.351   9.839
12733WAT      O38440   9.565   9.546   1.018
12733WAT     H138441   9.623   9.623   0.991
12733WAT     H238442   9.471   9.578   1.028
12734WAT      O38443   5.410   7.896   9.716
12734WAT     H138444   5.455   7.818   9.758
12734WAT     H238445   5.447   7.910   9.624
12735WAT      O38446   6.178   3.325   6.587
12735WAT     H138447   6.156   3.274   6.671
12735WAT     H238448   6.267   3.295   6.553
12736WAT      O38449   5.142   5.490   7.664
12736WAT     H138450   5.087   5.571   7.682
12736WAT     H238451   5.085   5.408   7.669
12737WAT      O38452   2.025   5.482   3.409
12737WAT     H138453   2.093   5.531   3.464
12737WAT     H238454   2.048   5.385   3.406
12738WAT      O38455   9.542   2.415   2.778
12738WAT     H138456   9.599   2.458   2.708
12738WAT     H238457   9.531   2.318   2.758
12739WAT      O38458   7.532   9.390   9.514
12739WAT     H138459   7.440   9.372   9.479
12739WAT     H238460   7.594   9.317   9.484
12740WAT      O38461   1.867   7.238   1.098
12740WAT     H138462   1.938   7.250   1.029
12740WAT     H238463   1.879   7.149   1.143
12741WAT      O38464   2.926   9.609   7.947
12741WAT     H138465   2.925   9.630   8.045
12741WAT     H238466   2.886   9.518   7.932
12742WAT      O38467   0.297   3.903   2.360
12742WAT     H138468   0.208   3.949   2.364
12742WAT     H238469   0.352   3.931   2.439
12743WAT      O38470   3.296   9.353   8.913
12743WAT     H138471   3.328   9.411   8.988
12743WAT     H238472   3.374   9.305   8.872
12744WAT      O38473   7.058   1.213   5.792
12744WAT     H138474   7.010   1.299   5.774
12744WAT     H238475   7.129   1.228   5.860
12745WAT      O38476   4.193   7.660   5.597
12745WAT     H138477   4.200   7.565   5.626
12745WAT     H238478   4.285   7.699   5.587
12746WAT      O38479   2.089   0.233   7.334
12746WAT     H138480   2.073   0.187   7.421
12746WAT     H238481   2.187   0.249   7.322
12747WAT      O38482   6.168   0.702   5.544
12747WAT     H138483   6.167   0.615   5.594
12747WAT     H238484   6.231   0.694   5.466
12748WAT      O38485   8.446   2.812   4.222
12748WAT     H138486   8.404   2.809   4.131
12748WAT     H238487   8.445   2.906   4.256
12749WAT      O38488   3.588   8.563   5.851
12749WAT     H138489   3.524   8.530   5.920
12749WAT     H238490   3.538   8.598   5.772
12750WAT      O38491   5.198   9.441   0.569
12750WAT     H138492   5.211   9.354   0.616
12750WAT     H238493   5.256   9.511   0.610
12751WAT      O38494   5.952   4.672   4.766
12751WAT     H138495   5.917   4.741   4.830
12751WAT     H238496   6.047   4.692   4.745
12752WAT      O38497   4.542   2.050   5.902
12752WAT     H138498   4.557   2.086   5.994
12752WAT     H238499   4.499   2.120   5.845
12753WAT      O38500   8.147   2.773   4.302
12753WAT     H138501   8.072   2.838   4.291
12753WAT     H238502   8.233   2.823   4.311
12754WAT      O38503   3.358   2.390   6.673
12754WAT     H138504   3.343   2.483   6.707
12754WAT     H238505   3.346   2.324   6.747
12755WAT      O38506   3.763   8.747   0.841
12755WAT     H138507   3.836   8.682   0.822
12755WAT     H238508   3.802   8.839   0.852
12756WAT      O38509   4.144   0.458   2.648
12756WAT     H138510   4.060   0.500   2.681
12756WAT     H238511   4.174   0.503   2.564
12757WAT      O38512   0.219   2.999   8.823
12757WAT     H138513   0.285   3.054   8.771
12757WAT     H238514   0.176   3.056   8.893
12758WAT      O38515   9.741   6.790   6.537
12758WAT     H138516   9.666   6.852   6.560
12758WAT     H238517   9.809   6.790   6.610
12759WAT      O38518   4.145   7.028   4.716
12759WAT     H138519   4.194   6.940   4.716
12759WAT     H238520   4.176   7.083   4.793
12760WAT      O38521   7.223   3.583   2.855
12760WAT     H138522   7.222   3.643   2.936
12760WAT     H238523   7.194   3.491   2.881
12761WAT      O38524   1.638   4.158   9.288
12761WAT     H138525   1.720   4.183   9.237
12761WAT     H238526   1.584   4.240   9.306
12762WAT      O38527   4.542   3.211   9.569
12762WAT     H138528   4.592   3.130   9.537
12762WAT     H238529   4.587   3.248   9.650
12763WAT      O38530   5.422   3.366   5.595
12763WAT     H138531   5.455   3.334   5.506
12763WAT     H238532   5.329   3.403   5.584
12764WAT      O38533   5.128   8.646   7.758
12764WAT     H138534   5.148   8.575   7.691
12764WAT     H238535   5.139   8.609   7.850
12765WAT      O38536   0.078   1.305   9.030
12765WAT     H138537   0.171   1.304   9.066
12765WAT     H238538   0.023   1.372   9.081
12766WAT      O38539   4.544   8.964   6.752
12766WAT     H138540   4.616   8.973   6.821
12766WAT     H238541   4.574   9.006   6.666
12767WAT      O38542   6.496   1.556   6.418
12767WAT     H138543   6.537   1.521   6.334
12767WAT     H238544   6.555   1.627   6.457
12768WAT      O38545   5.347   2.763   6.826
12768WAT     H138546   5.384   2.686   6.774
12768WAT     H238547   5.282   2.729   6.894
12769WAT      O38548   3.860   8.142   4.848
12769WAT     H138549   3.927   8.155   4.921
12769WAT     H238550   3.778   8.099   4.885
12770WAT      O38551   8.179   6.532   0.913
12770WAT     H138552   8.145   6.467   0.845
12770WAT     H238553   8.270   6.564   0.887
12771WAT      O38554   3.845   0.269   2.188
12771WAT     H138555   3.892   0.327   2.254
12771WAT     H238556   3.857   0.173   2.214
12772WAT      O38557   6.484   2.488   5.731
12772WAT     H138558   6.533   2.514   5.648
12772WAT     H238559   6.446   2.396   5.721
12773WAT      O38560   9.665   8.655   3.229
12773WAT     H138561   9.622   8.571   3.262
12773WAT     H238562   9.684   8.716   3.305
12774WAT      O38563   9.139   4.553   0.750
12774WAT     H138564   9.124   4.611   0.830
12774WAT     H238565   9.147   4.458   0.780
12775WAT      O38566   4.487   7.927   1.800
12775WAT     H138567   4.480   7.828   1.784
12775WAT     H238568   4.479   7.975   1.713
12776WAT      O38569   0.228   0.550   9.759
12776WAT     H138570   0.260   0.509   9.673
12776WAT     H238571   0.263   0.644   9.766
12777WAT      O38572   6.292   6.876   1.804
12777WAT     H138573   6.320   6.929   1.884
12777WAT     H238574   6.370   6.867   1.741
12778WAT      O38575   1.620   3.791   3.999
12778WAT     H138576   1.687   3.842   4.054
12778WAT     H238577   1.559   3.740   4.060
12779WAT      O38578   4.371   6.405   4.963
12779WAT     H138579   4.381   6.347   5.043
12779WAT     H238580   4.368   6.349   4.881
12780WAT      O38581   4.122   9.672   1.262
12780WAT     H138582   4.131   9.763   1.222
12780WAT     H238583   4.093   9.608   1.191
12781WAT      O38584   4.324   0.178   6.618
12781WAT     H138585   4.390   0.209   6.687
12781WAT     H238586   4.261   0.252   6.597
12782WAT      O38587   5.832   4.099   0.503
12782WAT     H138588   5.822   4.019   0.562
12782WAT     H238589   5.909   4.154   0.534
12783WAT      O38590   5.479   4.051   6.548
12783WAT     H138591   5.387   4.062   6.513
12783WAT     H238592   5.510   3.958   6.532
12784WAT      O38593   6.891   2.365   1.771
12784WAT     H138594   6.971   2.399   1.820
12784WAT     H238595   6.898   2.265   1.762
12785WAT      O38596   8.783   7.258   4.359
12785WAT     H138597   8.789   7.345   4.407
12785WAT     H238598   8.787   7.274   4.260
12786WAT      O38599   8.423   8.088   4.599
12786WAT     H138600   8.449   7.994   4.620
12786WAT     H238601   8.353   8.118   4.664
12787WAT      O38602   7.428   0.133   1.010
12787WAT     H138603   7.348   0.183   0.976
12787WAT     H238604   7.510   0.188   0.993
12788WAT      O38605   9.502   3.771   6.139
12788WAT     H138606   9.461   3.860   6.122
12788WAT     H238607   9.586   3.762   6.086
12789WAT      O38608   4.718   3.237   3.858
12789WAT     H138609   4.706   3.336   3.866
12789WAT     H238610   4.804   3.210   3.902
12790WAT      O38611   3.393   5.552   7.572
12790WAT     H138612   3.422   5.461   7.603
12790WAT     H238613   3.355   5.603   7.649
12791WAT      O38614   3.615   3.732   1.713
12791WAT     H138615   3.656   3.725   1.804
12791WAT     H238616   3.681   3.700   1.645
12792WAT      O38617   6.013   8.546   2.959
12792WAT     H138618   5.928   8.526   2.909
12792WAT     H238619   6.091   8.519   2.903
12793WAT      O38620   7.929   9.491   4.518
12793WAT     H138621   7.846   9.466   4.568
12793WAT     H238622   8.000   9.519   4.582
12794WAT      O38623   3.008   4.021   2.323
12794WAT     H138624   3.103   4.027   2.351
12794WAT     H238625   2.971   3.932   2.348
12795WAT      O38626   9.865   9.012   8.875
12795WAT     H138627   9.881   9.030   8.972
12795WAT     H238628   9.925   8.937   8.846
12796WAT      O38629   4.415   6.397   2.266
12796WAT     H138630   4.446   6.306   2.241
12796WAT     H238631   4.463   6.427   2.348
12797WAT      O38632   3.409   3.113   4.131
12797WAT     H138633   3.380   3.079   4.220
12797WAT     H238634   3.329   3.144   4.079
12798WAT      O38635   6.697   6.047   2.396
12798WAT     H138636   6.707   6.137   2.437
12798WAT     H238637   6.767   5.986   2.431
12799WAT      O38638   6.900   7.138   0.037
12799WAT     H138639   6.810   7.168   0.007
12799WAT     H238640   6.906   7.038   0.033
12800WAT      O38641   0.151   3.529   8.098
12800WAT     H138642   0.199   3.616   8.102
12800WAT     H238643   0.065   3.535   8.148
12801WAT      O38644   3.420   5.461   4.745
12801WAT     H138645   3.477   5.435   4.667
12801WAT     H238646   3.477   5.464   4.827
12802WAT      O38647   5.240   8.349   7.623
12802WAT     H138648   5.161   8.354   7.562
12802WAT     H238649   5.213   8.304   7.708
12803WAT      O38650   9.647   9.729   8.105
12803WAT     H138651   9.686   9.786   8.178
12803WAT     H238652   9.582   9.665   8.145
12804WAT      O38653   1.905   7.436   7.567
12804WAT     H138654   1.885   7.392   7.479
12804WAT     H238655   1.945   7.369   7.629
12805WAT      O38656   2.051   2.911   3.993
12805WAT     H138657   2.029   2.910   4.090
12805WAT     H238658   1.966   2.909   3.940
12806WAT      O38659   9.397   2.760   6.187
12806WAT     H138660   9.413   2.677   6.240
12806WAT     H238661   9.480   2.816   6.187
12807WAT      O38662   3.327   8.550   8.674
12807WAT     H138663   3.340   8.643   8.709
12807WAT     H238664   3.377   8.486   8.733
12808WAT      O38665   5.653   0.108   5.321
12808WAT     H138666   5.738   0.080   5.364
12808WAT     H238667   5.595   0.154   5.389
12809WAT      O38668   9.096   8.040   8.885
12809WAT     H138669   9.027   8.048   8.812
12809WAT     H238670   9.139   8.129   8.900
12810WAT      O38671   7.559   1.036   7.735
12810WAT     H138672   7.540   0.981   7.817
12810WAT     H238673   7.494   1.013   7.663
12811WAT      O38674   5.749   1.067   6.249
12811WAT     H138675   5.750   0.992   6.316
12811WAT     H238676   5.779   1.033   6.160
12812WAT      O38677   7.562   2.236   6.260
12812WAT     H138678   7.619   2.206   6.184
12812WAT     H238679   7.617   2.289   6.324
12813WAT      O38680   0.016   4.275   6.440
12813WAT     H138681   0.034   4.180   6.415
12813WAT     H238682  -0.049   4.277   6.516
12814WAT      O38683   8.203   5.617   4.886
12814WAT     H138684   8.284   5.564   4.910
12814WAT     H238685   8.220   5.714   4.900
12815WAT      O38686   0.526   1.737   1.454
12815WAT     H138687   0.492   1.655   1.409
12815WAT     H238688   0.488   1.743   1.546
12816WAT      O38689   2.536   9.039   2.326
12816WAT     H138690   2.549   9.122   2.271
12816WAT     H238691   2.506   8.964   2.266
12817WAT      O38692   0.903   9.504   9.638
12817WAT     H138693   0.942   9.434   9.698
12817WAT     H238694   0.838   9.462   9.576
12818WAT      O38695   1.913   0.976   6.093
12818WAT     H138696   1.841   0.931   6.039
12818WAT     H238697   2.002   0.937   6.070
12819WAT      O38698   4.814   6.386   4.367
12819WAT     H138699   4.804   6.302   4.421
12819WAT     H238700   4.909   6.394   4.336
12820WAT      O38701   0.712   9.610   5.192
12820WAT     H138702   0.703   9.671   5.114
12820WAT     H238703   0.631   9.552   5.199
12821WAT      O38704   2.181   4.082   4.715
12821WAT     H138705   2.230   4.028   4.784
12821WAT     H238706   2.083   4.078   4.735
12822WAT      O38707   3.014   8.613   2.471
12822WAT     H138708   2.920   8.633   2.499
12822WAT     H238709   3.034   8.658   2.384
12823WAT      O38710   5.426   3.199   0.541
12823WAT     H138711   5.438   3.196   0.442
12823WAT     H238712   5.382   3.285   0.567
12824WAT      O38713   2.831   0.697   6.801
12824WAT     H138714   2.890   0.734   6.730
12824WAT     H238715   2.837   0.754   6.883
12825WAT      O38716   3.090   3.797   5.323
12825WAT     H138717   3.071   3.894   5.339
12825WAT     H238718   3.183   3.787   5.285
12826WAT      O38719   1.997   2.922   3.365
12826WAT     H138720   2.002   2.988   3.290
12826WAT     H238721   1.911   2.933   3.414
12827WAT      O38722   6.898   4.234   9.316
12827WAT     H138723   6.855   4.248   9.405
12827WAT     H238724   6.843   4.170   9.262
12828WAT      O38725   7.752   0.999   5.168
12828WAT     H138726   7.697   0.971   5.246
12828WAT     H238727   7.698   1.057   5.107
12829WAT      O38728   8.233   9.560   6.019
12829WAT     H138729   8.228   9.461   6.014
12829WAT     H238730   8.314   9.592   5.970
12830WAT      O38731   8.955   4.967   0.173
12830WAT     H138732   8.968   5.064   0.194
12830WAT     H238733   8.889   4.928   0.237
12831WAT      O38734   5.871   6.569   1.395
12831WAT     H138735   5.895   6.606   1.485
12831WAT     H238736   5.935   6.495   1.372
12832WAT      O38737   1.293   6.360   2.134
12832WAT     H138738   1.335   6.272   2.157
12832WAT     H238739   1.195   6.347   2.121
12833WAT      O38740   3.022   4.294   6.438
12833WAT     H138741   3.012   4.366   6.369
12833WAT     H238742   2.957   4.310   6.512
12834WAT      O38743   5.834   1.529   0.560
12834WAT     H138744   5.808   1.623   0.583
12834WAT     H238745   5.911   1.501   0.617
12835WAT      O38746   4.023   0.587   5.134
12835WAT     H138747   3.987   0.586   5.041
12835WAT     H238748   4.121   0.607   5.133
12836WAT      O38749   0.175   0.507   5.705
12836WAT     H138750   0.168   0.459   5.792
12836WAT     H238751   0.200   0.442   5.633
12837WAT      O38752   4.244   7.661   4.467
12837WAT     H138753   4.271   7.731   4.533
12837WAT     H238754   4.237   7.573   4.513
12838WAT      O38755   0.368   9.023   1.711
12838WAT     H138756   0.386   9.089   1.783
12838WAT     H238757   0.417   8.938   1.731
12839WAT      O38758   0.046   7.802   7.148
12839WAT     H138759   0.010   7.713   7.176
12839WAT     H238760   0.131   7.819   7.198
12840WAT      O38761   2.497   7.527   8.050
12840WAT     H138762   2.509   7.438   8.094
12840WAT     H238763   2.557   7.533   7.970
12841WAT      O38764   8.828   7.930   4.678
12841WAT     H138765   8.923   7.908   4.657
12841WAT     H238766   8.788   7.981   4.603
12842WAT      O38767   4.664   6.007   7.579
12842WAT     H138768   4.654   5.954   7.663
12842WAT     H238769   4.629   6.100   7.593
12843WAT      O38770   2.155   4.541   4.993
12843WAT     H138771   2.105   4.619   4.955
12843WAT     H238772   2.097   4.460   4.993
12844WAT      O38773   3.136   3.689   7.564
12844WAT     H138774   3.075   3.692   7.643
12844WAT     H238775   3.226   3.724   7.590
12845WAT      O38776   2.324   3.217   6.797
12845WAT     H138777   2.328   3.181   6.890
12845WAT     H238778   2.264   3.297   6.795
12846WAT      O38779   4.060   6.436   7.460
12846WAT     H138780   3.968   6.413   7.492
12846WAT     H238781   4.071   6.535   7.457
12847WAT      O38782   9.664   1.969   2.392
12847WAT     H138783   9.722   2.002   2.466
12847WAT     H238784   9.672   2.031   2.314
12848WAT      O38785   0.436   0.240   2.701
12848WAT     H138786   0.465   0.147   2.681
12848WAT     H238787   0.432   0.293   2.616
12849WAT      O38788   1.973   2.943   7.357
12849WAT     H138789   2.037   2.879   7.316
12849WAT     H238790   1.940   2.906   7.444
12850WAT      O38791   4.734   5.358   3.050
12850WAT     H138792   4.765   5.429   2.987
12850WAT     H238793   4.807   5.336   3.115
12851WAT      O38794   0.816   7.600   2.332
12851WAT     H138795   0.850   7.506   2.340
12851WAT     H238796   0.826   7.645   2.421
12852WAT      O38797   2.847   4.109   0.978
12852WAT     H138798   2.852   4.137   1.074
12852WAT     H238799   2.914   4.160   0.925
12853WAT      O38800   9.809   0.407   7.304
12853WAT     H138801   9.784   0.412   7.401
12853WAT     H238802   9.842   0.497   7.274
12854WAT      O38803   0.823   8.100   4.740
12854WAT     H138804   0.812   8.093   4.641
12854WAT     H238805   0.841   8.195   4.765
12855WAT      O38806   8.443   5.504   4.939
12855WAT     H138807   8.468   5.428   5.000
12855WAT     H238808   8.495   5.585   4.965
12856WAT      O38809   9.302   4.694   7.427
12856WAT     H138810   9.350   4.780   7.413
12856WAT     H238811   9.221   4.709   7.483
12857WAT      O38812   0.539   8.567   4.239
12857WAT     H138813   0.594   8.632   4.188
12857WAT     H238814   0.442   8.586   4.223
12858WAT      O38815   8.069   4.629   9.546
12858WAT     H138816   8.041   4.700   9.483
12858WAT     H238817   8.168   4.616   9.541
12859WAT      O38818   1.319   6.322   3.960
12859WAT     H138819   1.363   6.249   4.013
12859WAT     H238820   1.304   6.291   3.866
12860WAT      O38821   4.944   4.456   4.401
12860WAT     H138822   4.952   4.556   4.393
12860WAT     H238823   4.990   4.413   4.324
12861WAT      O38824   4.839   8.121   0.376
12861WAT     H138825   4.858   8.151   0.470
12861WAT     H238826   4.877   8.188   0.312
12862WAT      O38827   9.434   3.820   5.772
12862WAT     H138828   9.385   3.781   5.850
12862WAT     H238829   9.511   3.761   5.748
12863WAT      O38830   5.238   0.133   1.663
12863WAT     H138831   5.258   0.042   1.625
12863WAT     H238832   5.199   0.191   1.592
12864WAT      O38833   9.281   1.296   4.359
12864WAT     H138834   9.330   1.376   4.325
12864WAT     H238835   9.250   1.313   4.452
12865WAT      O38836   0.481   5.001   2.152
12865WAT     H138837   0.563   4.944   2.154
12865WAT     H238838   0.504   5.092   2.118
12866WAT      O38839   2.950   3.337   1.783
12866WAT     H138840   2.979   3.389   1.863
12866WAT     H238841   2.958   3.239   1.803
12867WAT      O38842   8.182   8.912   1.175
12867WAT     H138843   8.178   8.814   1.195
12867WAT     H238844   8.106   8.936   1.115
12868WAT      O38845   2.459   8.813   2.170
12868WAT     H138846   2.454   8.714   2.158
12868WAT     H238847   2.391   8.857   2.111
12869WAT      O38848   3.260   1.360   1.204
12869WAT     H138849   3.167   1.393   1.189
12869WAT     H238850   3.257   1.264   1.231
12870WAT      O38851   3.939   4.253   6.047
12870WAT     H138852   3.852   4.246   5.999
12870WAT     H238853   3.956   4.349   6.072
12871WAT      O38854   2.786   7.680   4.572
12871WAT     H138855   2.771   7.606   4.636
12871WAT     H238856   2.722   7.755   4.592
12872WAT      O38857   6.178   2.357   1.025
12872WAT     H138858   6.129   2.371   1.111
12872WAT     H238859   6.155   2.267   0.988
12873WAT      O38860   7.593   1.857   5.106
12873WAT     H138861   7.641   1.870   5.193
12873WAT     H238862   7.640   1.788   5.052
12874WAT      O38863   7.873   4.570   4.856
12874WAT     H138864   7.804   4.592   4.787
12874WAT     H238865   7.926   4.652   4.876
12875WAT      O38866   3.759   9.124   7.064
12875WAT     H138867   3.709   9.182   6.999
12875WAT     H238868   3.848   9.165   7.083
12876WAT      O38869   8.651   1.049   9.306
12876WAT     H138870   8.606   0.964   9.333
12876WAT     H238871   8.746   1.048   9.338
12877WAT      O38872   8.035   0.572   2.163
12877WAT     H138873   8.022   0.642   2.092
12877WAT     H238874   7.947   0.552   2.206
12878WAT      O38875   1.075   9.193   6.773
12878WAT     H138876   1.165   9.224   6.806
12878WAT     H238877   1.036   9.128   6.839
12879WAT      O38878   8.007   4.470   6.577
12879WAT     H138879   7.910   4.491   6.585
12879WAT     H238880   8.043   4.444   6.667
12880WAT      O38881   0.803   1.038   7.550
12880WAT     H138882   0.855   1.123   7.562
12880WAT     H238883   0.720   1.042   7.605
12881WAT      O38884   1.723   3.119   4.976
12881WAT     H138885   1.815   3.120   5.015
12881WAT     H238886   1.727   3.098   4.879
12882WAT      O38887   3.994   7.865   7.677
12882WAT     H138888   3.979   7.903   7.769
12882WAT     H238889   4.015   7.767   7.685
12883WAT      O38890   2.239   5.123   2.074
12883WAT     H138891   2.326   5.158   2.040
12883WAT     H238892   2.186   5.087   1.997
12884WAT      O38893   3.529   9.579   2.215
12884WAT     H138894   3.521   9.648   2.288
12884WAT     H238895   3.499   9.619   2.129
12885WAT      O38896   1.748   8.663   4.437
12885WAT     H138897   1.754   8.585   4.375
12885WAT     H238898   1.667   8.653   4.495
12886WAT      O38899   7.102   3.489   0.126
12886WAT     H138900   7.174   3.478   0.058
12886WAT     H238901   7.116   3.425   0.201
12887WAT      O38902   9.154   1.954   4.931
12887WAT     H138903   9.191   2.045   4.916
12887WAT     H238904   9.071   1.960   4.986
12888WAT      O38905   1.335   8.195   3.725
12888WAT     H138906   1.377   8.114   3.684
12888WAT     H238907   1.236   8.188   3.718
12889WAT      O38908   0.623   5.844   1.882
12889WAT     H138909   0.613   5.939   1.854
12889WAT     H238910   0.543   5.816   1.935
12890WAT      O38911   3.417   9.514   6.913
12890WAT     H138912   3.331   9.525   6.863
12890WAT     H238913   3.399   9.514   7.011
12891WAT      O38914   7.344   7.615   9.070
12891WAT     H138915   7.382   7.543   9.129
12891WAT     H238916   7.288   7.573   8.999
12892WAT      O38917   3.220   0.865   0.732
12892WAT     H138918   3.192   0.924   0.808
12892WAT     H238919   3.300   0.812   0.760
12893WAT      O38920   7.873   5.650   4.934
12893WAT     H138921   7.822   5.584   4.879
12893WAT     H238922   7.965   5.614   4.952
12894WAT      O38923   2.303   1.893   1.795
12894WAT     H138924   2.287   1.891   1.696
12894WAT     H238925   2.222   1.929   1.841
12895WAT      O38926   7.182   3.064   9.281
12895WAT     H138927   7.118   2.989   9.292
12895WAT     H238928   7.134   3.144   9.244
12896WAT      O38929   6.826   2.855   1.396
12896WAT     H138930   6.886   2.780   1.368
12896WAT     H238931   6.852   2.887   1.487
12897WAT      O38932   9.239   6.825   9.303
12897WAT     H138933   9.258   6.922   9.290
12897WAT     H238934   9.179   6.793   9.229
12898WAT      O38935   9.385   4.542   2.286
12898WAT     H138936   9.313   4.501   2.230
12898WAT     H238937   9.373   4.515   2.382
12899WAT      O38938   6.970   1.942   6.106
12899WAT     H138939   6.904   1.902   6.041
12899WAT     H238940   7.058   1.956   6.060
12900WAT      O38941   8.198   9.730   1.969
12900WAT     H138942   8.249   9.702   1.888
12900WAT     H238943   8.249   9.702   2.051
12901WAT      O38944   4.485   5.202   7.175
12901WAT     H138945   4.572   5.248   7.160
12901WAT     H238946   4.479   5.172   7.270
12902WAT      O38947   3.144   5.243   1.379
12902WAT     H138948   3.070   5.233   1.445
12902WAT     H238949   3.105   5.253   1.287
12903WAT      O38950   6.558   0.379   4.031
12903WAT     H138951   6.510   0.434   3.962
12903WAT     H238952   6.555   0.283   4.005
12904WAT      O38953   3.398   0.625   2.633
12904WAT     H138954   3.380   0.528   2.644
12904WAT     H238955   3.404   0.669   2.722
12905WAT      O38956   9.102   6.448   2.090
12905WAT     H138957   9.025   6.419   2.147
12905WAT     H238958   9.173   6.487   2.148
12906WAT      O38959   7.479   4.144   5.577
12906WAT     H138960   7.506   4.149   5.481
12906WAT     H238961   7.497   4.052   5.612
12907WAT      O38962   9.484   6.545   2.831
12907WAT     H138963   9.558   6.603   2.865
12907WAT     H238964   9.423   6.600   2.774
12908WAT      O38965   9.857   1.563   6.538
12908WAT     H138966   9.814   1.475   6.558
12908WAT     H238967   9.923   1.585   6.610
12909WAT      O38968   3.789   8.736   6.804
12909WAT     H138969   3.781   8.694   6.895
12909WAT     H238970   3.843   8.819   6.810
12910WAT      O38971   1.110   2.108   4.011
12910WAT     H138972   1.165   2.043   4.062
12910WAT     H238973   1.018   2.115   4.051
12911WAT      O38974   0.594   4.350   3.807
12911WAT     H138975   0.617   4.421   3.741
12911WAT     H238976   0.648   4.268   3.789
12912WAT      O38977   7.693   6.175   8.580
12912WAT     H138978   7.598   6.146   8.575
12912WAT     H238979   7.722   6.177   8.676
12913WAT      O38980   8.708   0.725   8.688
12913WAT     H138981   8.673   0.711   8.780
12913WAT     H238982   8.808   0.728   8.690
12914WAT      O38983   0.355   3.971   6.843
12914WAT     H138984   0.266   3.964   6.887
12914WAT     H238985   0.426   3.940   6.906
12915WAT      O38986   1.953   6.440   3.498
12915WAT     H138987   2.001   6.523   3.526
12915WAT     H238988   1.859   6.443   3.533
12916WAT      O38989   2.480   3.450   4.094
12916WAT     H138990   2.403   3.386   4.105
12916WAT     H238991   2.560   3.400   4.063
12917WAT      O38992   9.776   2.232   6.444
12917WAT     H138993   9.710   2.197   6.378
12917WAT     H238994   9.843   2.161   6.466
12918WAT      O38995   8.497   4.356   8.838
12918WAT     H138996   8.459   4.302   8.912
12918WAT     H238997   8.472   4.316   8.750
12919WAT      O38998   5.477   1.158   9.577
12919WAT     H138999   5.518   1.197   9.660
12919WAT     H239000   5.426   1.076   9.602
12920WAT      O39001   7.431   4.563   2.119
12920WAT     H139002   7.517   4.614   2.114
12920WAT     H239003   7.428   4.511   2.205
12921WAT      O39004   2.186   1.837   5.889
12921WAT     H139005   2.235   1.813   5.973
12921WAT     H239006   2.225   1.922   5.851
12922WAT      O39007   8.434   7.468   0.017
12922WAT     H139008   8.388   7.389  -0.024
12922WAT     H239009   8.404   7.478   0.112
12923WAT      O39010   0.853   6.192   0.152
12923WAT     H139011   0.764   6.237   0.149
12923WAT     H239012   0.871   6.149   0.064
12924WAT      O39013   4.979   1.878   4.392
12924WAT     H139014   4.961   1.840   4.301
12924WAT     H239015   4.908   1.847   4.455
12925WAT      O39016   3.652   5.350   0.968
12925WAT     H139017   3.708   5.268   0.979
12925WAT     H239018   3.646   5.398   1.055
12926WAT      O39019   8.560   6.020   0.082
12926WAT     H139020   8.618   6.058   0.154
12926WAT     H239021   8.613   5.954   0.028
12927WAT      O39022   5.989   0.252   0.068
12927WAT     H139023   5.931   0.207   0.001
12927WAT     H239024   5.958   0.346   0.083
12928WAT      O39025   6.378   1.323   6.558
12928WAT     H139026   6.358   1.260   6.482
12928WAT     H239027   6.388   1.416   6.522
12929WAT      O39028   8.029   9.027   4.429
12929WAT     H139029   8.109   9.068   4.384
12929WAT     H239030   8.019   8.933   4.399
12930WAT      O39031   1.029   7.879   2.869
12930WAT     H139032   0.958   7.934   2.914
12930WAT     H239033   1.024   7.892   2.770
12931WAT      O39034   7.810   3.488   4.981
12931WAT     H139035   7.799   3.470   5.078
12931WAT     H239036   7.764   3.417   4.927
12932WAT      O39037   2.836   6.987   3.341
12932WAT     H139038   2.855   7.018   3.248
12932WAT     H239039   2.868   6.893   3.352
12933WAT      O39040   5.621   2.214   7.323
12933WAT     H139041   5.682   2.188   7.249
12933WAT     H239042   5.594   2.132   7.374
12934WAT      O39043   6.672   0.410   3.058
12934WAT     H139044   6.728   0.472   3.112
12934WAT     H239045   6.729   0.341   3.015
12935WAT      O39046   8.596   0.596   0.752
12935WAT     H139047   8.512   0.560   0.793
12935WAT     H239048   8.635   0.666   0.812
12936WAT      O39049   3.552   6.037   3.413
12936WAT     H139050   3.513   6.129   3.409
12936WAT     H239051   3.581   6.010   3.321
12937WAT      O39052   4.821   6.749   4.498
12937WAT     H139053   4.867   6.747   4.587
12937WAT     H239054   4.758   6.672   4.491
12938WAT      O39055   5.902   2.043   6.869
12938WAT     H139056   5.832   2.114   6.882
12938WAT     H239057   5.858   1.959   6.836
12939WAT      O39058   6.924   0.430   3.681
12939WAT     H139059   6.921   0.464   3.775
12939WAT     H239060   6.941   0.506   3.618
12940WAT      O39061   9.224   7.272   0.435
12940WAT     H139062   9.136   7.252   0.392
12940WAT     H239063   9.287   7.196   0.419
12941WAT      O39064   5.567   8.693   2.257
12941WAT     H139065   5.651   8.739   2.286
12941WAT     H239066   5.556   8.702   2.158
12942WAT      O39067   2.651   1.024   5.722
12942WAT     H139068   2.577   1.036   5.657
12942WAT     H239069   2.739   1.034   5.675
12943WAT      O39070   2.972   8.890   6.765
12943WAT     H139071   3.025   8.966   6.801
12943WAT     H239072   2.944   8.910   6.671
12944WAT      O39073   7.184   5.678   9.269
12944WAT     H139074   7.110   5.703   9.332
12944WAT     H239075   7.201   5.580   9.275
12945WAT      O39076   1.837   6.922   9.220
12945WAT     H139077   1.749   6.936   9.177
12945WAT     H239078   1.909   6.962   9.163
12946WAT      O39079   0.124   0.847   7.902
12946WAT     H139080   0.165   0.799   7.980
12946WAT     H239081   0.036   0.806   7.881
12947WAT      O39082   8.893   8.334   7.958
12947WAT     H139083   8.826   8.334   8.033
12947WAT     H239084   8.963   8.402   7.977
12948WAT      O39085   8.745   4.787   1.794
12948WAT     H139086   8.645   4.783   1.796
12948WAT     H239087   8.775   4.833   1.710
12949WAT      O39088   5.062   3.612   8.926
12949WAT     H139089   5.029   3.634   9.018
12949WAT     H239090   5.047   3.515   8.907
12950WAT      O39091   6.902   3.522   2.522
12950WAT     H139092   6.822   3.529   2.463
12950WAT     H239093   6.908   3.429   2.559
12951WAT      O39094   3.656   3.127   8.907
12951WAT     H139095   3.559   3.131   8.930
12951WAT     H239096   3.704   3.070   8.974
12952WAT      O39097   1.343   2.856   6.471
12952WAT     H139098   1.429   2.826   6.428
12952WAT     H239099   1.266   2.814   6.423
12953WAT      O39100   0.250   5.111   8.837
12953WAT     H139101   0.170   5.079   8.785
12953WAT     H239102   0.219   5.172   8.910
12954WAT      O39103   7.266   2.516   1.191
12954WAT     H139104   7.273   2.577   1.112
12954WAT     H239105   7.243   2.569   1.273
12955WAT      O39106   6.543   7.381   5.951
12955WAT     H139107   6.453   7.364   5.911
12955WAT     H239108   6.587   7.294   5.971
12956WAT      O39109   4.713   5.605   6.332
12956WAT     H139110   4.613   5.606   6.326
12956WAT     H239111   4.750   5.688   6.290
12957WAT      O39112   5.950   7.266   6.294
12957WAT     H139113   5.919   7.333   6.227
12957WAT     H239114   5.878   7.252   6.362
12958WAT      O39115   7.860   0.769   4.143
12958WAT     H139116   7.867   0.672   4.167
12958WAT     H239117   7.801   0.816   4.209
12959WAT      O39118   7.841   6.189   5.310
12959WAT     H139119   7.910   6.151   5.372
12959WAT     H239120   7.774   6.240   5.362
12960WAT      O39121   8.151   7.079   5.853
12960WAT     H139122   8.191   7.086   5.945
12960WAT     H239123   8.058   7.114   5.855
12961WAT      O39124   5.072   6.437   4.279
12961WAT     H139125   5.124   6.403   4.200
12961WAT     H239126   5.077   6.537   4.281
12962WAT      O39127   5.967   0.560   2.247
12962WAT     H139128   5.869   0.543   2.253
12962WAT     H239129   5.984   0.642   2.192
12963WAT      O39130   9.340   0.828   0.976
12963WAT     H139131   9.300   0.870   1.058
12963WAT     H239132   9.312   0.732   0.971
12964WAT      O39133   2.352   6.213   3.884
12964WAT     H139134   2.261   6.253   3.902
12964WAT     H239135   2.385   6.245   3.796
12965WAT      O39136   1.169   1.431   8.602
12965WAT     H139137   1.246   1.461   8.658
12965WAT     H239138   1.201   1.365   8.534
12966WAT      O39139   4.528   4.666   7.522
12966WAT     H139140   4.571   4.636   7.608
12966WAT     H239141   4.443   4.615   7.509
12967WAT      O39142   8.524   1.963   2.060
12967WAT     H139143   8.602   1.900   2.052
12967WAT     H239144   8.520   2.022   1.980
12968WAT      O39145   6.030   7.293   3.894
12968WAT     H139146   6.058   7.365   3.958
12968WAT     H239147   6.069   7.312   3.804
12969WAT      O39148   0.754   4.356   9.659
12969WAT     H139149   0.840   4.319   9.625
12969WAT     H239150   0.708   4.407   9.586
12970WAT      O39151   6.878   7.834   8.889
12970WAT     H139152   6.796   7.877   8.928
12970WAT     H239153   6.850   7.760   8.828
12971WAT      O39154   9.666   9.442   1.996
12971WAT     H139155   9.582   9.394   2.021
12971WAT     H239156   9.739   9.376   1.982
12972WAT      O39157   7.876   2.955   7.087
12972WAT     H139158   7.974   2.941   7.097
12972WAT     H239159   7.831   2.866   7.072
12973WAT      O39160   5.079   1.422   7.278
12973WAT     H139161   5.107   1.460   7.190
12973WAT     H239162   4.983   1.394   7.273
12974WAT      O39163   4.649   2.224   7.455
12974WAT     H139164   4.636   2.230   7.554
12974WAT     H239165   4.737   2.182   7.436
12975WAT      O39166   1.765   0.843   2.477
12975WAT     H139167   1.825   0.922   2.462
12975WAT     H239168   1.819   0.759   2.477
12976WAT      O39169   1.275   7.443   3.693
12976WAT     H139170   1.356   7.394   3.661
12976WAT     H239171   1.269   7.435   3.792
12977WAT      O39172   3.369   1.399   5.296
12977WAT     H139173   3.444   1.452   5.258
12977WAT     H239174   3.395   1.303   5.301
12978WAT      O39175   6.744   8.112   3.682
12978WAT     H139176   6.780   8.039   3.740
12978WAT     H239177   6.693   8.071   3.606
12979WAT      O39178   1.990   1.477   6.634
12979WAT     H139179   2.007   1.457   6.731
12979WAT     H239180   1.980   1.575   6.622
12980WAT      O39181   0.150   7.821   7.971
12980WAT     H139182   0.057   7.784   7.981
12980WAT     H239183   0.216   7.747   7.983
12981WAT      O39184   1.646   4.935   8.866
12981WAT     H139185   1.593   4.889   8.938
12981WAT     H239186   1.590   4.943   8.783
12982WAT      O39187   4.833   6.699   1.654
12982WAT     H139188   4.843   6.797   1.673
12982WAT     H239189   4.777   6.687   1.572
12983WAT      O39190   5.373   8.895   9.137
12983WAT     H139191   5.457   8.923   9.090
12983WAT     H239192   5.396   8.850   9.223
12984WAT      O39193   1.185   1.717   0.317
12984WAT     H139194   1.168   1.803   0.367
12984WAT     H239195   1.283   1.699   0.315
12985WAT      O39196   8.054   3.033   2.136
12985WAT     H139197   8.095   3.124   2.123
12985WAT     H239198   7.976   3.022   2.075
12986WAT      O39199   8.723   8.907   8.130
12986WAT     H139200   8.781   8.978   8.170
12986WAT     H239201   8.675   8.858   8.203
12987WAT      O39202   7.357   2.795   7.908
12987WAT     H139203   7.455   2.797   7.926
12987WAT     H239204   7.314   2.879   7.943
12988WAT      O39205   8.424   2.406   0.072
12988WAT     H139206   8.431   2.306   0.073
12988WAT     H239207   8.407   2.439   0.165
12989WAT      O39208   6.154   4.941   8.841
12989WAT     H139209   6.081   4.923   8.774
12989WAT     H239210   6.170   4.858   8.895
12990WAT      O39211   8.655   7.792   5.197
12990WAT     H139212   8.652   7.835   5.288
12990WAT     H239213   8.568   7.746   5.179
12991WAT      O39214   3.568   1.667   3.711
12991WAT     H139215   3.488   1.706   3.666
12991WAT     H239216   3.600   1.587   3.660
12992WAT      O39217   5.607   1.910   7.858
12992WAT     H139218   5.619   1.991   7.915
12992WAT     H239219   5.662   1.918   7.775
12993WAT      O39220   0.057   5.915   4.971
12993WAT     H139221   0.120   5.846   5.010
12993WAT     H239222  -0.036   5.880   4.975
12994WAT      O39223   9.805   5.795   8.817
12994WAT     H139224   9.819   5.820   8.913
12994WAT     H239225   9.707   5.783   8.800
12995WAT      O39226   6.590   5.312   5.433
12995WAT     H139227   6.569   5.397   5.483
12995WAT     H239228   6.542   5.312   5.345
12996WAT      O39229   3.648   8.910   1.470
12996WAT     H139230   3.590   8.835   1.501
12996WAT     H239231   3.690   8.954   1.549
12997WAT      O39232   9.570   7.697   9.751
12997WAT     H139233   9.596   7.785   9.711
12997WAT     H239234   9.473   7.680   9.734
12998WAT      O39235   8.211   3.310   7.111
12998WAT     H139236   8.138   3.262   7.062
12998WAT     H239237   8.284   3.246   7.135
12999WAT      O39238   9.565   6.109   8.097
12999WAT     H139239   9.629   6.113   8.020
12999WAT     H239240   9.476   6.079   8.064
13000WAT      O39241   6.929   7.391   8.822
13000WAT     H139242   6.876   7.352   8.747
13000WAT     H239243   6.874   7.458   8.871
13001WAT      O39244   8.537   8.000   0.701
13001WAT     H139245   8.622   7.975   0.747
13001WAT     H239246   8.470   8.029   0.768
13002WAT      O39247   0.050   0.350   0.227
13002WAT     H139248   0.142   0.366   0.264
13002WAT     H239249   0.050   0.366   0.128
13003WAT      O39250   2.335   1.735   0.115
13003WAT     H139251   2.300   1.787   0.193
13003WAT     H239252   2.317   1.637   0.129
13004WAT      O39253   0.350   4.901   0.180
13004WAT     H139254   0.313   4.808   0.172
13004WAT     H239255   0.448   4.896   0.200
13005WAT      O39256   9.224   0.422   6.787
13005WAT     H139257   9.124   0.423   6.785
13005WAT     H239258   9.257   0.483   6.859
13006WAT      O39259   6.570   0.874   4.862
13006WAT     H139260   6.637   0.839   4.796
13006WAT     H239261   6.478   0.857   4.829
13007WAT      O39262   5.599   6.233   5.882
13007WAT     H139263   5.694   6.200   5.877
13007WAT     H239264   5.586   6.285   5.967
13008WAT      O39265   8.311   6.834   8.779
13008WAT     H139266   8.316   6.931   8.757
13008WAT     H239267   8.391   6.787   8.742
13009WAT      O39268   3.046   1.765   3.677
13009WAT     H139269   3.074   1.810   3.591
13009WAT     H239270   3.087   1.674   3.682
13010WAT      O39271   2.275   3.481   6.257
13010WAT     H139272   2.303   3.523   6.343
13010WAT     H239273   2.299   3.384   6.259
13011WAT      O39274   2.141   8.593   9.663
13011WAT     H139275   2.149   8.625   9.568
13011WAT     H239276   2.050   8.555   9.678
13012WAT      O39277   4.640   9.040   8.301
13012WAT     H139278   4.716   9.080   8.249
13012WAT     H239279   4.674   8.969   8.361
13013WAT      O39280   8.894   8.758   8.009
13013WAT     H139281   8.867   8.769   7.913
13013WAT     H239282   8.820   8.792   8.068
13014WAT      O39283   2.241   6.033   3.479
13014WAT     H139284   2.161   6.080   3.515
13014WAT     H239285   2.255   5.947   3.530
13015WAT      O39286   3.936   3.243   4.193
13015WAT     H139287   3.837   3.250   4.201
13015WAT     H239288   3.960   3.188   4.113
13016WAT      O39289   2.247   9.090   8.728
13016WAT     H139290   2.347   9.090   8.728
13016WAT     H239291   2.214   9.179   8.694
13017WAT      O39292   7.459   7.581   3.008
13017WAT     H139293   7.475   7.636   2.926
13017WAT     H239294   7.489   7.487   2.993
13018WAT      O39295   8.898   5.066   3.080
13018WAT     H139296   8.979   5.016   3.050
13018WAT     H239297   8.915   5.165   3.071
13019WAT      O39298   7.459   9.468   5.030
13019WAT     H139299   7.420   9.416   4.955
13019WAT     H239300   7.449   9.417   5.115
13020WAT      O39301   5.571   1.410   4.347
13020WAT     H139302   5.481   1.428   4.309
13020WAT     H239303   5.618   1.343   4.289
13021WAT      O39304   8.753   3.806   6.344
13021WAT     H139305   8.691   3.764   6.278
13021WAT     H239306   8.847   3.781   6.322
13022WAT      O39307   3.915   8.400   8.466
13022WAT     H139308   3.994   8.341   8.452
13022WAT     H239309   3.851   8.355   8.528
13023WAT      O39310   8.223   8.230   2.500
13023WAT     H139311   8.264   8.321   2.511
13023WAT     H239312   8.277   8.163   2.550
13024WAT      O39313   9.395   4.157   8.146
13024WAT     H139314   9.473   4.217   8.162
13024WAT     H239315   9.427   4.062   8.139
13025WAT      O39316   2.497   0.561   1.083
13025WAT     H139317   2.478   0.648   1.037
13025WAT     H239318   2.514   0.577   1.180
13026WAT      O39319   6.304   3.014   6.899
13026WAT     H139320   6.402   2.999   6.899
13026WAT     H239321   6.284   3.105   6.862
13027WAT      O39322   6.322   0.694   0.690
13027WAT     H139323   6.232   0.669   0.655
13027WAT     H239324   6.393   0.667   0.625
13028WAT      O39325   3.193   4.107   7.100
13028WAT     H139326   3.252   4.187   7.110
13028WAT     H239327   3.136   4.118   7.018
13029WAT      O39328   4.280   1.547   1.569
13029WAT     H139329   4.371   1.559   1.608
13029WAT     H239330   4.240   1.463   1.604
13030WAT      O39331   4.125   4.339   5.085
13030WAT     H139332   4.161   4.432   5.087
13030WAT     H239333   4.048   4.331   5.148
13031WAT      O39334   9.347   1.846   1.011
13031WAT     H139335   9.290   1.834   0.929
13031WAT     H239336   9.443   1.839   0.986
13032WAT      O39337   6.854   4.515   8.224
13032WAT     H139338   6.772   4.524   8.281
13032WAT     H239339   6.922   4.459   8.273
13033WAT      O39340   0.589   7.612   9.748
13033WAT     H139341   0.562   7.519   9.772
13033WAT     H239342   0.535   7.643   9.670
13034WAT      O39343   7.546   2.078   7.132
13034WAT     H139344   7.583   2.112   7.046
13034WAT     H239345   7.616   2.083   7.203
13035WAT      O39346   0.969   0.108   1.444
13035WAT     H139347   1.059   0.145   1.468
13035WAT     H239348   0.898   0.172   1.474
13036WAT      O39349   7.120   4.659   6.021
13036WAT     H139350   7.092   4.712   6.101
13036WAT     H239351   7.219   4.662   6.012
13037WAT      O39352   3.301   4.221   3.128
13037WAT     H139353   3.294   4.320   3.134
13037WAT     H239354   3.210   4.182   3.116
13038WAT      O39355   5.157   3.031   8.555
13038WAT     H139356   5.255   3.040   8.570
13038WAT     H239357   5.115   3.122   8.553
13039WAT      O39358   9.041   8.952   3.948
13039WAT     H139359   8.976   8.940   4.023
13039WAT     H239360   9.080   9.044   3.952
13040WAT      O39361   0.781   3.800   2.390
13040WAT     H139362   0.698   3.763   2.432
13040WAT     H239363   0.799   3.892   2.427
13041WAT      O39364   2.848   4.635   2.595
13041WAT     H139365   2.786   4.581   2.538
13041WAT     H239366   2.852   4.729   2.560
13042WAT      O39367   4.069   2.154   5.949
13042WAT     H139368   4.105   2.069   5.909
13042WAT     H239369   3.990   2.185   5.895
13043WAT      O39370   9.535   1.656   5.016
13043WAT     H139371   9.496   1.566   4.998
13043WAT     H239372   9.498   1.722   4.951
13044WAT      O39373   3.507   1.108   4.527
13044WAT     H139374   3.568   1.179   4.492
13044WAT     H239375   3.429   1.097   4.465
13045WAT      O39376   8.505   5.125   6.567
13045WAT     H139377   8.459   5.170   6.491
13045WAT     H239378   8.441   5.114   6.643
13046WAT      O39379   9.702   8.675   6.423
13046WAT     H139380   9.715   8.772   6.404
13046WAT     H239381   9.661   8.664   6.514
13047WAT      O39382   8.782   1.531   1.724
13047WAT     H139383   8.772   1.620   1.679
13047WAT     H239384   8.867   1.487   1.693
13048WAT      O39385   5.166   2.416   5.362
13048WAT     H139386   5.266   2.415   5.368
13048WAT     H239387   5.128   2.386   5.450
13049WAT      O39388   6.921   8.929   8.426
13049WAT     H139389   6.959   8.860   8.487
13049WAT     H239390   6.867   8.995   8.478
13050WAT      O39391   5.088   2.870   8.093
13050WAT     H139392   5.084   2.957   8.143
13050WAT     H239393   5.011   2.813   8.120
13051WAT      O39394   6.271   3.569   7.949
13051WAT     H139395   6.331   3.501   7.907
13051WAT     H239396   6.211   3.608   7.879
13052WAT      O39397   6.155   8.468   2.716
13052WAT     H139398   6.132   8.563   2.694
13052WAT     H239399   6.248   8.449   2.686
13053WAT      O39400   3.819   0.837   4.349
13053WAT     H139401   3.755   0.874   4.281
13053WAT     H239402   3.910   0.875   4.332
13054WAT      O39403   9.448   0.708   7.729
13054WAT     H139404   9.495   0.713   7.641
13054WAT     H239405   9.356   0.671   7.716
13055WAT      O39406   0.920   7.519   4.225
13055WAT     H139407   0.831   7.553   4.257
13055WAT     H239408   0.983   7.514   4.303
13056WAT      O39409   6.105   8.818   3.488
13056WAT     H139410   6.057   8.781   3.568
13056WAT     H239411   6.039   8.864   3.428
13057WAT      O39412   8.948   2.954   3.466
13057WAT     H139413   8.957   2.890   3.390
13057WAT     H239414   8.876   3.020   3.446
13058WAT      O39415   9.532   0.282   9.759
13058WAT     H139416   9.615   0.320   9.718
13058WAT     H239417   9.554   0.240   9.847
13059WAT      O39418   1.349   5.438   3.514
13059WAT     H139419   1.438   5.450   3.471
13059WAT     H239420   1.352   5.474   3.608
13060WAT      O39421   1.676   0.165   8.294
13060WAT     H139422   1.735   0.121   8.361
13060WAT     H239423   1.685   0.264   8.301
13061WAT      O39424   1.355   5.776   1.918
13061WAT     H139425   1.417   5.807   1.846
13061WAT     H239426   1.277   5.730   1.877
13062WAT      O39427   4.353   1.972   4.471
13062WAT     H139428   4.376   2.061   4.432
13062WAT     H239429   4.255   1.956   4.462
13063WAT      O39430   3.924   6.207   3.718
13063WAT     H139431   3.890   6.215   3.624
13063WAT     H239432   3.885   6.279   3.775
13064WAT      O39433   2.349   6.473   6.423
13064WAT     H139434   2.262   6.520   6.435
13064WAT     H239435   2.367   6.460   6.325
13065WAT      O39436   7.960   8.338   2.982
13065WAT     H139437   7.989   8.412   3.043
13065WAT     H239438   8.040   8.288   2.950
13066WAT      O39439   7.491   9.614   2.928
13066WAT     H139440   7.531   9.524   2.943
13066WAT     H239441   7.500   9.640   2.832
13067WAT      O39442   6.252   1.962   8.597
13067WAT     H139443   6.266   2.059   8.577
13067WAT     H239444   6.340   1.915   8.597
13068WAT      O39445   5.200   2.617   2.001
13068WAT     H139446   5.181   2.639   1.906
13068WAT     H239447   5.161   2.527   2.023
13069WAT      O39448   1.271   6.953   5.961
13069WAT     H139449   1.253   6.874   6.020
13069WAT     H239450   1.310   6.922   5.874
13070WAT      O39451   7.618   5.774   9.019
13070WAT     H139452   7.531   5.769   8.969
13070WAT     H239453   7.604   5.825   9.104
13071WAT      O39454   2.148   1.515   9.623
13071WAT     H139455   2.140   1.523   9.523
13071WAT     H239456   2.201   1.592   9.658
13072WAT      O39457   0.739   7.461   8.247
13072WAT     H139458   0.717   7.558   8.262
13072WAT     H239459   0.814   7.435   8.308
13073WAT      O39460   0.507   9.199   5.349
13073WAT     H139461   0.596   9.155   5.355
13073WAT     H239462   0.437   9.139   5.387
13074WAT      O39463   0.715   8.453   6.663
13074WAT     H139464   0.733   8.539   6.615
13074WAT     H239465   0.627   8.460   6.711
13075WAT      O39466   6.482   9.746   8.857
13075WAT     H139467   6.455   9.706   8.944
13075WAT     H239468   6.548   9.820   8.874
13076WAT      O39469   3.087   1.788   9.507
13076WAT     H139470   3.035   1.870   9.531
13076WAT     H239471   3.063   1.759   9.414
13077WAT      O39472   3.371   4.361   3.606
13077WAT     H139473   3.320   4.439   3.641
13077WAT     H239474   3.457   4.393   3.565
13078WAT      O39475   7.153   0.877   3.578
13078WAT     H139476   7.092   0.799   3.588
13078WAT     H239477   7.144   0.937   3.658
13079WAT      O39478   9.707   0.493   0.026
13079WAT     H139479   9.637   0.530   0.087
13079WAT     H239480   9.704   0.393   0.028
13080WAT      O39481   4.159   8.804   6.448
13080WAT     H139482   4.122   8.793   6.355
13080WAT     H239483   4.152   8.900   6.475
13081WAT      O39484   4.006   0.682   0.247
13081WAT     H139485   3.989   0.603   0.306
13081WAT     H239486   4.103   0.707   0.253
13082WAT      O39487   0.855   6.760   9.829
13082WAT     H139488   0.903   6.716   9.904
13082WAT     H239489   0.882   6.717   9.742
13083WAT      O39490   7.683   7.533   3.934
13083WAT     H139491   7.694   7.521   3.836
13083WAT     H239492   7.733   7.461   3.983
13084WAT      O39493   7.623   3.638   3.004
13084WAT     H139494   7.574   3.711   2.955
13084WAT     H239495   7.556   3.575   3.044
13085WAT      O39496   3.348   7.298   0.918
13085WAT     H139497   3.355   7.205   0.882
13085WAT     H239498   3.275   7.301   0.987
13086WAT      O39499   9.297   9.605   8.447
13086WAT     H139500   9.329   9.571   8.536
13086WAT     H239501   9.239   9.685   8.461
13087WAT      O39502   6.486   5.218   2.291
13087WAT     H139503   6.433   5.302   2.298
13087WAT     H239504   6.551   5.214   2.367
13088WAT      O39505   1.682   3.946   0.488
13088WAT     H139506   1.770   3.928   0.445
13088WAT     H239507   1.647   3.861   0.528
13089WAT      O39508   0.744   6.247   2.293
13089WAT     H139509   0.753   6.210   2.201
13089WAT     H239510   0.663   6.208   2.337
13090WAT      O39511   1.321   7.918   5.954
13090WAT     H139512   1.243   7.951   6.007
13090WAT     H239513   1.328   7.819   5.962
13091WAT      O39514   9.813   8.722   8.487
13091WAT     H139515   9.796   8.721   8.388
13091WAT     H239516   9.727   8.733   8.536
13092WAT      O39517   4.831   9.030   7.848
13092WAT     H139518   4.831   8.973   7.930
13092WAT     H239519   4.880   9.115   7.866
13093WAT      O39520   7.912   7.416   6.214
13093WAT     H139521   7.980   7.399   6.286
13093WAT     H239522   7.958   7.439   6.129
13094WAT      O39523   5.590   6.827   9.755
13094WAT     H139524   5.546   6.914   9.779
13094WAT     H239525   5.667   6.845   9.694
13095WAT      O39526   1.409   4.583   5.432
13095WAT     H139527   1.438   4.622   5.519
13095WAT     H239528   1.440   4.643   5.358
13096WAT      O39529   2.472   8.739   6.415
13096WAT     H139530   2.426   8.793   6.486
13096WAT     H239531   2.432   8.647   6.412
13097WAT      O39532   4.653   1.170   2.761
13097WAT     H139533   4.649   1.265   2.730
13097WAT     H239534   4.560   1.134   2.769
13098WAT      O39535   0.702   5.008   3.368
13098WAT     H139536   0.656   5.084   3.415
13098WAT     H239537   0.662   4.996   3.277
13099WAT      O39538   5.420   5.003   0.280
13099WAT     H139539   5.500   5.047   0.239
13099WAT     H239540   5.340   5.061   0.269
13100WAT      O39541   6.328   6.282   4.244
13100WAT     H139542   6.299   6.353   4.308
13100WAT     H239543   6.288   6.300   4.154
13101WAT      O39544   3.738   1.160   5.919
13101WAT     H139545   3.715   1.186   6.013
13101WAT     H239546   3.821   1.104   5.919
13102WAT      O39547   5.166   3.847   7.494
13102WAT     H139548   5.197   3.925   7.548
13102WAT     H239549   5.088   3.873   7.438
13103WAT      O39550   3.826   3.636   6.414
13103WAT     H139551   3.743   3.594   6.378
13103WAT     H239552   3.858   3.584   6.494
13104WAT      O39553   7.408   8.249   4.237
13104WAT     H139554   7.504   8.232   4.214
13104WAT     H239555   7.373   8.174   4.292
13105WAT      O39556   3.915   6.966   7.726
13105WAT     H139557   3.854   6.887   7.734
13105WAT     H239558   3.899   7.011   7.638
13106WAT      O39559   4.947   0.657   4.698
13106WAT     H139560   4.952   0.582   4.763
13106WAT     H239561   4.866   0.713   4.717
13107WAT      O39562   1.934   2.110   2.913
13107WAT     H139563   1.839   2.093   2.937
13107WAT     H239564   1.984   2.024   2.912
13108WAT      O39565   6.639   3.961   4.713
13108WAT     H139566   6.671   3.874   4.749
13108WAT     H239567   6.622   4.024   4.789
13109WAT      O39568   5.132   8.847   5.878
13109WAT     H139569   5.051   8.789   5.874
13109WAT     H239570   5.211   8.798   5.841
13110WAT      O39571   0.968   6.841   3.879
13110WAT     H139572   0.873   6.841   3.910
13110WAT     H239573   1.026   6.883   3.949
13111WAT      O39574   3.626   0.491   1.221
13111WAT     H139575   3.720   0.458   1.231
13111WAT     H239576   3.620   0.585   1.257
13112WAT      O39577   5.523   4.501   8.199
13112WAT     H139578   5.612   4.526   8.161
13112WAT     H239579   5.472   4.583   8.224
13113WAT      O39580   8.168   7.804   1.712
13113WAT     H139581   8.206   7.873   1.773
13113WAT     H239582   8.109   7.848   1.645
13114WAT      O39583   0.539   9.758   2.832
13114WAT     H139584   0.487   9.825   2.885
13114WAT     H239585   0.516   9.666   2.863
13115WAT      O39586   4.764   0.173   0.677
13115WAT     H139587   4.705   0.169   0.596
13115WAT     H239588   4.781   0.269   0.701
13116WAT      O39589   6.854   5.886   0.057
13116WAT     H139590   6.864   5.848   0.149
13116WAT     H239591   6.758   5.889   0.031
13117WAT      O39592   1.758   8.777   1.615
13117WAT     H139593   1.659   8.782   1.609
13117WAT     H239594   1.791   8.835   1.689
13118WAT      O39595   4.293   0.181   9.405
13118WAT     H139596   4.225   0.145   9.468
13118WAT     H239597   4.246   0.231   9.331
13119WAT      O39598   2.741   2.709   2.951
13119WAT     H139599   2.713   2.628   2.900
13119WAT     H239600   2.834   2.698   2.984
13120WAT      O39601   9.108   4.099   2.812
13120WAT     H139602   9.191   4.118   2.864
13120WAT     H239603   9.112   4.006   2.775
13121WAT      O39604   1.068   5.584   5.239
13121WAT     H139605   1.083   5.486   5.231
13121WAT     H239606   1.156   5.631   5.243
13122WAT      O39607   7.737   0.335   1.288
13122WAT     H139608   7.765   0.278   1.210
13122WAT     H239609   7.723   0.429   1.256
13123WAT      O39610   5.132   9.786   3.789
13123WAT     H139611   5.172   9.838   3.865
13123WAT     H239612   5.185   9.802   3.706
13124WAT      O39613   8.037   6.992   1.521
13124WAT     H139614   8.069   7.063   1.583
13124WAT     H239615   8.063   6.903   1.556
13125WAT      O39616   2.700   6.139   8.059
13125WAT     H139617   2.627   6.134   8.128
13125WAT     H239618   2.773   6.075   8.083
13126WAT      O39619   1.104   0.212   4.059
13126WAT     H139620   1.094   0.113   4.050
13126WAT     H239621   1.148   0.234   4.147
13127WAT      O39622   9.661   1.095   4.300
13127WAT     H139623   9.574   1.104   4.350
13127WAT     H239624   9.682   0.999   4.288
13128WAT      O39625   5.194   9.033   6.738
13128WAT     H139626   5.156   8.951   6.780
13128WAT     H239627   5.127   9.108   6.746
13129WAT      O39628   0.131   8.924   2.592
13129WAT     H139629   0.119   9.004   2.534
13129WAT     H239630   0.171   8.849   2.538
13130WAT      O39631   5.471   1.480   2.648
13130WAT     H139632   5.433   1.559   2.696
13130WAT     H239633   5.566   1.466   2.679
13131WAT      O39634   3.073   8.431   8.851
13131WAT     H139635   2.986   8.471   8.880
13131WAT     H239636   3.147   8.466   8.909
13132WAT      O39637   0.094   3.946   5.134
13132WAT     H139638   0.170   3.895   5.093
13132WAT     H239639   0.089   4.037   5.093
13133WAT      O39640   0.812   6.076   2.070
13133WAT     H139641   0.731   6.059   2.014
13133WAT     H239642   0.840   5.991   2.114
13134WAT      O39643   2.392   2.204   1.629
13134WAT     H139644   2.459   2.146   1.675
13134WAT     H239645   2.339   2.149   1.565
13135WAT      O39646   9.642   3.556   4.061
13135WAT     H139647   9.611   3.484   3.998
13135WAT     H239648   9.562   3.601   4.102
13136WAT      O39649   6.540   7.690   2.456
13136WAT     H139650   6.469   7.632   2.496
13136WAT     H239651   6.552   7.666   2.360
13137WAT      O39652   3.395   2.291   7.356
13137WAT     H139653   3.417   2.388   7.364
13137WAT     H239654   3.307   2.281   7.309
13138WAT      O39655   9.670   4.203   0.606
13138WAT     H139656   9.584   4.241   0.571
13138WAT     H239657   9.716   4.151   0.534
13139WAT      O39658   4.451   0.021   3.613
13139WAT     H139659   4.381   0.060   3.553
13139WAT     H239660   4.408  -0.042   3.678
13140WAT      O39661   1.827   5.293   5.562
13140WAT     H139662   1.881   5.364   5.607
13140WAT     H239663   1.842   5.297   5.463
13141WAT      O39664   8.923   8.278   4.560
13141WAT     H139665   8.867   8.195   4.552
13141WAT     H239666   8.864   8.357   4.572
13142WAT      O39667   2.870   7.458   3.370
13142WAT     H139668   2.821   7.534   3.326
13142WAT     H239669   2.964   7.485   3.389
13143WAT      O39670   9.669   6.301   2.269
13143WAT     H139671   9.612   6.370   2.224
13143WAT     H239672   9.664   6.313   2.368
13144WAT      O39673   2.891   6.302   5.189
13144WAT     H139674   2.799   6.265   5.204
13144WAT     H239675   2.957   6.227   5.192
13145WAT      O39676   7.503   7.539   2.249
13145WAT     H139677   7.508   7.599   2.328
13145WAT     H239678   7.514   7.593   2.165
13146WAT      O39679   7.096   0.155   9.841
13146WAT     H139680   7.074   0.251   9.858
13146WAT     H239681   7.015   0.099   9.862
13147WAT      O39682   3.695   7.612   5.063
13147WAT     H139683   3.651   7.685   5.116
13147WAT     H239684   3.658   7.524   5.091
13148WAT      O39685   1.609   9.826   0.078
13148WAT     H139686   1.663   9.743   0.064
13148WAT     H239687   1.560   9.849  -0.006
13149WAT      O39688   2.706   4.535   2.406
13149WAT     H139689   2.780   4.468   2.406
13149WAT     H239690   2.619   4.489   2.385
13150WAT      O39691   3.557   1.246   0.856
13150WAT     H139692   3.543   1.321   0.922
13150WAT     H239693   3.558   1.159   0.904
13151WAT      O39694   8.863   4.115   7.267
13151WAT     H139695   8.804   4.063   7.206
13151WAT     H239696   8.945   4.145   7.217
13152WAT      O39697   5.066   6.067   0.492
13152WAT     H139698   5.124   5.987   0.509
13152WAT     H239699   4.999   6.075   0.566
13153WAT      O39700   7.998   5.523   6.243
13153WAT     H139701   8.090   5.510   6.206
13153WAT     H239702   7.935   5.543   6.168
13154WAT      O39703   1.322   9.540   2.005
13154WAT     H139704   1.254   9.612   1.989
13154WAT     H239705   1.299   9.490   2.089
13155WAT      O39706   7.414   4.488   4.352
13155WAT     H139707   7.321   4.453   4.359
13155WAT     H239708   7.416   4.582   4.384
13156WAT      O39709   6.245   6.141   7.780
13156WAT     H139710   6.146   6.142   7.796
13156WAT     H239711   6.269   6.212   7.715
13157WAT      O39712   1.130   9.724   1.935
13157WAT     H139713   1.087   9.713   1.845
13157WAT     H239714   1.059   9.737   2.005
13158WAT      O39715   6.015   6.513   4.554
13158WAT     H139716   5.952   6.533   4.479
13158WAT     H239717   5.980   6.555   4.638
13159WAT      O39718   0.749   9.060   8.819
13159WAT     H139719   0.833   9.006   8.817
13159WAT     H239720   0.766   9.149   8.860
13160WAT      O39721   6.759   9.233   2.024
13160WAT     H139722   6.729   9.311   2.079
13160WAT     H239723   6.693   9.216   1.951
13161WAT      O39724   3.146   9.246   3.296
13161WAT     H139725   3.095   9.232   3.380
13161WAT     H239726   3.244   9.233   3.313
13162WAT      O39727   6.490   1.098   8.110
13162WAT     H139728   6.492   0.998   8.106
13162WAT     H239729   6.405   1.131   8.069
13163WAT      O39730   5.733   8.793   0.845
13163WAT     H139731   5.717   8.735   0.765
13163WAT     H239732   5.646   8.812   0.890
13164WAT      O39733   9.694   3.158   7.983
13164WAT     H139734   9.684   3.245   7.933
13164WAT     H239735   9.719   3.177   8.078
13165WAT      O39736   3.807   5.009   3.569
13165WAT     H139737   3.727   4.963   3.606
13165WAT     H239738   3.890   4.959   3.594
13166WAT      O39739   9.091   6.006   0.194
13166WAT     H139740   9.082   6.056   0.107
13166WAT     H239741   9.115   5.911   0.174
13167WAT      O39742   0.973   0.624   2.848
13167WAT     H139743   1.066   0.619   2.811
13167WAT     H239744   0.948   0.719   2.863
13168WAT      O39745   1.787   7.533   1.530
13168WAT     H139746   1.740   7.446   1.543
13168WAT     H239747   1.778   7.560   1.434
13169WAT      O39748   8.584   2.118   1.009
13169WAT     H139749   8.661   2.133   1.071
13169WAT     H239750   8.500   2.149   1.053
13170WAT      O39751   7.146   3.318   2.435
13170WAT     H139752   7.165   3.341   2.531
13170WAT     H239753   7.060   3.267   2.430
13171WAT      O39754   8.477   5.134   9.666
13171WAT     H139755   8.427   5.126   9.752
13171WAT     H239756   8.482   5.044   9.621
13172WAT      O39757   1.175   2.976   5.321
13172WAT     H139758   1.233   2.998   5.242
13172WAT     H239759   1.122   3.056   5.347
13173WAT      O39760   3.248   5.954   1.952
13173WAT     H139761   3.207   5.865   1.934
13173WAT     H239762   3.201   5.996   2.030
13174WAT      O39763   9.176   8.039   7.245
13174WAT     H139764   9.154   7.951   7.202
13174WAT     H239765   9.149   8.114   7.184
13175WAT      O39766   7.610   5.902   9.264
13175WAT     H139767   7.588   5.998   9.245
13175WAT     H239768   7.544   5.866   9.331
13176WAT      O39769   5.321   6.765   0.634
13176WAT     H139770   5.421   6.766   0.637
13176WAT     H239771   5.286   6.858   0.646
13177WAT      O39772   8.034   8.993   4.967
13177WAT     H139773   8.045   9.077   5.020
13177WAT     H239774   8.044   9.014   4.870
13178WAT      O39775   5.877   1.027   2.472
13178WAT     H139776   5.836   0.942   2.505
13178WAT     H239777   5.806   1.097   2.464
13179WAT      O39778   7.976   3.460   3.126
13179WAT     H139779   8.070   3.459   3.092
13179WAT     H239780   7.968   3.394   3.201
13180WAT      O39781   3.250   8.668   2.977
13180WAT     H139782   3.210   8.726   2.906
13180WAT     H239783   3.179   8.644   3.044
13181WAT      O39784   1.941   7.881   6.162
13181WAT     H139785   1.994   7.923   6.089
13181WAT     H239786   2.001   7.825   6.220
13182WAT      O39787   4.521   5.010   2.019
13182WAT     H139788   4.517   4.915   1.987
13182WAT     H239789   4.457   5.021   2.095
13183WAT      O39790   8.328   9.408   5.639
13183WAT     H139791   8.308   9.506   5.633
13183WAT     H239792   8.427   9.395   5.646
13184WAT      O39793   2.799   5.421   5.610
13184WAT     H139794   2.815   5.430   5.709
13184WAT     H239795   2.858   5.487   5.562
13185WAT      O39796   9.608   5.349   7.257
13185WAT     H139797   9.647   5.262   7.289
13185WAT     H239798   9.678   5.420   7.259
13186WAT      O39799   9.719   3.564   7.187
13186WAT     H139800   9.752   3.515   7.268
13186WAT     H239801   9.757   3.521   7.105
13187WAT      O39802   4.956   2.364   9.360
13187WAT     H139803   4.919   2.294   9.299
13187WAT     H239804   5.026   2.417   9.310
13188WAT      O39805   8.482   0.479   8.078
13188WAT     H139806   8.473   0.574   8.108
13188WAT     H239807   8.576   0.448   8.094
13189WAT      O39808   4.014   7.498   5.039
13189WAT     H139809   3.926   7.545   5.036
13189WAT     H239810   4.052   7.494   4.946
13190WAT      O39811   3.873   2.632   4.222
13190WAT     H139812   3.801   2.569   4.193
13190WAT     H239813   3.851   2.725   4.192
13191WAT      O39814   3.343   5.525   1.779
13191WAT     H139815   3.406   5.578   1.721
13191WAT     H239816   3.383   5.436   1.798
13192WAT      O39817   3.496   1.218   8.092
13192WAT     H139818   3.547   1.205   8.007
13192WAT     H239819   3.545   1.174   8.168
13193WAT      O39820   8.051   8.516   3.138
13193WAT     H139821   8.105   8.585   3.090
13193WAT     H239822   8.010   8.556   3.220
13194WAT      O39823   8.281   9.562   4.266
13194WAT     H139824   8.346   9.637   4.255
13194WAT     H239825   8.325   9.476   4.240
13195WAT      O39826   0.584   0.976   5.736
13195WAT     H139827   0.524   0.956   5.658
13195WAT     H239828   0.670   1.015   5.702
13196WAT      O39829   0.755   6.398   0.861
13196WAT     H139830   0.664   6.409   0.902
13196WAT     H239831   0.817   6.467   0.899
13197WAT      O39832   7.851   0.598   9.825
13197WAT     H139833   7.917   0.664   9.862
13197WAT     H239834   7.826   0.625   9.732
13198WAT      O39835   2.275   0.070   4.516
13198WAT     H139836   2.281   0.129   4.597
13198WAT     H239837   2.200   0.006   4.526
13199WAT      O39838   4.092   8.036   6.764
13199WAT     H139839   4.080   7.944   6.803
13199WAT     H239840   4.005   8.086   6.771
13200WAT      O39841   8.972   5.806   6.663
13200WAT     H139842   9.032   5.727   6.657
13200WAT     H239843   9.027   5.889   6.676
13201WAT      O39844   5.865   0.689   4.070
13201WAT     H139845   5.918   0.626   4.014
13201WAT     H239846   5.767   0.669   4.059
13202WAT      O39847   0.031   2.877   6.852
13202WAT     H139848   0.046   2.783   6.884
13202WAT     H239849   0.114   2.931   6.865
13203WAT      O39850   5.209   5.125   5.940
13203WAT     H139851   5.182   5.091   6.030
13203WAT     H239852   5.298   5.087   5.916
13204WAT      O39853   5.738   6.657   3.567
13204WAT     H139854   5.695   6.724   3.627
13204WAT     H239855   5.700   6.567   3.586
13205WAT      O39856   3.509   1.429   5.581
13205WAT     H139857   3.484   1.525   5.578
13205WAT     H239858   3.529   1.396   5.489
13206WAT      O39859   4.694   0.688   9.051
13206WAT     H139860   4.641   0.763   9.091
13206WAT     H239861   4.649   0.601   9.071
13207WAT      O39862   7.709   5.761   4.360
13207WAT     H139863   7.637   5.702   4.325
13207WAT     H239864   7.732   5.831   4.291
13208WAT      O39865   6.293   6.871   9.028
13208WAT     H139866   6.323   6.776   9.018
13208WAT     H239867   6.300   6.898   9.124
13209WAT      O39868   4.785   3.127   8.901
13209WAT     H139869   4.798   3.076   8.816
13209WAT     H239870   4.846   3.091   8.971
13210WAT      O39871   2.960   0.541   0.970
13210WAT     H139872   3.028   0.478   0.934
13210WAT     H239873   2.887   0.489   1.014
13211WAT      O39874   4.256   8.652   4.873
13211WAT     H139875   4.201   8.568   4.877
13211WAT     H239876   4.280   8.673   4.779
13212WAT      O39877   7.600   5.126   7.337
13212WAT     H139878   7.639   5.034   7.342
13212WAT     H239879   7.653   5.182   7.273
13213WAT      O39880   4.450   6.511   8.587
13213WAT     H139881   4.492   6.546   8.670
13213WAT     H239882   4.485   6.561   8.508
13214WAT      O39883   7.156   7.993   0.993
13214WAT     H139884   7.219   7.964   0.921
13214WAT     H239885   7.191   7.967   1.082
13215WAT      O39886   0.425   1.345   9.441
13215WAT     H139887   0.442   1.369   9.345
13215WAT     H239888   0.345   1.285   9.446
13216WAT      O39889   9.040   8.845   1.030
13216WAT     H139890   9.130   8.885   1.045
13216WAT     H239891   9.022   8.838   0.932
13217WAT      O39892   1.167   8.634   3.829
13217WAT     H139893   1.158   8.536   3.818
13217WAT     H239894   1.076   8.677   3.828
13218WAT      O39895   0.910   8.441   1.179
13218WAT     H139896   0.915   8.377   1.102
13218WAT     H239897   0.936   8.533   1.148
13219WAT      O39898   7.744   9.582   6.535
13219WAT     H139899   7.803   9.522   6.480
13219WAT     H239900   7.797   9.661   6.566
13220WAT      O39901   6.085   1.715   7.270
13220WAT     H139902   6.133   1.733   7.185
13220WAT     H239903   6.003   1.661   7.252
13221WAT      O39904   5.306   1.440   6.591
13221WAT     H139905   5.335   1.356   6.637
13221WAT     H239906   5.370   1.462   6.518
13222WAT      O39907   1.672   2.673   0.703
13222WAT     H139908   1.712   2.587   0.737
13222WAT     H239909   1.576   2.676   0.729
13223WAT      O39910   8.698   2.141   0.265
13223WAT     H139911   8.674   2.117   0.171
13223WAT     H239912   8.627   2.200   0.303
13224WAT      O39913   1.977   6.244   8.624
13224WAT     H139914   1.897   6.223   8.567
13224WAT     H239915   1.948   6.302   8.700
13225WAT      O39916   4.599   7.257   9.512
13225WAT     H139917   4.517   7.211   9.478
13225WAT     H239918   4.670   7.255   9.441
13226WAT      O39919   1.517   0.283   5.782
13226WAT     H139920   1.603   0.309   5.738
13226WAT     H239921   1.454   0.248   5.713
13227WAT      O39922   6.747   7.619   2.063
13227WAT     H139923   6.817   7.588   2.127
13227WAT     H239924   6.790   7.643   1.975
13228WAT      O39925   0.541   6.873   8.923
13228WAT     H139926   0.504   6.948   8.978
13228WAT     H239927   0.483   6.859   8.843
13229WAT      O39928   8.685   4.070   0.183
13229WAT     H139929   8.757   4.098   0.247
13229WAT     H239930   8.625   4.005   0.228
13230WAT      O39931   5.026   4.515   7.494
13230WAT     H139932   5.099   4.563   7.542
13230WAT     H239933   4.937   4.540   7.534
13231WAT      O39934   2.980   1.169   2.763
13231WAT     H139935   3.007   1.115   2.843
13231WAT     H239936   2.931   1.111   2.699
13232WAT      O39937   4.091   2.347   2.385
13232WAT     H139938   4.111   2.250   2.370
13232WAT     H239939   4.058   2.361   2.478
13233WAT      O39940   6.269   5.646   0.001
13233WAT     H139941   6.205   5.587   0.050
13233WAT     H239942   6.266   5.738   0.041
13234WAT      O39943   4.082   9.489   6.870
13234WAT     H139944   4.001   9.533   6.833
13234WAT     H239945   4.127   9.551   6.935
13235WAT      O39946   9.563   3.160   1.690
13235WAT     H139947   9.592   3.065   1.678
13235WAT     H239948   9.493   3.165   1.762
13236WAT      O39949   0.540   9.612   1.544
13236WAT     H139950   0.564   9.555   1.465
13236WAT     H239951   0.546   9.557   1.628
13237WAT      O39952   7.007   2.980   6.551
13237WAT     H139953   7.041   3.011   6.462
13237WAT     H239954   6.958   2.893   6.539
13238WAT      O39955   7.176   2.342   2.364
13238WAT     H139956   7.273   2.324   2.381
13238WAT     H239957   7.136   2.387   2.444
13239WAT      O39958   5.790   1.352   3.378
13239WAT     H139959   5.801   1.446   3.344
13239WAT     H239960   5.838   1.342   3.465
13240WAT      O39961   0.249   6.834   6.365
13240WAT     H139962   0.303   6.916   6.381
13240WAT     H239963   0.301   6.770   6.310
13241WAT      O39964   0.249   8.661   3.051
13241WAT     H139965   0.315   8.727   3.016
13241WAT     H239966   0.268   8.571   3.010
13242WAT      O39967   0.910   1.870   2.735
13242WAT     H139968   0.934   1.774   2.750
13242WAT     H239969   0.836   1.875   2.668
13243WAT      O39970   8.404   0.430   2.313
13243WAT     H139971   8.480   0.441   2.250
13243WAT     H239972   8.343   0.510   2.307
13244WAT      O39973   1.883   4.434   9.691
13244WAT     H139974   1.879   4.456   9.594
13244WAT     H239975   1.941   4.353   9.704
13245WAT      O39976   2.303   6.538   9.834
13245WAT     H139977   2.292   6.498   9.925
13245WAT     H239978   2.390   6.510   9.795
13246WAT      O39979   8.473   4.039   4.526
13246WAT     H139980   8.467   3.940   4.542
13246WAT     H239981   8.564   4.061   4.491
13247WAT      O39982   4.562   1.712   0.502
13247WAT     H139983   4.575   1.617   0.474
13247WAT     H239984   4.631   1.736   0.570
13248WAT      O39985   3.591   5.425   4.955
13248WAT     H139986   3.652   5.469   4.889
13248WAT     H239987   3.647   5.380   5.026
13249WAT      O39988   5.842   6.014   7.182
13249WAT     H139989   5.800   5.987   7.268
13249WAT     H239990   5.897   6.096   7.196
13250WAT      O39991   4.629   8.316   0.959
13250WAT     H139992   4.700   8.381   0.986
13250WAT     H239993   4.630   8.238   1.021
13251WAT      O39994   0.289   9.606   3.282
13251WAT     H139995   0.298   9.586   3.380
13251WAT     H239996   0.299   9.521   3.230
13252WAT      O39997   5.492   4.702   1.265
13252WAT     H139998   5.433   4.754   1.327
13252WAT     H239999   5.521   4.762   1.189
13253WAT      O40000   8.792   3.967   8.650
13253WAT     H140001   8.752   3.884   8.690
13253WAT     H240002   8.726   4.008   8.586
13254WAT      O40003   9.341   9.828   2.598
13254WAT     H140004   9.390   9.748   2.564
13254WAT     H240005   9.310   9.811   2.691
13255WAT      O40006   2.459   1.648   6.552
13255WAT     H140007   2.367   1.669   6.585
13255WAT     H240008   2.527   1.688   6.614
13256WAT      O40009   2.782   4.776   5.255
13256WAT     H140010   2.788   4.705   5.325
13256WAT     H240011   2.853   4.761   5.186
13257WAT      O40012   5.297   9.838   3.567
13257WAT     H140013   5.396   9.836   3.552
13257WAT     H240014   5.255   9.900   3.501
13258WAT      O40015   3.569   2.056   0.564
13258WAT     H140016   3.590   2.043   0.467
13258WAT     H240017   3.541   1.969   0.605
13259WAT      O40018   3.101   9.694   6.473
13259WAT     H140019   3.013   9.742   6.469
13259WAT     H240020   3.094   9.607   6.423
13260WAT      O40021   0.066   5.669   3.079
13260WAT     H140022   0.085   5.590   3.138
13260WAT     H240023  -0.019   5.653   3.029
13261WAT      O40024   0.373   3.784   8.654
13261WAT     H140025   0.315   3.827   8.723
13261WAT     H240026   0.377   3.685   8.670
13262WAT      O40027   8.987   8.895   9.494
13262WAT     H140028   8.947   8.986   9.501
13262WAT     H240029   9.062   8.885   9.560
13263WAT      O40030   4.211   5.601   3.518
13263WAT     H140031   4.161   5.515   3.519
13263WAT     H240032   4.303   5.587   3.555
13264WAT      O40033   0.948   2.964   1.926
13264WAT     H140034   0.852   2.979   1.946
13264WAT     H240035   0.987   3.047   1.885
13265WAT      O40036   8.259   4.369   6.765
13265WAT     H140037   8.277   4.466   6.748
13265WAT     H240038   8.294   4.315   6.689
13266WAT      O40039   9.667   4.917   6.264
13266WAT     H140040   9.762   4.928   6.233
13266WAT     H240041   9.635   4.826   6.240
13267WAT      O40042   9.420   4.188   6.904
13267WAT     H140043   9.388   4.267   6.957
13267WAT     H240044   9.342   4.133   6.875
13268WAT      O40045   2.094   0.934   8.337
13268WAT     H140046   2.065   1.029   8.331
13268WAT     H240047   2.031   0.876   8.285
13269WAT      O40048   7.467   4.736   7.527
13269WAT     H140049   7.371   4.761   7.540
13269WAT     H240050   7.490   4.661   7.589
13270WAT      O40051   1.823   6.795   1.645
13270WAT     H140052   1.909   6.744   1.646
13270WAT     H240053   1.771   6.776   1.728
13271WAT      O40054   4.521   6.701   6.508
13271WAT     H140055   4.590   6.671   6.442
13271WAT     H240056   4.494   6.624   6.566
13272WAT      O40057   7.835   6.426   0.650
13272WAT     H140058   7.759   6.427   0.715
13272WAT     H240059   7.820   6.355   0.582
13273WAT      O40060   1.356   2.434   9.516
13273WAT     H140061   1.380   2.342   9.485
13273WAT     H240062   1.317   2.485   9.439
13274WAT      O40063   5.973   8.350   9.858
13274WAT     H140064   5.923   8.277   9.813
13274WAT     H240065   5.966   8.340   9.957
13275WAT      O40066   0.348   3.301   4.619
13275WAT     H140067   0.274   3.267   4.561
13275WAT     H240068   0.362   3.398   4.601
13276WAT      O40069   9.637   9.262   0.059
13276WAT     H140070   9.660   9.178   0.009
13276WAT     H240071   9.539   9.278   0.055
13277WAT      O40072   6.130   1.140   4.940
13277WAT     H140073   6.094   1.219   4.989
13277WAT     H240074   6.056   1.092   4.894
13278WAT      O40075   6.193   4.141   0.972
13278WAT     H140076   6.134   4.060   0.976
13278WAT     H240077   6.252   4.135   0.891
13279WAT      O40078   6.643   4.010   7.004
13279WAT     H140079   6.551   4.036   6.976
13279WAT     H240080   6.710   4.052   6.943
13280WAT      O40081   8.081   8.947   2.721
13280WAT     H140082   8.066   9.007   2.643
13280WAT     H240083   8.109   8.857   2.689
13281WAT      O40084   7.475   0.759   2.744
13281WAT     H140085   7.435   0.673   2.713
13281WAT     H240086   7.499   0.815   2.665
13282WAT      O40087   3.769   5.422   2.155
13282WAT     H140088   3.758   5.464   2.245
13282WAT     H240089   3.764   5.322   2.164
13283WAT      O40090   7.320   7.049   0.387
13283WAT     H140091   7.357   7.141   0.374
13283WAT     H240092   7.351   6.989   0.313
13284WAT      O40093   5.693   1.521   6.919
13284WAT     H140094   5.714   1.619   6.920
13284WAT     H240095   5.675   1.492   6.825
13285WAT      O40096   8.458   5.404   9.121
13285WAT     H140097   8.541   5.352   9.143
13285WAT     H240098   8.464   5.495   9.162
13286WAT      O40099   2.119   1.599   3.568
13286WAT     H140100   2.215   1.602   3.596
13286WAT     H240101   2.105   1.523   3.504
13287WAT      O40102   1.802   3.341   2.834
13287WAT     H140103   1.745   3.413   2.873
13287WAT     H240104   1.840   3.372   2.747
13288WAT      O40105   1.192   9.122   1.777
13288WAT     H140106   1.256   9.198   1.782
13288WAT     H240107   1.142   9.113   1.864
13289WAT      O40108   3.596   8.273   7.300
13289WAT     H140109   3.591   8.355   7.357
13289WAT     H240110   3.618   8.194   7.357
13290WAT      O40111   7.708   4.045   0.431
13290WAT     H140112   7.682   4.136   0.466
13290WAT     H240113   7.727   3.985   0.508
13291WAT      O40114   1.543   2.321   5.060
13291WAT     H140115   1.608   2.391   5.088
13291WAT     H240116   1.586   2.261   4.991
13292WAT      O40117   2.054   6.939   0.393
13292WAT     H140118   1.964   6.900   0.372
13292WAT     H240119   2.067   7.022   0.338
13293WAT      O40120   8.288   4.215   1.345
13293WAT     H140121   8.245   4.200   1.256
13293WAT     H240122   8.263   4.141   1.408
13294WAT      O40123   1.790   7.260   4.323
13294WAT     H140124   1.728   7.334   4.349
13294WAT     H240125   1.829   7.279   4.233
13295WAT      O40126   2.062   2.314   2.433
13295WAT     H140127   2.027   2.311   2.526
13295WAT     H240128   2.059   2.222   2.393
13296WAT      O40129   3.934   6.919   4.856
13296WAT     H140130   3.854   6.917   4.797
13296WAT     H240131   4.009   6.967   4.809
13297WAT      O40132   3.367   8.605   8.263
13297WAT     H140133   3.335   8.693   8.299
13297WAT     H240134   3.329   8.591   8.172
13298WAT      O40135   3.292   3.495   3.961
13298WAT     H140136   3.234   3.504   4.042
13298WAT     H240137   3.388   3.507   3.987
13299WAT      O40138   3.361   1.106   0.505
13299WAT     H140139   3.272   1.127   0.545
13299WAT     H240140   3.414   1.051   0.570
13300WAT      O40141   7.763   3.096   4.432
13300WAT     H140142   7.848   3.106   4.484
13300WAT     H240143   7.738   3.185   4.392
13301WAT      O40144   3.701   8.038   4.430
13301WAT     H140145   3.770   8.019   4.500
13301WAT     H240146   3.677   7.953   4.384
13302WAT      O40147   0.714   4.300   6.931
13302WAT     H140148   0.678   4.236   6.863
13302WAT     H240149   0.698   4.263   7.023
13303WAT      O40150   1.277   0.749   0.972
13303WAT     H140151   1.358   0.693   0.954
13303WAT     H240152   1.195   0.693   0.958
13304WAT      O40153   0.035   1.486   9.436
13304WAT     H140154  -0.055   1.441   9.437
13304WAT     H240155   0.097   1.437   9.498
13305WAT      O40156   2.095   8.778   5.070
13305WAT     H140157   2.165   8.849   5.076
13305WAT     H240158   2.012   8.818   5.030
13306WAT      O40159   6.078   4.444   2.151
13306WAT     H140160   6.086   4.423   2.053
13306WAT     H240161   6.023   4.527   2.162
13307WAT      O40162   7.675   4.623   9.707
13307WAT     H140163   7.708   4.688   9.775
13307WAT     H240164   7.589   4.657   9.668
13308WAT      O40165   7.065   8.234   3.851
13308WAT     H140166   7.029   8.143   3.874
13308WAT     H240167   7.122   8.267   3.927
13309WAT      O40168   2.130   2.308   6.691
13309WAT     H140169   2.033   2.326   6.679
13309WAT     H240170   2.167   2.269   6.607
13310WAT      O40171   2.788   6.537   9.477
13310WAT     H140172   2.883   6.507   9.482
13310WAT     H240173   2.765   6.560   9.383
13311WAT      O40174   8.942   6.583   0.209
13311WAT     H140175   8.854   6.589   0.257
13311WAT     H240176   9.004   6.654   0.242
13312WAT      O40177   0.195   4.954   1.473
13312WAT     H140178   0.201   4.862   1.434
13312WAT     H240179   0.100   4.971   1.502
13313WAT      O40180   6.546   7.594   1.129
13313WAT     H140181   6.644   7.589   1.108
13313WAT     H240182   6.498   7.525   1.075
13314WAT      O40183   7.564   1.714   7.362
13314WAT     H140184   7.563   1.614   7.369
13314WAT     H240185   7.504   1.742   7.288
13315WAT      O40186   0.731   3.470   5.982
13315WAT     H140187   0.782   3.555   5.968
13315WAT     H240188   0.704   3.464   6.078
13316WAT      O40189   3.472   6.086   3.651
13316WAT     H140190   3.510   6.076   3.559
13316WAT     H240191   3.540   6.130   3.710
13317WAT      O40192   1.156   4.235   1.620
13317WAT     H140193   1.251   4.227   1.590
13317WAT     H240194   1.144   4.185   1.706
13318WAT      O40195   2.402   2.932   2.061
13318WAT     H140196   2.365   3.015   2.101
13318WAT     H240197   2.327   2.867   2.043
13319WAT      O40198   7.022   8.717   8.564
13319WAT     H140199   7.110   8.672   8.555
13319WAT     H240200   6.951   8.650   8.585
13320WAT      O40201   8.362   3.531   0.639
13320WAT     H140202   8.318   3.611   0.681
13320WAT     H240203   8.309   3.449   0.661
13321WAT      O40204   2.213   4.853   9.043
13321WAT     H140205   2.185   4.841   8.948
13321WAT     H240206   2.266   4.773   9.072
13322WAT      O40207   5.901   7.269   7.820
13322WAT     H140208   5.985   7.217   7.803
13322WAT     H240209   5.924   7.354   7.868
13323WAT      O40210   0.301   1.640   5.770
13323WAT     H140211   0.274   1.627   5.865
13323WAT     H240212   0.280   1.734   5.742
13324WAT      O40213   0.530   1.981   0.736
13324WAT     H140214   0.447   2.034   0.720
13324WAT     H240215   0.514   1.885   0.712
13325WAT      O40216   0.520   6.787   1.332
13325WAT     H140217   0.504   6.689   1.323
13325WAT     H240218   0.471   6.822   1.412
13326WAT      O40219   8.941   7.251   8.866
13326WAT     H140220   8.933   7.295   8.956
13326WAT     H240221   8.885   7.169   8.864
13327WAT      O40222   3.976   8.366   9.145
13327WAT     H140223   3.931   8.440   9.094
13327WAT     H240224   4.014   8.404   9.230
13328WAT      O40225   5.970   4.173   8.554
13328WAT     H140226   5.927   4.261   8.574
13328WAT     H240227   5.929   4.103   8.613
13329WAT      O40228   0.269   4.864   9.377
13329WAT     H140229   0.206   4.942   9.375
13329WAT     H240230   0.346   4.881   9.317
13330WAT      O40231   1.362   0.179   9.065
13330WAT     H140232   1.374   0.118   8.986
13330WAT     H240233   1.448   0.187   9.115
13331WAT      O40234   6.524   4.398   9.705
13331WAT     H140235   6.528   4.312   9.755
13331WAT     H240236   6.576   4.468   9.755
13332WAT      O40237   2.318   1.768   6.123
13332WAT     H140238   2.310   1.815   6.210
13332WAT     H240239   2.308   1.669   6.137
13333WAT      O40240   9.018   0.597   4.273
13333WAT     H140241   9.088   0.532   4.246
13333WAT     H240242   9.047   0.690   4.248
13334WAT      O40243   0.409   6.616   4.662
13334WAT     H140244   0.330   6.677   4.655
13334WAT     H240245   0.442   6.616   4.756
13335WAT      O40246   4.711   1.352   3.816
13335WAT     H140247   4.639   1.321   3.755
13335WAT     H240248   4.696   1.315   3.907
13336WAT      O40249   1.898   5.487   8.185
13336WAT     H140250   1.881   5.529   8.096
13336WAT     H240251   1.844   5.404   8.194
13337WAT      O40252   6.748   6.443   9.129
13337WAT     H140253   6.742   6.478   9.223
13337WAT     H240254   6.656   6.421   9.097
13338WAT      O40255   0.023   1.024   2.113
13338WAT     H140256   0.082   1.032   2.033
13338WAT     H240257  -0.038   1.102   2.118
13339WAT      O40258   9.678   9.475   4.085
13339WAT     H140259   9.626   9.424   4.153
13339WAT     H240260   9.647   9.571   4.085
13340WAT      O40261   6.851   3.015   2.733
13340WAT     H140262   6.757   3.046   2.748
13340WAT     H240263   6.851   2.916   2.721
13341WAT      O40264   3.705   6.608   1.270
13341WAT     H140265   3.715   6.548   1.190
13341WAT     H240266   3.743   6.698   1.248
13342WAT      O40267   0.045   0.361   1.019
13342WAT     H140268   0.010   0.277   0.977
13342WAT     H240269   0.109   0.338   1.092
13343WAT      O40270   5.431   3.766   1.647
13343WAT     H140271   5.508   3.792   1.705
13343WAT     H240272   5.447   3.674   1.610
13344WAT      O40273   9.691   9.233   9.615
13344WAT     H140274   9.764   9.292   9.649
13344WAT     H240275   9.605   9.283   9.615
13345WAT      O40276   2.389   2.429   1.477
13345WAT     H140277   2.397   2.349   1.537
13345WAT     H240278   2.424   2.510   1.524
13346WAT      O40279   1.582   0.477   0.544
13346WAT     H140280   1.668   0.429   0.527
13346WAT     H240281   1.601   0.574   0.559
13347WAT      O40282   4.749   9.761   5.327
13347WAT     H140283   4.833   9.755   5.382
13347WAT     H240284   4.750   9.692   5.255
13348WAT      O40285   8.391   7.708   1.524
13348WAT     H140286   8.298   7.738   1.544
13348WAT     H240287   8.455   7.784   1.537
13349WAT      O40288   7.519   0.188   2.591
13349WAT     H140289   7.419   0.183   2.594
13349WAT     H240290   7.557   0.095   2.598
13350WAT      O40291   5.181   0.160   0.946
13350WAT     H140292   5.130   0.102   1.010
13350WAT     H240293   5.194   0.110   0.860
13351WAT      O40294   2.899   6.979   9.366
13351WAT     H140295   2.972   6.929   9.411
13351WAT     H240296   2.918   6.986   9.268
13352WAT      O40297   7.635   7.627   6.562
13352WAT     H140298   7.678   7.537   6.554
13352WAT     H240299   7.694   7.697   6.522
13353WAT      O40300   7.318   3.728   2.137
13353WAT     H140301   7.356   3.705   2.048
13353WAT     H240302   7.309   3.645   2.192
13354WAT      O40303   1.956   4.116   3.419
13354WAT     H140304   2.017   4.121   3.339
13354WAT     H240305   1.984   4.039   3.476
13355WAT      O40306   4.029   1.986   8.066
13355WAT     H140307   3.998   1.995   7.971
13355WAT     H240308   3.993   2.062   8.120
13356WAT      O40309   1.805   9.410   8.272
13356WAT     H140310   1.825   9.312   8.276
13356WAT     H240311   1.717   9.427   8.314
13357WAT      O40312   9.598   1.589   7.802
13357WAT     H140313   9.504   1.578   7.768
13357WAT     H240314   9.595   1.619   7.897
13358WAT      O40315   3.721   5.619   7.160
13358WAT     H140316   3.767   5.588   7.077
13358WAT     H240317   3.789   5.646   7.228
13359WAT      O40318   3.472   5.922   7.348
13359WAT     H140319   3.512   6.007   7.314
13359WAT     H240320   3.373   5.933   7.357
13360WAT      O40321   9.190   7.439   5.055
13360WAT     H140322   9.099   7.460   5.019
13360WAT     H240323   9.259   7.464   4.988
13361WAT      O40324   6.894   5.360   6.925
13361WAT     H140325   6.988   5.375   6.895
13361WAT     H240326   6.890   5.277   6.981
13362WAT      O40327   7.181   7.410   5.380
13362WAT     H140328   7.156   7.431   5.474
13362WAT     H240329   7.277   7.379   5.377
13363WAT      O40330   8.426   9.147   1.015
13363WAT     H140331   8.453   9.205   0.938
13363WAT     H240332   8.458   9.188   1.101
13364WAT      O40333   9.533   7.347   8.621
13364WAT     H140334   9.527   7.327   8.718
13364WAT     H240335   9.524   7.263   8.568
13365WAT      O40336   4.441   7.331   5.845
13365WAT     H140337   4.516   7.388   5.879
13365WAT     H240338   4.424   7.256   5.909
13366WAT      O40339   0.446   6.822   9.365
13366WAT     H140340   0.453   6.825   9.465
13366WAT     H240341   0.535   6.841   9.325
13367WAT      O40342   5.127   6.804   8.866
13367WAT     H140343   5.202   6.856   8.906
13367WAT     H240344   5.155   6.710   8.851
13368WAT      O40345   1.478   0.977   8.119
13368WAT     H140346   1.426   1.053   8.157
13368WAT     H240347   1.548   1.012   8.058
13369WAT      O40348   4.536   0.116   1.697
13369WAT     H140349   4.605   0.075   1.756
13369WAT     H240350   4.505   0.049   1.630
13370WAT      O40351   9.321   8.962   5.379
13370WAT     H140352   9.389   8.931   5.446
13370WAT     H240353   9.366   8.981   5.292
13371WAT      O40354   0.394   0.218   0.075
13371WAT     H140355   0.380   0.192   0.170
13371WAT     H240356   0.348   0.152   0.015
13372WAT      O40357   5.979   7.214   8.688
13372WAT     H140358   5.925   7.177   8.612
13372WAT     H240359   6.064   7.162   8.697
13373WAT      O40360   2.790   9.272   4.713
13373WAT     H140361   2.720   9.339   4.737
13373WAT     H240362   2.851   9.258   4.791
13374WAT      O40363   2.790   4.086   6.224
13374WAT     H140364   2.798   4.130   6.313
13374WAT     H240365   2.696   4.056   6.209
13375WAT      O40366   4.934   3.657   1.654
13375WAT     H140367   4.856   3.596   1.664
13375WAT     H240368   5.019   3.603   1.652
13376WAT      O40369   0.703   1.397   4.281
13376WAT     H140370   0.800   1.420   4.288
13376WAT     H240371   0.684   1.358   4.190
13377WAT      O40372   2.304   9.296   6.857
13377WAT     H140373   2.354   9.247   6.929
13377WAT     H240374   2.209   9.265   6.855
13378WAT      O40375   2.092   5.460   9.885
13378WAT     H140376   2.091   5.369   9.843
13378WAT     H240377   2.148   5.522   9.829
13379WAT      O40378   5.384   7.811   3.997
13379WAT     H140379   5.356   7.725   4.039
13379WAT     H240380   5.305   7.871   3.988
13380WAT      O40381   9.002   9.159   8.646
13380WAT     H140382   8.939   9.211   8.589
13380WAT     H240383   8.962   9.146   8.737
13381WAT      O40384   2.645   0.495   0.729
13381WAT     H140385   2.613   0.494   0.634
13381WAT     H240386   2.741   0.520   0.731
13382WAT      O40387   9.624   7.740   4.177
13382WAT     H140388   9.659   7.826   4.139
13382WAT     H240389   9.546   7.760   4.236
13383WAT      O40390   8.700   1.074   6.979
13383WAT     H140391   8.611   1.037   7.004
13383WAT     H240392   8.702   1.094   6.881
13384WAT      O40393   2.091   8.798   9.884
13384WAT     H140394   2.141   8.754   9.958
13384WAT     H240395   2.108   8.749   9.798
13385WAT      O40396   0.896   5.868   4.497
13385WAT     H140397   0.832   5.873   4.574
13385WAT     H240398   0.861   5.922   4.421
13386WAT      O40399   5.191   1.560   4.073
13386WAT     H140400   5.156   1.568   3.980
13386WAT     H240401   5.179   1.647   4.121
13387WAT      O40402   0.788   2.690   6.800
13387WAT     H140403   0.812   2.783   6.829
13387WAT     H240404   0.841   2.666   6.719
13388WAT      O40405   6.198   2.774   5.078
13388WAT     H140406   6.236   2.740   5.164
13388WAT     H240407   6.119   2.833   5.097
13389WAT      O40408   8.445   2.634   1.035
13389WAT     H140409   8.519   2.701   1.038
13389WAT     H240410   8.364   2.675   0.994
13390WAT      O40411   5.561   6.720   5.415
13390WAT     H140412   5.610   6.806   5.427
13390WAT     H240413   5.616   6.645   5.451
13391WAT      O40414   0.237   4.865   2.217
13391WAT     H140415   0.250   4.778   2.170
13391WAT     H240416   0.299   4.934   2.180
13392WAT      O40417   7.310   0.349   2.839
13392WAT     H140418   7.325   0.409   2.761
13392WAT     H240419   7.390   0.290   2.853
13393WAT      O40420   3.455   0.178   6.677
13393WAT     H140421   3.387   0.144   6.611
13393WAT     H240422   3.508   0.252   6.635
13394WAT      O40423   4.074   7.013   7.431
13394WAT     H140424   4.031   7.067   7.358
13394WAT     H240425   4.137   7.071   7.482
13395WAT      O40426   8.266   1.290   8.510
13395WAT     H140427   8.217   1.374   8.535
13395WAT     H240428   8.210   1.237   8.446
13396WAT      O40429   4.594   8.901   9.857
13396WAT     H140430   4.516   8.917   9.796
13396WAT     H240431   4.596   8.971   9.928
13397WAT      O40432   6.500   8.722   0.645
13397WAT     H140433   6.474   8.818   0.633
13397WAT     H240434   6.494   8.674   0.558
13398WAT      O40435   0.769   6.734   6.510
13398WAT     H140436   0.855   6.775   6.540
13398WAT     H240437   0.748   6.655   6.569
13399WAT      O40438   7.520   1.657   9.745
13399WAT     H140439   7.494   1.746   9.707
13399WAT     H240440   7.453   1.630   9.814
13400WAT      O40441   0.980   2.995   3.901
13400WAT     H140442   0.983   2.959   3.808
13400WAT     H240443   0.930   2.932   3.960
13401WAT      O40444   5.508   5.607   4.085
13401WAT     H140445   5.449   5.660   4.147
13401WAT     H240446   5.603   5.614   4.116
13402WAT      O40447   7.481   1.234   9.719
13402WAT     H140448   7.540   1.262   9.795
13402WAT     H240449   7.498   1.292   9.640
13403WAT      O40450   4.234   7.021   6.306
13403WAT     H140451   4.321   7.055   6.273
13403WAT     H240452   4.163   7.089   6.290
13404WAT      O40453   8.512   6.681   0.491
13404WAT     H140454   8.439   6.662   0.557
13404WAT     H240455   8.472   6.720   0.408
13405WAT      O40456   9.335   7.266   1.362
13405WAT     H140457   9.316   7.334   1.292
13405WAT     H240458   9.429   7.231   1.351
13406WAT      O40459   6.308   7.289   5.857
13406WAT     H140460   6.259   7.216   5.904
13406WAT     H240461   6.269   7.301   5.765
13407WAT      O40462   4.387   6.085   9.166
13407WAT     H140463   4.366   5.996   9.208
13407WAT     H240464   4.309   6.115   9.111
13408WAT      O40465   4.406   0.950   5.140
13408WAT     H140466   4.318   0.965   5.095
13408WAT     H240467   4.412   1.006   5.223
13409WAT      O40468   0.980   3.207   0.114
13409WAT     H140469   1.066   3.163   0.087
13409WAT     H240470   0.923   3.219   0.032
13410WAT      O40471   3.545   6.186   1.197
13410WAT     H140472   3.514   6.278   1.172
13410WAT     H240473   3.622   6.193   1.261
13411WAT      O40474   4.319   8.542   2.949
13411WAT     H140475   4.325   8.460   3.005
13411WAT     H240476   4.299   8.516   2.854
13412WAT      O40477   1.038   1.380   8.023
13412WAT     H140478   1.084   1.342   7.942
13412WAT     H240479   0.998   1.469   8.000
13413WAT      O40480   8.789   5.410   5.534
13413WAT     H140481   8.829   5.497   5.564
13413WAT     H240482   8.795   5.403   5.435
13414WAT      O40483   0.925   8.292   2.942
13414WAT     H140484   0.999   8.318   2.879
13414WAT     H240485   0.842   8.342   2.918
13415WAT      O40486   2.645   8.610   4.417
13415WAT     H140487   2.566   8.657   4.377
13415WAT     H240488   2.631   8.601   4.516
13416WAT      O40489   0.852   5.477   2.915
13416WAT     H140490   0.879   5.436   3.002
13416WAT     H240491   0.774   5.427   2.877
13417WAT      O40492   5.762   0.498   5.232
13417WAT     H140493   5.678   0.446   5.217
13417WAT     H240494   5.780   0.556   5.152
13418WAT      O40495   6.327   5.503   5.763
13418WAT     H140496   6.314   5.462   5.673
13418WAT     H240497   6.424   5.526   5.775
13419WAT      O40498   5.558   5.364   0.242
13419WAT     H140499   5.472   5.347   0.291
13419WAT     H240500   5.545   5.437   0.176
13420WAT      O40501   8.041   9.117   2.506
13420WAT     H140502   7.980   9.064   2.447
13420WAT     H240503   8.126   9.138   2.456
13421WAT      O40504   3.548   4.372   1.376
13421WAT     H140505   3.555   4.420   1.288
13421WAT     H240506   3.489   4.292   1.366
13422WAT      O40507   1.168   1.867   6.091
13422WAT     H140508   1.264   1.838   6.092
13422WAT     H240509   1.119   1.826   6.168
13423WAT      O40510   2.906   4.235   0.323
13423WAT     H140511   2.895   4.333   0.307
13423WAT     H240512   2.862   4.184   0.249
13424WAT      O40513   6.500   0.496   3.385
13424WAT     H140514   6.593   0.496   3.419
13424WAT     H240515   6.480   0.586   3.344
13425WAT      O40516   2.532   1.440   1.672
13425WAT     H140517   2.549   1.384   1.591
13425WAT     H240518   2.524   1.381   1.752
13426WAT      O40519   0.154   2.792   9.017
13426WAT     H140520   0.187   2.708   8.975
13426WAT     H240521   0.169   2.868   8.954
13427WAT      O40522   5.494   8.117   7.963
13427WAT     H140523   5.539   8.080   7.882
13427WAT     H240524   5.474   8.044   8.027
13428WAT      O40525   8.844   4.819   0.531
13428WAT     H140526   8.858   4.749   0.461
13428WAT     H240527   8.931   4.839   0.576
13429WAT      O40528   4.998   6.950   6.293
13429WAT     H140529   4.987   7.045   6.324
13429WAT     H240530   5.020   6.892   6.372
13430WAT      O40531   2.372   0.965   0.283
13430WAT     H140532   2.334   0.882   0.242
13430WAT     H240533   2.355   1.043   0.223
13431WAT      O40534   4.686   3.808   6.258
13431WAT     H140535   4.689   3.742   6.333
13431WAT     H240536   4.776   3.815   6.216
13432WAT      O40537   1.812   9.820   6.553
13432WAT     H140538   1.771   9.797   6.465
13432WAT     H240539   1.762   9.897   6.594
13433WAT      O40540   4.433   8.612   8.391
13433WAT     H140541   4.513   8.555   8.412
13433WAT     H240542   4.428   8.689   8.455
13434WAT      O40543   4.181   5.663   0.558
13434WAT     H140544   4.169   5.753   0.598
13434WAT     H240545   4.272   5.628   0.578
13435WAT      O40546   7.136   7.340   6.234
13435WAT     H140547   7.226   7.343   6.277
13435WAT     H240548   7.136   7.271   6.162
13436WAT      O40549   9.421   1.081   4.450
13436WAT     H140550   9.359   1.151   4.415
13436WAT     H240551   9.444   1.101   4.545
13437WAT      O40552   1.753   7.630   9.228
13437WAT     H140553   1.812   7.700   9.187
13437WAT     H240554   1.790   7.539   9.207
13438WAT      O40555   2.220   8.642   3.197
13438WAT     H140556   2.233   8.741   3.205
13438WAT     H240557   2.308   8.596   3.206
13439WAT      O40558   7.425   5.565   5.661
13439WAT     H140559   7.380   5.513   5.734
13439WAT     H240560   7.389   5.658   5.660
13440WAT      O40561   5.003   8.263   6.819
13440WAT     H140562   4.905   8.252   6.834
13440WAT     H240563   5.053   8.233   6.901
13441WAT      O40564   5.871   6.463   0.084
13441WAT     H140565   5.964   6.484   0.055
13441WAT     H240566   5.821   6.548   0.100
13442WAT      O40567   7.207   8.190   8.635
13442WAT     H140568   7.222   8.092   8.631
13442WAT     H240569   7.264   8.236   8.566
13443WAT      O40570   9.298   5.852   5.772
13443WAT     H140571   9.208   5.889   5.795
13443WAT     H240572   9.330   5.894   5.687
13444WAT      O40573   0.426   3.142   8.406
13444WAT     H140574   0.368   3.086   8.347
13444WAT     H240575   0.519   3.104   8.407
13445WAT      O40576   8.295   8.153   8.714
13445WAT     H140577   8.228   8.168   8.641
13445WAT     H240578   8.293   8.057   8.741
13446WAT      O40579   3.286   2.154   1.252
13446WAT     H140580   3.187   2.158   1.265
13446WAT     H240581   3.319   2.243   1.223
13447WAT      O40582   4.893   7.460   2.569
13447WAT     H140583   4.885   7.360   2.563
13447WAT     H240584   4.986   7.484   2.597
13448WAT      O40585   5.812   4.709   2.414
13448WAT     H140586   5.861   4.705   2.501
13448WAT     H240587   5.715   4.690   2.429
13449WAT      O40588   3.923   3.502   9.107
13449WAT     H140589   3.873   3.457   9.032
13449WAT     H240590   4.015   3.462   9.114
13450WAT      O40591   2.504   9.311   7.410
13450WAT     H140592   2.549   9.349   7.490
13450WAT     H240593   2.525   9.367   7.330
13451WAT      O40594   8.694   3.475   9.833
13451WAT     H140595   8.666   3.467   9.737
13451WAT     H240596   8.746   3.394   9.859
13452WAT      O40597   7.582   2.667   5.646
13452WAT     H140598   7.498   2.710   5.678
13452WAT     H240599   7.575   2.568   5.657
13453WAT      O40600   8.538   7.527   1.372
13453WAT     H140601   8.573   7.458   1.435
13453WAT     H240602   8.476   7.588   1.422
13454WAT      O40603   5.146   5.812   9.666
13454WAT     H140604   5.187   5.722   9.681
13454WAT     H240605   5.113   5.848   9.754
13455WAT      O40606   8.372   4.939   2.576
13455WAT     H140607   8.391   4.842   2.587
13455WAT     H240608   8.293   4.964   2.632
13456WAT      O40609   5.614   9.187   8.438
13456WAT     H140610   5.694   9.188   8.497
13456WAT     H240611   5.573   9.095   8.438
13457WAT      O40612   9.680   0.048   1.727
13457WAT     H140613   9.656  -0.019   1.797
13457WAT     H240614   9.618   0.037   1.648
13458WAT      O40615   7.848   1.034   7.688
13458WAT     H140616   7.870   1.127   7.658
13458WAT     H240617   7.750   1.027   7.706
13459WAT      O40618   2.872   1.435   3.630
13459WAT     H140619   2.907   1.389   3.548
13459WAT     H240620   2.810   1.508   3.603
13460WAT      O40621   4.565   0.884   9.163
13460WAT     H140622   4.604   0.894   9.254
13460WAT     H240623   4.474   0.926   9.160
13461WAT      O40624   5.636   6.337   4.087
13461WAT     H140625   5.625   6.343   4.186
13461WAT     H240626   5.563   6.389   4.042
13462WAT      O40627   7.395   5.025   3.990
13462WAT     H140628   7.325   5.095   3.973
13462WAT     H240629   7.368   4.970   4.069
13463WAT      O40630   7.597   7.014   1.073
13463WAT     H140631   7.625   7.110   1.078
13463WAT     H240632   7.506   7.004   1.114
13464WAT      O40633   5.951   7.872   7.466
13464WAT     H140634   5.924   7.789   7.418
13464WAT     H240635   6.051   7.874   7.476
13465WAT      O40636   1.845   5.500   7.167
13465WAT     H140637   1.836   5.456   7.256
13465WAT     H240638   1.939   5.489   7.133
13466WAT      O40639   8.944   1.189   0.819
13466WAT     H140640   8.916   1.285   0.828
13466WAT     H240641   8.915   1.154   0.730
13467WAT      O40642   5.833   2.841   2.319
13467WAT     H140643   5.811   2.747   2.291
13467WAT     H240644   5.823   2.902   2.240
13468WAT      O40645   3.414   5.238   0.299
13468WAT     H140646   3.488   5.299   0.271
13468WAT     H240647   3.354   5.286   0.363
13469WAT      O40648   5.863   1.937   7.167
13469WAT     H140649   5.950   1.941   7.216
13469WAT     H240650   5.807   1.864   7.205
13470WAT      O40651   7.761   7.732   1.157
13470WAT     H140652   7.764   7.642   1.113
13470WAT     H240653   7.670   7.748   1.194
13471WAT      O40654   7.258   9.458   9.646
13471WAT     H140655   7.239   9.529   9.714
13471WAT     H240656   7.221   9.371   9.678
13472WAT      O40657   3.969   3.703   3.551
13472WAT     H140658   4.055   3.653   3.540
13472WAT     H240659   3.900   3.642   3.590
13473WAT      O40660   4.519   4.999   0.013
13473WAT     H140661   4.611   4.965  -0.003
13473WAT     H240662   4.501   5.077  -0.047
13474WAT      O40663   0.450   9.819   3.248
13474WAT     H140664   0.395   9.736   3.261
13474WAT     H240665   0.541   9.805   3.287
13475WAT      O40666   6.801   7.867   4.510
13475WAT     H140667   6.758   7.814   4.437
13475WAT     H240668   6.781   7.964   4.497
13476WAT      O40669   1.420   4.990   1.420
13476WAT     H140670   1.397   5.079   1.461
13476WAT     H240671   1.371   4.918   1.468
13477WAT      O40672   6.759   9.235   1.301
13477WAT     H140673   6.715   9.145   1.307
13477WAT     H240674   6.858   9.224   1.316
13478WAT      O40675   1.644   5.615   8.321
13478WAT     H140676   1.593   5.535   8.355
13478WAT     H240677   1.711   5.585   8.254
13479WAT      O40678   2.678   1.818   9.537
13479WAT     H140679   2.618   1.859   9.468
13479WAT     H240680   2.709   1.729   9.506
13480WAT      O40681   4.759   0.656   8.577
13480WAT     H140682   4.830   0.614   8.522
13480WAT     H240683   4.713   0.727   8.524
13481WAT      O40684   6.079   6.895   3.600
13481WAT     H140685   6.087   6.910   3.699
13481WAT     H240686   6.122   6.808   3.577
13482WAT      O40687   8.843   7.227   0.020
13482WAT     H140688   8.763   7.287   0.014
13482WAT     H240689   8.889   7.240   0.107
13483WAT      O40690   9.131   2.193   0.111
13483WAT     H140691   9.117   2.290   0.090
13483WAT     H240692   9.229   2.172   0.106
13484WAT      O40693   3.631   0.973   4.199
13484WAT     H140694   3.533   0.956   4.200
13484WAT     H240695   3.650   1.066   4.168
13485WAT      O40696   5.777   0.207   0.835
13485WAT     H140697   5.751   0.304   0.840
13485WAT     H240698   5.820   0.181   0.922
13486WAT      O40699   0.506   7.290   8.354
13486WAT     H140700   0.436   7.247   8.296
13486WAT     H240701   0.574   7.335   8.295
13487WAT      O40702   2.382   1.448   2.189
13487WAT     H140703   2.295   1.468   2.232
13487WAT     H240704   2.374   1.459   2.090
13488WAT      O40705   7.051   1.805   0.597
13488WAT     H140706   7.143   1.774   0.620
13488WAT     H240707   7.055   1.867   0.518
13489WAT      O40708   8.176   3.954   8.208
13489WAT     H140709   8.102   3.974   8.144
13489WAT     H240710   8.142   3.895   8.281
13490WAT      O40711   4.224   6.316   7.020
13490WAT     H140712   4.210   6.291   7.115
13490WAT     H240713   4.218   6.416   7.010
13491WAT      O40714   0.355   9.462   0.620
13491WAT     H140715   0.347   9.465   0.719
13491WAT     H240716   0.296   9.390   0.584
13492WAT      O40717   7.083   1.970   1.601
13492WAT     H140718   7.040   1.999   1.516
13492WAT     H240719   7.155   2.034   1.627
13493WAT      O40720   8.435   0.980   8.910
13493WAT     H140721   8.399   1.015   8.823
13493WAT     H240722   8.391   1.029   8.986
13494WAT      O40723   9.457   1.899   1.498
13494WAT     H140724   9.396   1.887   1.420
13494WAT     H240725   9.410   1.870   1.581
13495WAT      O40726   9.696   2.675   7.096
13495WAT     H140727   9.750   2.666   7.180
13495WAT     H240728   9.691   2.587   7.049
13496WAT      O40729   6.788   6.697   4.221
13496WAT     H140730   6.710   6.634   4.228
13496WAT     H240731   6.859   6.655   4.165
13497WAT      O40732   6.076   7.427   8.447
13497WAT     H140733   6.029   7.479   8.517
13497WAT     H240734   6.065   7.329   8.465
13498WAT      O40735   6.082   9.754   4.507
13498WAT     H140736   6.004   9.817   4.508
13498WAT     H240737   6.160   9.797   4.552
13499WAT      O40738   4.130   8.766   0.114
13499WAT     H140739   4.227   8.743   0.122
13499WAT     H240740   4.095   8.730   0.028
13500WAT      O40741   7.574   5.738   0.737
13500WAT     H140742   7.560   5.720   0.835
13500WAT     H240743   7.487   5.764   0.695
13501WAT      O40744   4.429   8.093   5.048
13501WAT     H140745   4.339   8.056   5.026
13501WAT     H240746   4.449   8.075   5.144
13502WAT      O40747   4.223   1.112   8.019
13502WAT     H140748   4.320   1.085   8.020
13502WAT     H240749   4.167   1.036   8.051
13503WAT      O40750   3.034   8.841   1.727
13503WAT     H140751   2.957   8.874   1.781
13503WAT     H240752   3.052   8.745   1.748
13504WAT      O40753   1.558   5.217   8.028
13504WAT     H140754   1.520   5.150   7.964
13504WAT     H240755   1.597   5.294   7.977
13505WAT      O40756   2.570   7.139   8.526
13505WAT     H140757   2.508   7.067   8.494
13505WAT     H240758   2.534   7.228   8.501
13506WAT      O40759   2.951   5.650   3.261
13506WAT     H140760   3.002   5.566   3.281
13506WAT     H240761   2.857   5.640   3.294
13507WAT      O40762   0.673   5.900   5.486
13507WAT     H140763   0.730   5.893   5.405
13507WAT     H240764   0.590   5.951   5.465
13508WAT      O40765   1.572   4.491   1.601
13508WAT     H140766   1.656   4.484   1.546
13508WAT     H240767   1.493   4.468   1.544
13509WAT      O40768   9.669   0.113   9.591
13509WAT     H140769   9.586   0.157   9.626
13509WAT     H240770   9.657   0.014   9.590
13510WAT      O40771   3.912   0.019   4.585
13510WAT     H140772   3.831   0.077   4.597
13510WAT     H240773   3.910  -0.055   4.652
13511WAT      O40774   6.317   4.258   4.524
13511WAT     H140775   6.244   4.322   4.547
13511WAT     H240776   6.335   4.263   4.426
13512WAT      O40777   4.456   9.388   4.911
13512WAT     H140778   4.427   9.417   5.002
13512WAT     H240779   4.520   9.311   4.919
13513WAT      O40780   3.125   9.756   3.635
13513WAT     H140781   3.115   9.686   3.706
13513WAT     H240782   3.168   9.716   3.554
13514WAT      O40783   7.419   2.673   2.593
13514WAT     H140784   7.336   2.654   2.645
13514WAT     H240785   7.400   2.665   2.496
13515WAT      O40786   9.296   7.298   0.678
13515WAT     H140787   9.272   7.215   0.728
13515WAT     H240788   9.253   7.297   0.588
13516WAT      O40789   7.098   3.127   2.827
13516WAT     H140790   7.172   3.062   2.808
13516WAT     H240791   7.010   3.079   2.825
13517WAT      O40792   0.046   9.012   5.418
13517WAT     H140793  -0.030   8.993   5.356
13517WAT     H240794   0.013   9.012   5.513
13518WAT      O40795   3.726   2.254   0.509
13518WAT     H140796   3.678   2.183   0.559
13518WAT     H240797   3.698   2.252   0.412
13519WAT      O40798   4.321   1.892   1.991
13519WAT     H140799   4.284   1.982   1.966
13519WAT     H240800   4.246   1.827   2.003
13520WAT      O40801   7.222   6.006   3.062
13520WAT     H140802   7.150   5.970   3.121
13520WAT     H240803   7.309   5.964   3.085
13521WAT      O40804   7.659   1.762   4.593
13521WAT     H140805   7.604   1.831   4.545
13521WAT     H240806   7.600   1.688   4.624
13522WAT      O40807   8.484   8.248   7.390
13522WAT     H140808   8.461   8.158   7.425
13522WAT     H240809   8.405   8.309   7.398
13523WAT      O40810   5.370   6.424   7.104
13523WAT     H140811   5.406   6.428   7.011
13523WAT     H240812   5.380   6.332   7.141
13524WAT      O40813   3.154   3.751   4.491
13524WAT     H140814   3.107   3.676   4.539
13524WAT     H240815   3.182   3.820   4.557
13525WAT      O40816   2.597   4.873   0.369
13525WAT     H140817   2.677   4.914   0.413
13525WAT     H240818   2.515   4.899   0.420
13526WAT      O40819   2.287   1.871   7.818
13526WAT     H140820   2.317   1.776   7.822
13526WAT     H240821   2.238   1.894   7.902
13527WAT      O40822   9.388   5.040   5.719
13527WAT     H140823   9.408   4.980   5.796
13527WAT     H240824   9.441   5.124   5.727
13528WAT      O40825   3.777   4.084   1.527
13528WAT     H140826   3.800   4.181   1.535
13528WAT     H240827   3.806   4.050   1.438
13529WAT      O40828   8.691   3.666   3.365
13529WAT     H140829   8.772   3.690   3.419
13529WAT     H240830   8.718   3.612   3.286
13530WAT      O40831   5.400   3.831   1.937
13530WAT     H140832   5.421   3.920   1.978
13530WAT     H240833   5.476   3.768   1.954
13531WAT      O40834   9.504   7.649   9.351
13531WAT     H140835   9.594   7.646   9.395
13531WAT     H240836   9.500   7.727   9.289
13532WAT      O40837   1.704   7.616   1.266
13532WAT     H140838   1.613   7.652   1.248
13532WAT     H240839   1.707   7.519   1.241
13533WAT      O40840   1.283   6.949   8.877
13533WAT     H140841   1.208   6.961   8.942
13533WAT     H240842   1.263   6.870   8.818
13534WAT      O40843   0.669   5.805   9.094
13534WAT     H140844   0.722   5.733   9.049
13534WAT     H240845   0.658   5.784   9.191
13535WAT      O40846   2.337   5.583   0.827
13535WAT     H140847   2.338   5.530   0.742
13535WAT     H240848   2.380   5.672   0.812
13536WAT      O40849   5.044   2.159   9.807
13536WAT     H140850   5.020   2.242   9.756
13536WAT     H240851   5.013   2.167   9.901
13537WAT      O40852   8.705   8.637   5.005
13537WAT     H140853   8.743   8.654   5.096
13537WAT     H240854   8.605   8.649   5.008
13538WAT      O40855   0.770   9.454   3.368
13538WAT     H140856   0.830   9.426   3.443
13538WAT     H240857   0.676   9.457   3.400
13539WAT      O40858   1.344   3.245   5.948
13539WAT     H140859   1.440   3.271   5.962
13539WAT     H240860   1.327   3.157   5.992
13540WAT      O40861   6.854   5.055   5.105
13540WAT     H140862   6.862   5.034   5.203
13540WAT     H240863   6.909   4.990   5.052
13541WAT      O40864   6.089   8.358   8.295
13541WAT     H140865   6.146   8.303   8.356
13541WAT     H240866   6.146   8.424   8.246
13542WAT      O40867   8.529   8.868   1.871
13542WAT     H140868   8.514   8.786   1.926
13542WAT     H240869   8.626   8.889   1.866
13543WAT      O40870   4.817   2.908   7.752
13543WAT     H140871   4.752   2.950   7.688
13543WAT     H240872   4.770   2.836   7.805
13544WAT      O40873   2.683   7.797   1.543
13544WAT     H140874   2.744   7.855   1.597
13544WAT     H240875   2.589   7.809   1.574
13545WAT      O40876   2.334   9.256   8.289
13545WAT     H140877   2.300   9.346   8.261
13545WAT     H240878   2.432   9.261   8.306
13546WAT      O40879   0.662   8.971   9.671
13546WAT     H140880   0.637   8.885   9.715
13546WAT     H240881   0.637   8.969   9.574
13547WAT      O40882   5.248   7.429   8.489
13547WAT     H140883   5.287   7.506   8.541
13547WAT     H240884   5.202   7.367   8.552
13548WAT      O40885   9.844   9.383   6.622
13548WAT     H140886   9.895   9.469   6.618
13548WAT     H240887   9.748   9.400   6.599
13549WAT      O40888   4.141   4.680   8.782
13549WAT     H140889   4.057   4.627   8.773
13549WAT     H240890   4.180   4.696   8.691
13550WAT      O40891   6.882   0.924   5.368
13550WAT     H140892   6.898   0.827   5.348
13550WAT     H240893   6.903   0.941   5.464
13551WAT      O40894   1.506   8.512   9.713
13551WAT     H140895   1.517   8.570   9.632
13551WAT     H240896   1.558   8.428   9.700
13552WAT      O40897   8.036   2.332   6.632
13552WAT     H140898   7.937   2.317   6.629
13552WAT     H240899   8.060   2.373   6.720
13553WAT      O40900   5.251   7.595   2.897
13553WAT     H140901   5.319   7.524   2.913
13553WAT     H240902   5.165   7.571   2.942
13554WAT      O40903   3.689   5.617   8.782
13554WAT     H140904   3.724   5.710   8.781
13554WAT     H240905   3.611   5.612   8.844
13555WAT      O40906   0.055   9.352   5.893
13555WAT     H140907  -0.001   9.386   5.818
13555WAT     H240908   0.152   9.372   5.875
13556WAT      O40909   1.848   6.582   6.262
13556WAT     H140910   1.754   6.616   6.265
13556WAT     H240911   1.850   6.495   6.214
13557WAT      O40912   6.162   7.422   1.834
13557WAT     H140913   6.227   7.378   1.772
13557WAT     H240914   6.185   7.398   1.928
13558WAT      O40915   6.287   0.465   4.232
13558WAT     H140916   6.259   0.465   4.136
13558WAT     H240917   6.344   0.385   4.250
13559WAT      O40918   7.086   3.643   0.360
13559WAT     H140919   7.097   3.600   0.271
13559WAT     H240920   7.066   3.740   0.348
13560WAT      O40921   0.849   4.405   4.316
13560WAT     H140922   0.767   4.385   4.371
13560WAT     H240923   0.884   4.495   4.340
13561WAT      O40924   1.581   6.709   2.196
13561WAT     H140925   1.603   6.796   2.151
13561WAT     H240926   1.481   6.702   2.207
13562WAT      O40927   1.050   6.664   2.876
13562WAT     H140928   1.058   6.588   2.940
13562WAT     H240929   1.104   6.645   2.794
13563WAT      O40930   5.468   8.665   9.580
13563WAT     H140931   5.375   8.698   9.564
13563WAT     H240932   5.469   8.565   9.582
13564WAT      O40933   1.671   7.704   1.678
13564WAT     H140934   1.738   7.669   1.613
13564WAT     H240935   1.692   7.668   1.769
13565WAT      O40936   1.619   5.855   8.075
13565WAT     H140937   1.606   5.887   7.981
13565WAT     H240938   1.539   5.803   8.104
13566WAT      O40939   5.267   1.046   5.108
13566WAT     H140940   5.219   1.118   5.059
13566WAT     H240941   5.355   1.081   5.140
13567WAT      O40942   0.808   8.050   2.930
13567WAT     H140943   0.712   8.064   2.951
13567WAT     H240944   0.861   8.128   2.964
13568WAT      O40945   3.594   8.229   4.275
13568WAT     H140946   3.617   8.156   4.339
13568WAT     H240947   3.543   8.300   4.324
13569WAT      O40948   8.372   2.841   6.989
13569WAT     H140949   8.460   2.848   7.036
13569WAT     H240950   8.376   2.767   6.922
13570WAT      O40951   4.037   4.264   1.491
13570WAT     H140952   3.946   4.304   1.496
13570WAT     H240953   4.041   4.202   1.413
13571WAT      O40954   4.404   2.654   1.331
13571WAT     H140955   4.367   2.602   1.408
13571WAT     H240956   4.469   2.598   1.281
13572WAT      O40957   4.917   4.530   0.040
13572WAT     H140958   4.959   4.501  -0.046
13572WAT     H240959   4.926   4.457   0.108
13573WAT      O40960   1.209   9.679   8.240
13573WAT     H140961   1.281   9.736   8.201
13573WAT     H240962   1.138   9.738   8.280
13574WAT      O40963   0.802   6.237   2.558
13574WAT     H140964   0.788   6.142   2.589
13574WAT     H240965   0.782   6.243   2.461
13575WAT      O40966   7.779   1.456   2.565
13575WAT     H140967   7.749   1.479   2.473
13575WAT     H240968   7.868   1.410   2.561
13576WAT      O40969   8.446   6.400   5.246
13576WAT     H140970   8.484   6.451   5.323
13576WAT     H240971   8.498   6.315   5.234
13577WAT      O40972   2.684   9.743   5.279
13577WAT     H140973   2.659   9.680   5.206
13577WAT     H240974   2.771   9.714   5.320
13578WAT      O40975   1.717   6.276   4.470
13578WAT     H140976   1.659   6.338   4.418
13578WAT     H240977   1.709   6.297   4.567
13579WAT      O40978   0.043   1.480   8.257
13579WAT     H140979   0.053   1.409   8.327
13579WAT     H240980   0.031   1.569   8.301
13580WAT      O40981   6.466   5.255   3.221
13580WAT     H140982   6.378   5.284   3.182
13580WAT     H240983   6.469   5.155   3.225
13581WAT      O40984   7.245   5.034   0.572
13581WAT     H140985   7.209   5.100   0.638
13581WAT     H240986   7.343   5.049   0.560
13582WAT      O40987   3.351   5.911   0.937
13582WAT     H140988   3.314   5.963   1.014
13582WAT     H240989   3.341   5.813   0.955
13583WAT      O40990   2.110   4.891   0.544
13583WAT     H140991   2.053   4.825   0.594
13583WAT     H240992   2.062   4.979   0.540
13584WAT      O40993   3.776   8.704   8.757
13584WAT     H140994   3.748   8.788   8.803
13584WAT     H240995   3.723   8.694   8.672
13585WAT      O40996   4.277   9.569   1.007
13585WAT     H140997   4.205   9.638   1.005
13585WAT     H240998   4.241   9.485   1.049
13586WAT      O40999   3.698   9.810   1.657
13586WAT     H141000   3.614   9.858   1.681
13586WAT     H241001   3.681   9.750   1.578
13587WAT      O41002   6.699   0.253   3.682
13587WAT     H141003   6.745   0.196   3.614
13587WAT     H241004   6.761   0.325   3.713
13588WAT      O41005   5.746   1.678   9.477
13588WAT     H141006   5.821   1.622   9.511
13588WAT     H241007   5.761   1.774   9.501
13589WAT      O41008   4.543   3.069   1.236
13589WAT     H141009   4.572   2.992   1.294
13589WAT     H241010   4.529   3.036   1.142
13590WAT      O41011   5.147   4.260   1.562
13590WAT     H141012   5.123   4.343   1.614
13590WAT     H241013   5.080   4.247   1.489
13591WAT      O41014   6.961   6.047   9.032
13591WAT     H141015   6.950   6.129   9.089
13591WAT     H241016   7.058   6.028   9.019
13592WAT      O41017   7.437   5.403   2.079
13592WAT     H141018   7.395   5.461   2.149
13592WAT     H241019   7.377   5.326   2.058
13593WAT      O41020   9.331   3.375   6.095
13593WAT     H141021   9.264   3.450   6.089
13593WAT     H241022   9.409   3.396   6.037
13594WAT      O41023   9.094   2.118   0.559
13594WAT     H141024   9.098   2.075   0.469
13594WAT     H241025   9.187   2.137   0.590
13595WAT      O41026   2.658   2.099   1.329
13595WAT     H141027   2.726   2.155   1.376
13595WAT     H241028   2.623   2.029   1.391
13596WAT      O41029   1.062   7.510   3.409
13596WAT     H141030   1.141   7.461   3.444
13596WAT     H241031   0.988   7.507   3.477
13597WAT      O41032   5.855   5.018   1.821
13597WAT     H141033   5.782   4.949   1.817
13597WAT     H241034   5.888   5.024   1.915
13598WAT      O41035   9.040   4.272   7.459
13598WAT     H141036   9.015   4.180   7.490
13598WAT     H241037   8.957   4.326   7.445
13599WAT      O41038   7.030   4.231   0.899
13599WAT     H141039   7.101   4.262   0.836
13599WAT     H241040   7.013   4.302   0.967
13600WAT      O41041   1.335   9.278   0.958
13600WAT     H141042   1.424   9.257   0.917
13600WAT     H241043   1.267   9.285   0.885
13601WAT      O41044   0.552   3.376   2.730
13601WAT     H141045   0.631   3.348   2.675
13601WAT     H241046   0.473   3.388   2.670
13602WAT      O41047   7.055   3.395   6.850
13602WAT     H141048   7.112   3.318   6.822
13602WAT     H241049   6.958   3.370   6.840
13603WAT      O41050   1.003   4.322   8.777
13603WAT     H141051   1.025   4.224   8.788
13603WAT     H241052   0.904   4.333   8.775
13604WAT      O41053   6.437   4.962   8.126
13604WAT     H141054   6.403   5.056   8.132
13604WAT     H241055   6.388   4.905   8.193
13605WAT      O41056   8.806   3.653   7.632
13605WAT     H141057   8.722   3.611   7.598
13605WAT     H241058   8.805   3.751   7.610
13606WAT      O41059   6.266   5.041   2.339
13606WAT     H141060   6.309   4.971   2.396
13606WAT     H241061   6.329   5.118   2.328
13607WAT      O41062   2.152   7.478   5.667
13607WAT     H141063   2.055   7.465   5.688
13607WAT     H241064   2.170   7.575   5.649
13608WAT      O41065   9.727   0.025   4.479
13608WAT     H141066   9.639  -0.007   4.512
13608WAT     H241067   9.718   0.054   4.383
13609WAT      O41068   5.340   0.311   1.851
13609WAT     H141069   5.337   0.393   1.794
13609WAT     H241070   5.303   0.233   1.800
13610WAT      O41071   2.418   1.796   2.763
13610WAT     H141072   2.441   1.814   2.859
13610WAT     H241073   2.358   1.869   2.729
13611WAT      O41074   4.355   4.966   2.841
13611WAT     H141075   4.409   4.965   2.757
13611WAT     H241076   4.405   5.017   2.911
13612WAT      O41077   1.030   4.631   9.882
13612WAT     H141078   0.932   4.627   9.896
13612WAT     H241079   1.077   4.585   9.956
13613WAT      O41080   8.142   3.861   9.637
13613WAT     H141081   8.191   3.926   9.580
13613WAT     H241082   8.207   3.795   9.675
13614WAT      O41083   5.160   3.508   1.667
13614WAT     H141084   5.213   3.514   1.751
13614WAT     H241085   5.187   3.426   1.616
13615WAT      O41086   5.628   8.605   3.688
13615WAT     H141087   5.608   8.578   3.782
13615WAT     H241088   5.718   8.570   3.661
13616WAT      O41089   7.074   9.641   2.498
13616WAT     H141090   7.075   9.638   2.598
13616WAT     H241091   6.986   9.677   2.467
13617WAT      O41092   5.329   3.263   2.951
13617WAT     H141093   5.301   3.280   2.856
13617WAT     H241094   5.305   3.170   2.977
13618WAT      O41095   8.193   3.695   7.667
13618WAT     H141096   8.281   3.681   7.713
13618WAT     H241097   8.206   3.685   7.568
13619WAT      O41098   0.378   7.683   0.235
13619WAT     H141099   0.342   7.590   0.248
13619WAT     H241100   0.388   7.727   0.324
13620WAT      O41101   1.203   9.277   4.618
13620WAT     H141102   1.136   9.305   4.686
13620WAT     H241103   1.245   9.191   4.646
13621WAT      O41104   1.379   5.776   0.775
13621WAT     H141105   1.363   5.759   0.677
13621WAT     H241106   1.430   5.700   0.814
13622WAT      O41107   1.354   2.840   2.935
13622WAT     H141108   1.383   2.854   3.030
13622WAT     H241109   1.298   2.757   2.929
13623WAT      O41110   4.711   0.732   0.906
13623WAT     H141111   4.744   0.710   0.814
13623WAT     H241112   4.707   0.831   0.918
13624WAT      O41113   2.946   0.395   9.281
13624WAT     H141114   2.973   0.472   9.339
13624WAT     H241115   2.940   0.312   9.337
13625WAT      O41116   5.292   7.881   1.214
13625WAT     H141117   5.366   7.824   1.251
13625WAT     H241118   5.322   7.976   1.210
13626WAT      O41119   9.105   5.992   6.250
13626WAT     H141120   9.029   6.057   6.244
13626WAT     H241121   9.154   6.007   6.336
13627WAT      O41122   2.403   5.795   2.666
13627WAT     H141123   2.487   5.849   2.660
13627WAT     H241124   2.418   5.705   2.626
13628WAT      O41125   1.031   5.859   3.217
13628WAT     H141126   1.001   5.850   3.312
13628WAT     H241127   0.976   5.800   3.158
13629WAT      O41128   1.399   4.324   3.918
13629WAT     H141129   1.352   4.355   3.836
13629WAT     H241130   1.332   4.306   3.990
13630WAT      O41131   8.236   1.790   3.678
13630WAT     H141132   8.216   1.704   3.726
13630WAT     H241133   8.155   1.819   3.627
13631WAT      O41134   4.719   0.350   1.839
13631WAT     H141135   4.793   0.283   1.825
13631WAT     H241136   4.751   0.423   1.899
13632WAT      O41137   3.077   8.301   8.610
13632WAT     H141138   3.067   8.340   8.702
13632WAT     H241139   3.155   8.342   8.564
13633WAT      O41140   6.724   0.505   4.852
13633WAT     H141141   6.724   0.584   4.790
13633WAT     H241142   6.758   0.425   4.803
13634WAT      O41143   5.311   0.376   0.221
13634WAT     H141144   5.276   0.363   0.128
13634WAT     H241145   5.332   0.287   0.261
13635WAT      O41146   3.025   2.295   7.749
13635WAT     H141147   2.954   2.345   7.700
13635WAT     H241148   3.065   2.355   7.819
13636WAT      O41149   7.072   1.517   2.001
13636WAT     H141150   7.008   1.463   2.055
13636WAT     H241151   7.069   1.612   2.031
13637WAT      O41152   7.651   8.821   5.287
13637WAT     H141153   7.702   8.736   5.276
13637WAT     H241154   7.645   8.843   5.385
13638WAT      O41155   1.005   8.041   7.499
13638WAT     H141156   0.970   7.962   7.549
13638WAT     H241157   1.055   8.101   7.561
13639WAT      O41158   6.216   5.448   4.564
13639WAT     H141159   6.133   5.463   4.618
13639WAT     H241160   6.296   5.462   4.622
13640WAT      O41161   6.424   6.044   4.338
13640WAT     H141162   6.365   5.995   4.403
13640WAT     H241163   6.384   6.132   4.316
13641WAT      O41164   1.858   7.046   0.683
13641WAT     H141165   1.958   7.038   0.680
13641WAT     H241166   1.827   7.109   0.612
13642WAT      O41167   4.518   2.509   2.754
13642WAT     H141168   4.454   2.581   2.781
13642WAT     H241169   4.578   2.487   2.831
13643WAT      O41170   3.658   8.901   0.007
13643WAT     H141171   3.709   8.816  -0.005
13643WAT     H241172   3.704   8.959   0.074
13644WAT      O41173   5.481   4.701   2.812
13644WAT     H141174   5.569   4.673   2.851
13644WAT     H241175   5.438   4.768   2.872
13645WAT      O41176   8.207   6.108   8.968
13645WAT     H141177   8.175   6.200   8.946
13645WAT     H241178   8.209   6.098   9.068
13646WAT      O41179   0.374   7.170   2.963
13646WAT     H141180   0.390   7.072   2.952
13646WAT     H241181   0.414   7.219   2.886
13647WAT      O41182   7.896   3.168   0.011
13647WAT     H141183   7.930   3.250   0.058
13647WAT     H241184   7.796   3.164   0.019
13648WAT      O41185   1.641   5.117   4.409
13648WAT     H141186   1.624   5.198   4.465
13648WAT     H241187   1.627   5.035   4.466
13649WAT      O41188   5.861   3.099   8.029
13649WAT     H141189   5.788   3.064   7.971
13649WAT     H241190   5.855   3.199   8.033
13650WAT      O41191   3.503   0.592   1.724
13650WAT     H141192   3.406   0.606   1.746
13650WAT     H241193   3.514   0.506   1.675
13651WAT      O41194   8.017   5.745   5.718
13651WAT     H141195   8.061   5.662   5.683
13651WAT     H241196   7.918   5.733   5.718
13652WAT      O41197   8.672   9.549   1.154
13652WAT     H141198   8.649   9.639   1.190
13652WAT     H241199   8.613   9.480   1.197
13653WAT      O41200   0.180   9.412   4.736
13653WAT     H141201   0.223   9.501   4.751
13653WAT     H241202   0.218   9.371   4.652
13654WAT      O41203   7.023   7.397   2.557
13654WAT     H141204   6.952   7.468   2.555
13654WAT     H241205   7.105   7.433   2.600
13655WAT      O41206   3.140   5.491   4.719
13655WAT     H141207   3.104   5.466   4.809
13655WAT     H241208   3.240   5.496   4.723
13656WAT      O41209   0.437   7.259   7.697
13656WAT     H141210   0.523   7.243   7.649
13656WAT     H241211   0.415   7.356   7.696
13657WAT      O41212   2.339   1.724   3.995
13657WAT     H141213   2.247   1.742   4.030
13657WAT     H241214   2.387   1.661   4.057
13658WAT      O41215   5.306   4.171   9.670
13658WAT     H141216   5.393   4.219   9.663
13658WAT     H241217   5.293   4.114   9.589
13659WAT      O41218   8.691   7.692   1.224
13659WAT     H141219   8.641   7.623   1.276
13659WAT     H241220   8.634   7.727   1.150
13660WAT      O41221   3.716   4.085   2.323
13660WAT     H141222   3.730   3.990   2.350
13660WAT     H241223   3.790   4.112   2.261
13661WAT      O41224   2.631   0.398   3.236
13661WAT     H141225   2.656   0.494   3.225
13661WAT     H241226   2.609   0.379   3.332
13662WAT      O41227   8.730   7.835   6.234
13662WAT     H141228   8.663   7.770   6.270
13662WAT     H241229   8.687   7.893   6.164
13663WAT      O41230   4.827   2.271   9.142
13663WAT     H141231   4.810   2.357   9.093
13663WAT     H241232   4.816   2.194   9.078
13664WAT      O41233   7.085   4.809   0.126
13664WAT     H141234   7.170   4.802   0.179
13664WAT     H241235   7.007   4.791   0.186
13665WAT      O41236   5.545   1.632   7.818
13665WAT     H141237   5.578   1.713   7.866
13665WAT     H241238   5.587   1.627   7.727
13666WAT      O41239   3.324   7.670   8.800
13666WAT     H141240   3.379   7.707   8.725
13666WAT     H241241   3.297   7.577   8.778
13667WAT      O41242   7.558   9.495   7.061
13667WAT     H141243   7.608   9.488   6.975
13667WAT     H241244   7.620   9.530   7.132
13668WAT      O41245   9.893   0.256   6.538
13668WAT     H141246   9.896   0.260   6.438
13668WAT     H241247   9.814   0.202   6.567
13669WAT      O41248   0.051   9.448   7.475
13669WAT     H141249   0.035   9.354   7.506
13669WAT     H241250   0.146   9.474   7.493
13670WAT      O41251   7.421   0.291   4.332
13670WAT     H141252   7.473   0.213   4.298
13670WAT     H241253   7.343   0.258   4.385
13671WAT      O41254   9.568   7.447   6.336
13671WAT     H141255   9.552   7.543   6.360
13671WAT     H241256   9.656   7.418   6.372
13672WAT      O41257   6.691   9.162   0.525
13672WAT     H141258   6.652   9.076   0.491
13672WAT     H241259   6.673   9.170   0.623
13673WAT      O41260   1.912   7.710   6.888
13673WAT     H141261   1.980   7.640   6.870
13673WAT     H241262   1.903   7.769   6.808
13674WAT      O41263   6.826   2.482   2.718
13674WAT     H141264   6.868   2.396   2.688
13674WAT     H241265   6.731   2.465   2.745
13675WAT      O41266   0.858   5.886   6.039
13675WAT     H141267   0.925   5.826   6.081
13675WAT     H241268   0.817   5.840   5.960
13676WAT      O41269   5.634   6.163   7.399
13676WAT     H141270   5.640   6.064   7.385
13676WAT     H241271   5.637   6.183   7.497
13677WAT      O41272   7.593   4.421   1.149
13677WAT     H141273   7.570   4.426   1.246
13677WAT     H241274   7.641   4.335   1.130
13678WAT      O41275   1.786   8.123   0.402
13678WAT     H141276   1.799   8.096   0.498
13678WAT     H241277   1.712   8.190   0.397
13679WAT      O41278   9.143   3.912   0.278
13679WAT     H141279   9.083   3.849   0.327
13679WAT     H241280   9.228   3.925   0.329
13680WAT      O41281   9.389   3.982   9.808
13680WAT     H141282   9.308   3.952   9.856
13680WAT     H241283   9.469   3.933   9.843
13681WAT      O41284   3.337   4.109   4.990
13681WAT     H141285   3.261   4.169   4.964
13681WAT     H241286   3.403   4.161   5.044
13682WAT      O41287   3.189   9.026   9.309
13682WAT     H141288   3.126   9.011   9.233
13682WAT     H241289   3.196   8.942   9.364
13683WAT      O41290   7.794   6.634   1.535
13683WAT     H141291   7.723   6.570   1.504
13683WAT     H241292   7.884   6.592   1.525
13684WAT      O41293   4.637   1.033   3.244
13684WAT     H141294   4.644   1.119   3.193
13684WAT     H241295   4.551   0.988   3.221
13685WAT      O41296   2.967   7.753   6.242
13685WAT     H141297   2.993   7.744   6.145
13685WAT     H241298   2.872   7.725   6.254
13686WAT      O41299   5.366   2.938   7.923
13686WAT     H141300   5.381   2.991   8.006
13686WAT     H241301   5.348   2.843   7.947
13687WAT      O41302   6.491   3.877   0.599
13687WAT     H141303   6.561   3.811   0.627
13687WAT     H241304   6.527   3.934   0.525
13688WAT      O41305   8.505   3.928   0.613
13688WAT     H141306   8.529   3.862   0.683
13688WAT     H241307   8.542   4.018   0.637
13689WAT      O41308   3.679   2.063   2.588
13689WAT     H141309   3.624   2.095   2.511
13689WAT     H241310   3.628   1.995   2.640
13690WAT      O41311   9.067   5.224   1.844
13690WAT     H141312   9.098   5.316   1.821
13690WAT     H241313   9.062   5.168   1.761
13691WAT      O41314   0.142   2.627   6.939
13691WAT     H141315   0.228   2.675   6.955
13691WAT     H241316   0.127   2.561   7.013
13692WAT      O41317   3.577   0.553   8.697
13692WAT     H141318   3.570   0.454   8.687
13692WAT     H241319   3.590   0.575   8.794
13693WAT      O41320   0.571   0.994   6.293
13693WAT     H141321   0.500   1.044   6.342
13693WAT     H241322   0.574   1.025   6.198
13694WAT      O41323   0.179   7.510   3.721
13694WAT     H141324   0.251   7.442   3.714
13694WAT     H241325   0.132   7.519   3.633
13695WAT      O41326   8.277   1.280   2.990
13695WAT     H141327   8.182   1.311   2.988
13695WAT     H241328   8.290   1.210   2.920
13696WAT      O41329   5.179   9.752   8.528
13696WAT     H141330   5.219   9.821   8.589
13696WAT     H241331   5.153   9.794   8.441
13697WAT      O41332   5.925   9.544   7.962
13697WAT     H141333   5.861   9.564   7.888
13697WAT     H241334   5.920   9.617   8.031
13698WAT      O41335   1.534   1.992   3.952
13698WAT     H141336   1.510   2.084   3.920
13698WAT     H241337   1.481   1.924   3.901
13699WAT      O41338   3.890   1.505   8.572
13699WAT     H141339   3.890   1.410   8.603
13699WAT     H241340   3.818   1.518   8.504
13700WAT      O41341   4.286   4.167   6.788
13700WAT     H141342   4.287   4.208   6.697
13700WAT     H241343   4.192   4.145   6.814
13701WAT      O41344   8.680   3.929   7.629
13701WAT     H141345   8.587   3.946   7.662
13701WAT     H241346   8.746   3.956   7.699
13702WAT      O41347   3.229   7.115   0.331
13702WAT     H141348   3.218   7.151   0.424
13702WAT     H241349   3.267   7.186   0.272
13703WAT      O41350   5.839   9.841   0.003
13703WAT     H141351   5.909   9.781   0.042
13703WAT     H241352   5.778   9.873   0.076
13704WAT      O41353   5.195   6.044   3.535
13704WAT     H141354   5.202   6.059   3.634
13704WAT     H241355   5.281   6.069   3.492
13705WAT      O41356   4.898   2.253   0.139
13705WAT     H141357   4.859   2.205   0.217
13705WAT     H241358   4.929   2.344   0.168
13706WAT      O41359   9.126   5.064   7.986
13706WAT     H141360   9.057   5.124   8.025
13706WAT     H241361   9.085   4.977   7.960
13707WAT      O41362   8.432   3.140   7.157
13707WAT     H141363   8.500   3.157   7.086
13707WAT     H241364   8.412   3.042   7.161
13708WAT      O41365   7.435   1.469   6.739
13708WAT     H141366   7.481   1.518   6.814
13708WAT     H241367   7.392   1.386   6.774
13709WAT      O41368   5.394   2.610   4.040
13709WAT     H141369   5.334   2.687   4.063
13709WAT     H241370   5.481   2.643   4.007
13710WAT      O41371   3.064   8.423   0.589
13710WAT     H141372   2.989   8.486   0.570
13710WAT     H241373   3.140   8.473   0.632
13711WAT      O41374   5.332   8.929   5.245
13711WAT     H141375   5.257   8.975   5.198
13711WAT     H241376   5.373   8.991   5.311
13712WAT      O41377   5.304   4.209   9.202
13712WAT     H141378   5.368   4.181   9.131
13712WAT     H241379   5.217   4.234   9.160
13713WAT      O41380   5.480   5.275   3.840
13713WAT     H141381   5.552   5.219   3.882
13713WAT     H241382   5.425   5.316   3.913
13714WAT      O41383   8.856   3.102   0.716
13714WAT     H141384   8.760   3.074   0.721
13714WAT     H241385   8.912   3.025   0.688
13715WAT      O41386   3.870   7.686   4.736
13715WAT     H141387   3.782   7.638   4.737
13715WAT     H241388   3.943   7.621   4.759
13716WAT      O41389   9.518   6.151   5.926
13716WAT     H141390   9.465   6.085   5.979
13716WAT     H241391   9.473   6.166   5.838
13717WAT      O41392   9.623   6.378   6.011
13717WAT     H141393   9.568   6.294   6.004
13717WAT     H241394   9.596   6.428   6.093
13718WAT      O41395   2.066   7.888   8.762
13718WAT     H141396   2.001   7.964   8.762
13718WAT     H241397   2.151   7.917   8.718
13719WAT      O41398   3.533   0.516   8.146
13719WAT     H141399   3.592   0.436   8.135
13719WAT     H241400   3.589   0.599   8.153
13720WAT      O41401   6.719   2.483   6.583
13720WAT     H141402   6.734   2.479   6.681
13720WAT     H241403   6.788   2.429   6.536
13721WAT      O41404   6.844   7.170   0.867
13721WAT     H141405   6.896   7.255   0.876
13721WAT     H241406   6.847   7.138   0.773
13722WAT      O41407   8.488   8.935   6.910
13722WAT     H141408   8.434   8.998   6.967
13722WAT     H241409   8.477   8.960   6.814
13723WAT      O41410   0.727   9.826   8.498
13723WAT     H141411   0.634   9.790   8.503
13723WAT     H241412   0.747   9.854   8.404
13724WAT      O41413   5.768   0.098   4.716
13724WAT     H141414   5.744   0.080   4.812
13724WAT     H241415   5.760   0.196   4.697
13725WAT      O41416   2.475   4.408   2.286
13725WAT     H141417   2.499   4.450   2.198
13725WAT     H241418   2.426   4.322   2.270
13726WAT      O41419   0.790   0.677   6.494
13726WAT     H141420   0.805   0.706   6.399
13726WAT     H241421   0.697   0.702   6.522
13727WAT      O41422   0.020   2.410   3.703
13727WAT     H141423  -0.052   2.355   3.661
13727WAT     H241424  -0.005   2.507   3.697
13728WAT      O41425   4.098   0.750   4.317
13728WAT     H141426   4.136   0.752   4.225
13728WAT     H241427   4.002   0.721   4.313
13729WAT      O41428   1.059   3.383   1.354
13729WAT     H141429   1.024   3.398   1.446
13729WAT     H241430   1.126   3.309   1.355
13730WAT      O41431   6.854   6.912   2.025
13730WAT     H141432   6.854   7.008   2.054
13730WAT     H241433   6.765   6.871   2.043
13731WAT      O41434   4.814   7.000   5.810
13731WAT     H141435   4.723   6.964   5.792
13731WAT     H241436   4.881   6.926   5.807
13732WAT      O41437   1.257   7.415   6.461
13732WAT     H141438   1.241   7.489   6.526
13732WAT     H241439   1.221   7.442   6.371
13733WAT      O41440   7.709   3.480   3.561
13733WAT     H141441   7.700   3.471   3.462
13733WAT     H241442   7.789   3.538   3.582
13734WAT      O41443   0.263   2.247   1.385
13734WAT     H141444   0.243   2.341   1.356
13734WAT     H241445   0.178   2.194   1.387
13735WAT      O41446   6.015   6.599   0.837
13735WAT     H141447   5.921   6.567   0.843
13735WAT     H241448   6.022   6.689   0.881
13736WAT      O41449   1.859   2.761   8.423
13736WAT     H141450   1.941   2.798   8.379
13736WAT     H241451   1.787   2.830   8.424
13737WAT      O41452   7.775   2.621   1.064
13737WAT     H141453   7.870   2.631   1.095
13737WAT     H241454   7.748   2.525   1.072
13738WAT      O41455   1.813   3.924   4.152
13738WAT     H141456   1.904   3.893   4.181
13738WAT     H241457   1.821   4.015   4.112
13739WAT      O41458   5.528   1.559   5.118
13739WAT     H141459   5.494   1.470   5.148
13739WAT     H241460   5.474   1.589   5.039
13740WAT      O41461   5.804   2.588   9.117
13740WAT     H141462   5.708   2.598   9.144
13740WAT     H241463   5.838   2.676   9.083
13741WAT      O41464   9.406   4.559   8.965
13741WAT     H141465   9.504   4.568   8.944
13741WAT     H241466   9.394   4.518   9.055
13742WAT      O41467   2.596   4.437   8.856
13742WAT     H141468   2.525   4.393   8.801
13742WAT     H241469   2.683   4.435   8.807
13743WAT      O41470   4.293   1.408   8.128
13743WAT     H141471   4.256   1.493   8.089
13743WAT     H241472   4.275   1.332   8.066
13744WAT      O41473   3.438   6.318   2.459
13744WAT     H141474   3.440   6.278   2.550
13744WAT     H241475   3.429   6.418   2.467
13745WAT      O41476   6.521   7.275   9.521
13745WAT     H141477   6.468   7.308   9.599
13745WAT     H241478   6.559   7.353   9.471
13746WAT      O41479   4.475   4.851   1.026
13746WAT     H141480   4.449   4.833   0.931
13746WAT     H241481   4.554   4.911   1.029
13747WAT      O41482   9.688   0.892   2.280
13747WAT     H141483   9.656   0.960   2.346
13747WAT     H241484   9.783   0.911   2.256
13748WAT      O41485   7.936   3.466   0.575
13748WAT     H141486   7.921   3.512   0.662
13748WAT     H241487   7.954   3.534   0.504
13749WAT      O41488   5.465   6.565   9.698
13749WAT     H141489   5.388   6.589   9.757
13749WAT     H241490   5.542   6.627   9.718
13750WAT      O41491   6.801   3.905   1.392
13750WAT     H141492   6.723   3.843   1.395
13750WAT     H241493   6.885   3.852   1.405
13751WAT      O41494   8.018   0.638   7.600
13751WAT     H141495   8.005   0.550   7.555
13751WAT     H241496   7.929   0.680   7.617
13752WAT      O41497   4.429   7.196   5.605
13752WAT     H141498   4.347   7.223   5.554
13752WAT     H241499   4.433   7.246   5.691
13753WAT      O41500   0.828   8.888   7.677
13753WAT     H141501   0.912   8.834   7.663
13753WAT     H241502   0.845   8.983   7.653
13754WAT      O41503   0.211   5.782   0.562
13754WAT     H141504   0.271   5.773   0.482
13754WAT     H241505   0.132   5.838   0.538
13755WAT      O41506   6.423   3.238   7.317
13755WAT     H141507   6.500   3.285   7.360
13755WAT     H241508   6.343   3.242   7.376
13756WAT      O41509   1.505   0.455   5.239
13756WAT     H141510   1.517   0.375   5.181
13756WAT     H241511   1.529   0.538   5.189
13757WAT      O41512   6.831   1.190   6.092
13757WAT     H141513   6.819   1.276   6.043
13757WAT     H241514   6.744   1.163   6.133
13758WAT      O41515   6.566   0.394   2.044
13758WAT     H141516   6.607   0.432   2.127
13758WAT     H241517   6.490   0.334   2.070
13759WAT      O41518   4.140   7.443   3.621
13759WAT     H141519   4.125   7.529   3.670
13759WAT     H241520   4.137   7.367   3.687
13760WAT      O41521   8.532   1.003   4.621
13760WAT     H141522   8.631   1.013   4.624
13760WAT     H241523   8.493   1.071   4.559
13761WAT      O41524   7.136   5.735   8.543
13761WAT     H141525   7.092   5.767   8.627
13761WAT     H241526   7.235   5.740   8.553
13762WAT      O41527   2.523   3.254   7.252
13762WAT     H141528   2.444   3.272   7.312
13762WAT     H241529   2.592   3.203   7.303
13763WAT      O41530   4.644   2.148   1.905
13763WAT     H141531   4.596   2.208   1.970
13763WAT     H241532   4.713   2.202   1.855
13764WAT      O41533   0.839   0.628   3.122
13764WAT     H141534   0.908   0.672   3.065
13764WAT     H241535   0.867   0.534   3.143
13765WAT      O41536   6.823   1.079   3.025
13765WAT     H141537   6.871   0.997   2.992
13765WAT     H241538   6.844   1.156   2.965
13766WAT      O41539   6.558   4.967   3.214
13766WAT     H141540   6.569   4.872   3.183
13766WAT     H241541   6.598   4.978   3.305
13767WAT      O41542   5.658   2.061   9.249
13767WAT     H141543   5.622   2.151   9.273
13767WAT     H241544   5.584   1.995   9.248
13768WAT      O41545   6.685   9.229   9.700
13768WAT     H141546   6.727   9.140   9.717
13768WAT     H241547   6.615   9.220   9.630
13769WAT      O41548   5.570   5.277   7.852
13769WAT     H141549   5.594   5.241   7.762
13769WAT     H241550   5.510   5.356   7.841
13770WAT      O41551   2.628   2.613   9.778
13770WAT     H141552   2.557   2.569   9.724
13770WAT     H241553   2.710   2.557   9.778
13771WAT      O41554   7.358   4.612   6.726
13771WAT     H141555   7.436   4.661   6.687
13771WAT     H241556   7.366   4.514   6.706
13772WAT      O41557   8.099   4.619   4.006
13772WAT     H141558   8.010   4.656   3.979
13772WAT     H241559   8.088   4.525   4.037
13773WAT      O41560   2.095   4.672   6.062
13773WAT     H141561   2.009   4.646   6.018
13773WAT     H241562   2.109   4.616   6.144
13774WAT      O41563   5.697   0.760   1.870
13774WAT     H141564   5.710   0.700   1.791
13774WAT     H241565   5.643   0.839   1.842
13775WAT      O41566   8.698   9.549   5.977
13775WAT     H141567   8.708   9.449   5.984
13775WAT     H241568   8.779   9.587   5.932
13776WAT      O41569   3.061   6.774   2.393
13776WAT     H141570   3.047   6.814   2.302
13776WAT     H241571   3.145   6.811   2.433
13777WAT      O41572   6.519   0.427   6.863
13777WAT     H141573   6.455   0.395   6.934
13777WAT     H241574   6.467   0.455   6.783
13778WAT      O41575   4.638   3.294   4.534
13778WAT     H141576   4.663   3.386   4.566
13778WAT     H241577   4.721   3.238   4.526
13779WAT      O41578   8.108   1.118   1.650
13779WAT     H141579   8.125   1.200   1.704
13779WAT     H241580   8.193   1.067   1.639
13780WAT      O41581   0.500   3.353   8.857
13780WAT     H141582   0.416   3.368   8.909
13780WAT     H241583   0.579   3.367   8.916
13781WAT      O41584   0.593   2.085   3.070
13781WAT     H141585   0.606   2.056   3.165
13781WAT     H241586   0.581   2.185   3.067
13782WAT      O41587   9.609   2.534   3.381
13782WAT     H141588   9.591   2.504   3.287
13782WAT     H241589   9.636   2.455   3.436
13783WAT      O41590   6.122   6.427   5.848
13783WAT     H141591   6.128   6.329   5.866
13783WAT     H241592   6.045   6.465   5.898
13784WAT      O41593   7.388   4.518   7.946
13784WAT     H141594   7.312   4.580   7.925
13784WAT     H241595   7.371   4.428   7.906
13785WAT      O41596   4.130   4.061   4.451
13785WAT     H141597   4.054   3.997   4.456
13785WAT     H241598   4.214   4.012   4.428
13786WAT      O41599   6.975   8.861   3.761
13786WAT     H141600   6.912   8.924   3.717
13786WAT     H241601   6.939   8.768   3.756
13787WAT      O41602   9.771   1.087   6.498
13787WAT     H141603   9.695   1.048   6.446
13787WAT     H241604   9.853   1.089   6.440
13788WAT      O41605   2.428   5.582   5.009
13788WAT     H141606   2.452   5.508   5.072
13788WAT     H241607   2.364   5.645   5.053
13789WAT      O41608   3.832   6.328   7.883
13789WAT     H141609   3.737   6.313   7.856
13789WAT     H241610   3.834   6.388   7.963
13790WAT      O41611   9.272   4.161   6.363
13790WAT     H141612   9.261   4.097   6.439
13790WAT     H241613   9.207   4.236   6.372
13791WAT      O41614   1.342   2.223   5.295
13791WAT     H141615   1.316   2.235   5.391
13791WAT     H241616   1.374   2.310   5.257
13792WAT      O41617   9.172   0.929   1.515
13792WAT     H141618   9.188   1.001   1.582
13792WAT     H241619   9.220   0.846   1.543
13793WAT      O41620   3.898   4.675   6.690
13793WAT     H141621   3.835   4.704   6.617
13793WAT     H241622   3.939   4.588   6.665
13794WAT      O41623   0.236   0.421   6.316
13794WAT     H141624   0.157   0.469   6.354
13794WAT     H241625   0.316   0.480   6.319
13795WAT      O41626   6.086   2.945   8.101
13795WAT     H141627   6.041   2.923   8.015
13795WAT     H241628   6.037   3.021   8.145
13796WAT      O41629   0.643   0.028   7.301
13796WAT     H141630   0.544   0.042   7.302
13796WAT     H241631   0.686   0.097   7.242
13797WAT      O41632   3.595   8.196   5.572
13797WAT     H141633   3.546   8.179   5.658
13797WAT     H241634   3.652   8.277   5.582
13798WAT      O41635   9.440   7.091   7.165
13798WAT     H141636   9.495   7.088   7.249
13798WAT     H241637   9.501   7.085   7.086
13799WAT      O41638   4.268   3.959   8.180
13799WAT     H141639   4.228   4.022   8.246
13799WAT     H241640   4.195   3.911   8.131
13800WAT      O41641   0.689   7.714   8.347
13800WAT     H141642   0.751   7.792   8.349
13800WAT     H241643   0.597   7.745   8.323
13801WAT      O41644   1.183   9.540   4.529
13801WAT     H141645   1.192   9.603   4.607
13801WAT     H241646   1.192   9.446   4.561
13802WAT      O41647   5.635   1.700   6.582
13802WAT     H141648   5.637   1.613   6.631
13802WAT     H241649   5.578   1.692   6.501
13803WAT      O41650   9.844   0.606   1.184
13803WAT     H141651   9.873   0.607   1.089
13803WAT     H241652   9.810   0.697   1.209
13804WAT      O41653   5.197   6.506   1.509
13804WAT     H141654   5.140   6.519   1.428
13804WAT     H241655   5.138   6.504   1.590
13805WAT      O41656   0.696   8.363   9.499
13805WAT     H141657   0.757   8.317   9.562
13805WAT     H241658   0.743   8.441   9.458
13806WAT      O41659   7.277   8.796   0.288
13806WAT     H141660   7.271   8.797   0.188
13806WAT     H241661   7.372   8.786   0.316
13807WAT      O41662   8.487   6.936   2.147
13807WAT     H141663   8.511   7.028   2.117
13807WAT     H241664   8.387   6.927   2.151
13808WAT      O41665   5.736   0.879   2.858
13808WAT     H141666   5.762   0.955   2.918
13808WAT     H241667   5.641   0.853   2.876
13809WAT      O41668   5.539   5.788   1.667
13809WAT     H141669   5.453   5.805   1.715
13809WAT     H241670   5.528   5.709   1.608
13810WAT      O41671   3.214   6.254   4.486
13810WAT     H141672   3.253   6.307   4.411
13810WAT     H241673   3.211   6.157   4.461
13811WAT      O41674   1.931   5.340   0.965
13811WAT     H141675   1.876   5.260   0.939
13811WAT     H241676   1.952   5.337   1.062
13812WAT      O41677   3.311   2.583   9.330
13812WAT     H141678   3.306   2.484   9.322
13812WAT     H241679   3.221   2.623   9.315
13813WAT      O41680   0.582   8.081   1.030
13813WAT     H141681   0.583   8.180   1.045
13813WAT     H241682   0.671   8.043   1.057
13814WAT      O41683   0.986   1.182   0.215
13814WAT     H141684   0.956   1.220   0.128
13814WAT     H241685   1.013   1.256   0.276
13815WAT      O41686   9.420   4.952   0.485
13815WAT     H141687   9.461   5.020   0.425
13815WAT     H241688   9.367   4.887   0.430
13816WAT      O41689   2.661   0.156   2.488
13816WAT     H141690   2.684   0.236   2.544
13816WAT     H241691   2.721   0.080   2.514
13817WAT      O41692   1.203   3.440   3.538
13817WAT     H141693   1.210   3.503   3.616
13817WAT     H241694   1.107   3.428   3.514
13818WAT      O41695   6.125   7.204   7.278
13818WAT     H141696   6.128   7.279   7.212
13818WAT     H241697   6.035   7.201   7.321
13819WAT      O41698   4.056   4.228   9.159
13819WAT     H141699   4.025   4.312   9.205
13819WAT     H241700   3.991   4.154   9.178
13820WAT      O41701   2.032   1.847   2.912
13820WAT     H141702   2.017   1.768   2.852
13820WAT     H241703   1.975   1.839   2.993
13821WAT      O41704   6.466   2.000   4.818
13821WAT     H141705   6.421   2.030   4.903
13821WAT     H241706   6.423   1.916   4.786
13822WAT      O41707   5.785   1.907   8.764
13822WAT     H141708   5.760   1.863   8.850
13822WAT     H241709   5.702   1.925   8.710
13823WAT      O41710   7.230   2.527   1.490
13823WAT     H141711   7.226   2.600   1.558
13823WAT     H241712   7.304   2.464   1.513
13824WAT      O41713   4.815   9.737   7.312
13824WAT     H141714   4.803   9.818   7.255
13824WAT     H241715   4.755   9.664   7.279
13825WAT      O41716   0.615   4.577   6.854
13825WAT     H141717   0.647   4.483   6.861
13825WAT     H241718   0.563   4.589   6.770
13826WAT      O41719   5.717   7.709   9.693
13826WAT     H141720   5.811   7.673   9.702
13826WAT     H241721   5.697   7.768   9.771
13827WAT      O41722   8.316   4.991   7.131
13827WAT     H141723   8.382   4.924   7.165
13827WAT     H241724   8.255   4.948   7.065
13828WAT      O41725   0.038   5.604   5.402
13828WAT     H141726   0.018   5.581   5.307
13828WAT     H241727  -0.041   5.648   5.444
13829WAT      O41728   9.613   1.056   2.477
13829WAT     H141729   9.592   1.154   2.484
13829WAT     H241730   9.658   1.026   2.561
13830WAT      O41731   0.911   9.538   6.239
13830WAT     H141732   0.850   9.559   6.162
13830WAT     H241733   0.880   9.455   6.284
13831WAT      O41734   5.673   7.459   4.926
13831WAT     H141735   5.616   7.380   4.903
13831WAT     H241736   5.715   7.496   4.843
13832WAT      O41737   5.919   4.824   6.459
13832WAT     H141738   5.874   4.852   6.374
13832WAT     H241739   6.007   4.782   6.438
13833WAT      O41740   7.408   1.589   3.321
13833WAT     H141741   7.435   1.528   3.396
13833WAT     H241742   7.399   1.537   3.237
13834WAT      O41743   6.937   5.213   6.616
13834WAT     H141744   7.000   5.273   6.666
13834WAT     H241745   6.922   5.130   6.670
13835WAT      O41746   2.503   6.118   3.414
13835WAT     H141747   2.411   6.088   3.440
13835WAT     H241748   2.497   6.203   3.361
13836WAT      O41749   6.570   3.202   7.075
13836WAT     H141750   6.575   3.296   7.041
13836WAT     H241751   6.506   3.199   7.152
13837WAT      O41752   6.243   6.488   4.409
13837WAT     H141753   6.311   6.543   4.458
13837WAT     H241754   6.155   6.495   4.456
13838WAT      O41755   0.159   7.752   4.345
13838WAT     H141756   0.164   7.691   4.266
13838WAT     H241757   0.221   7.719   4.416
13839WAT      O41758   4.044   7.774   6.815
13839WAT     H141759   4.021   7.732   6.727
13839WAT     H241760   4.123   7.728   6.854
13840WAT      O41761   2.837   8.045   8.753
13840WAT     H141762   2.812   8.094   8.669
13840WAT     H241763   2.919   7.990   8.736
13841WAT      O41764   8.860   6.713   4.821
13841WAT     H141765   8.902   6.779   4.883
13841WAT     H241766   8.763   6.703   4.844
13842WAT      O41767   7.756   3.440   7.586
13842WAT     H141768   7.700   3.361   7.558
13842WAT     H241769   7.787   3.427   7.680
13843WAT      O41770   4.246   0.733   4.888
13843WAT     H141771   4.254   0.658   4.823
13843WAT     H241772   4.287   0.707   4.975
13844WAT      O41773   0.919   2.644   5.418
13844WAT     H141774   0.980   2.608   5.489
13844WAT     H241775   0.824   2.623   5.443
13845WAT      O41776   4.512   8.095   8.600
13845WAT     H141777   4.473   8.074   8.690
13845WAT     H241778   4.577   8.024   8.574
13846WAT      O41779   7.212   4.915   9.516
13846WAT     H141780   7.128   4.863   9.532
13846WAT     H241781   7.291   4.859   9.537
13847WAT      O41782   0.285   4.300   4.654
13847WAT     H141783   0.305   4.202   4.653
13847WAT     H241784   0.336   4.344   4.727
13848WAT      O41785   2.207   7.992   7.598
13848WAT     H141786   2.257   8.068   7.557
13848WAT     H241787   2.195   7.919   7.530
13849WAT      O41788   2.432   4.729   6.807
13849WAT     H141789   2.468   4.821   6.796
13849WAT     H241790   2.401   4.717   6.902
13850WAT      O41791   2.421   8.537   7.725
13850WAT     H141792   2.418   8.490   7.637
13850WAT     H241793   2.485   8.614   7.719
13851WAT      O41794   8.775   3.038   9.101
13851WAT     H141795   8.705   3.079   9.043
13851WAT     H241796   8.733   2.979   9.169
13852WAT      O41797   6.869   6.608   8.607
13852WAT     H141798   6.815   6.596   8.691
13852WAT     H241799   6.897   6.519   8.572
13853WAT      O41800   3.374   2.382   1.141
13853WAT     H141801   3.350   2.479   1.140
13853WAT     H241802   3.473   2.372   1.138
13854WAT      O41803   8.358   3.161   3.778
13854WAT     H141804   8.392   3.069   3.759
13854WAT     H241805   8.282   3.156   3.843
13855WAT      O41806   7.313   0.715   6.068
13855WAT     H141807   7.261   0.682   6.147
13855WAT     H241808   7.249   0.742   5.995
13856WAT      O41809   8.550   1.569   0.803
13856WAT     H141810   8.574   1.543   0.896
13856WAT     H241811   8.622   1.628   0.765
13857WAT      O41812   3.557   4.834   7.360
13857WAT     H141813   3.613   4.848   7.278
13857WAT     H241814   3.491   4.908   7.368
13858WAT      O41815   2.544   8.694   7.021
13858WAT     H141816   2.557   8.768   7.087
13858WAT     H241817   2.631   8.646   7.008
13859WAT      O41818   1.395   5.949   8.747
13859WAT     H141819   1.410   5.975   8.652
13859WAT     H241820   1.386   5.849   8.754
13860WAT      O41821   4.023   0.408   6.370
13860WAT     H141822   3.997   0.330   6.314
13860WAT     H241823   4.065   0.478   6.312
13861WAT      O41824   6.378   7.533   4.189
13861WAT     H141825   6.394   7.569   4.281
13861WAT     H241826   6.431   7.587   4.123
13862WAT      O41827   7.337   1.603   4.940
13862WAT     H141828   7.252   1.577   4.892
13862WAT     H241829   7.350   1.543   5.019
13863WAT      O41830   6.825   1.557   0.895
13863WAT     H141831   6.855   1.566   0.989
13863WAT     H241832   6.737   1.509   0.893
13864WAT      O41833   6.073   9.747   0.799
13864WAT     H141834   6.160   9.796   0.806
13864WAT     H241835   6.074   9.689   0.718
13865WAT      O41836   3.847   4.773   9.453
13865WAT     H141837   3.834   4.695   9.391
13865WAT     H241838   3.794   4.851   9.419
13866WAT      O41839   7.387   9.109   8.890
13866WAT     H141840   7.318   9.085   8.958
13866WAT     H241841   7.408   9.029   8.834
13867WAT      O41842   4.691   2.525   8.036
13867WAT     H141843   4.692   2.595   7.964
13867WAT     H241844   4.744   2.446   8.006
13868WAT      O41845   2.162   2.218   6.174
13868WAT     H141846   2.106   2.293   6.209
13868WAT     H241847   2.166   2.224   6.074
13869WAT      O41848   4.238   6.626   7.082
13869WAT     H141849   4.332   6.615   7.052
13869WAT     H241850   4.236   6.631   7.182
13870WAT      O41851   0.304   0.037   4.099
13870WAT     H141852   0.220   0.085   4.075
13870WAT     H241853   0.345  -0.002   4.016
13871WAT      O41854   1.005   0.763   4.338
13871WAT     H141855   0.926   0.812   4.377
13871WAT     H241856   1.031   0.688   4.399
13872WAT      O41857   2.323   7.131   0.082
13872WAT     H141858   2.231   7.114   0.046
13872WAT     H241859   2.365   7.045   0.111
13873WAT      O41860   5.312   5.589   7.035
13873WAT     H141861   5.307   5.494   7.002
13873WAT     H241862   5.240   5.604   7.102
13874WAT      O41863   5.877   9.173   4.047
13874WAT     H141864   5.910   9.210   4.134
13874WAT     H241865   5.812   9.237   4.007
13875WAT      O41866   6.325   6.732   6.234
13875WAT     H141867   6.292   6.788   6.158
13875WAT     H241868   6.255   6.665   6.258
13876WAT      O41869   8.670   3.422   4.657
13876WAT     H141870   8.725   3.467   4.728
13876WAT     H241871   8.576   3.412   4.689
13877WAT      O41872   8.424   3.062   1.717
13877WAT     H141873   8.448   3.010   1.800
13877WAT     H241874   8.431   3.002   1.638
13878WAT      O41875   7.011   0.954   2.787
13878WAT     H141876   7.037   1.040   2.832
13878WAT     H241877   7.089   0.893   2.785
13879WAT      O41878   4.821   0.005   6.210
13879WAT     H141879   4.804   0.034   6.304
13879WAT     H241880   4.846   0.084   6.154
13880WAT      O41881   6.955   7.052   7.255
13880WAT     H141882   6.985   7.065   7.160
13880WAT     H241883   6.950   7.141   7.300
13881WAT      O41884   8.536   3.904   0.350
13881WAT     H141885   8.512   3.910   0.447
13881WAT     H241886   8.515   3.813   0.315
13882WAT      O41887   8.176   0.551   7.800
13882WAT     H141888   8.159   0.455   7.819
13882WAT     H241889   8.129   0.578   7.716
13883WAT      O41890   7.023   6.195   3.893
13883WAT     H141891   7.021   6.206   3.993
13883WAT     H241892   7.114   6.165   3.865
13884WAT      O41893   2.422   7.034   6.753
13884WAT     H141894   2.394   6.975   6.829
13884WAT     H241895   2.441   6.978   6.673
13885WAT      O41896   1.349   2.209   6.311
13885WAT     H141897   1.280   2.225   6.381
13885WAT     H241898   1.304   2.184   6.225
13886WAT      O41899   6.838   5.568   6.631
13886WAT     H141900   6.868   5.475   6.653
13886WAT     H241901   6.745   5.582   6.665
13887WAT      O41902   4.679   8.881   3.097
13887WAT     H141903   4.677   8.783   3.075
13887WAT     H241904   4.654   8.894   3.193
13888WAT      O41905   3.506   4.510   8.937
13888WAT     H141906   3.480   4.423   8.979
13888WAT     H241907   3.452   4.584   8.977
13889WAT      O41908   7.309   1.456   1.921
13889WAT     H141909   7.213   1.464   1.948
13889WAT     H241910   7.317   1.466   1.822
13890WAT      O41911   6.237   0.435   3.414
13890WAT     H141912   6.337   0.436   3.423
13890WAT     H241913   6.205   0.341   3.421
13891WAT      O41914   0.665   4.591   3.688
13891WAT     H141915   0.749   4.537   3.685
13891WAT     H241916   0.661   4.649   3.607
13892WAT      O41917   1.579   7.067   6.980
13892WAT     H141918   1.504   7.088   6.917
13892WAT     H241919   1.572   7.126   7.061
13893WAT      O41920   9.875   4.424   7.603
13893WAT     H141921   9.850   4.458   7.513
13893WAT     H241922   9.798   4.433   7.666
13894WAT      O41923   1.593   7.547   5.293
13894WAT     H141924   1.520   7.530   5.227
13894WAT     H241925   1.555   7.547   5.386
13895WAT      O41926   8.659   5.516   9.671
13895WAT     H141927   8.649   5.544   9.575
13895WAT     H241928   8.592   5.445   9.692
13896WAT      O41929   3.070   5.454   6.734
13896WAT     H141930   2.994   5.450   6.670
13896WAT     H241931   3.104   5.362   6.751
13897WAT      O41932   1.330   8.620   5.471
13897WAT     H141933   1.360   8.571   5.389
13897WAT     H241934   1.374   8.580   5.551
13898WAT      O41935   0.295   7.589   4.818
13898WAT     H141936   0.378   7.614   4.868
13898WAT     H241937   0.217   7.637   4.857
13899WAT      O41938   6.439   4.860   8.662
13899WAT     H141939   6.436   4.838   8.759
13899WAT     H241940   6.518   4.816   8.620
13900WAT      O41941   9.616   3.998   6.945
13900WAT     H141942   9.579   4.089   6.964
13900WAT     H241943   9.713   4.006   6.924
13901WAT      O41944   1.609   5.032   2.987
13901WAT     H141945   1.695   5.080   2.972
13901WAT     H241946   1.586   4.980   2.904
13902WAT      O41947   0.616   1.266   1.711
13902WAT     H141948   0.695   1.264   1.651
13902WAT     H241949   0.644   1.291   1.804
13903WAT      O41950   0.902   0.841   5.359
13903WAT     H141951   0.979   0.882   5.408
13903WAT     H241952   0.820   0.896   5.375
13904WAT      O41953   2.860   6.158   1.631
13904WAT     H141954   2.815   6.076   1.596
13904WAT     H241955   2.907   6.137   1.716
13905WAT      O41956   5.568   8.584   5.082
13905WAT     H141957   5.623   8.656   5.041
13905WAT     H241958   5.482   8.573   5.031
13906WAT      O41959   5.824   6.778   1.176
13906WAT     H141960   5.790   6.857   1.227
13906WAT     H241961   5.864   6.712   1.239
13907WAT      O41962   5.616   4.494   2.550
13907WAT     H141963   5.666   4.572   2.587
13907WAT     H241964   5.631   4.414   2.609
13908WAT      O41965   7.935   3.243   8.772
13908WAT     H141966   7.857   3.253   8.834
13908WAT     H241967   8.018   3.225   8.825
13909WAT      O41968   1.638   5.340   2.563
13909WAT     H141969   1.686   5.285   2.495
13909WAT     H241970   1.690   5.341   2.648
13910WAT      O41971   3.235   2.011   0.505
13910WAT     H141972   3.143   1.974   0.514
13910WAT     H241973   3.235   2.107   0.535
13911WAT      O41974   2.315   2.732   0.482
13911WAT     H141975   2.265   2.647   0.497
13911WAT     H241976   2.278   2.803   0.542
13912WAT      O41977   7.846   2.348   4.769
13912WAT     H141978   7.794   2.324   4.687
13912WAT     H241979   7.783   2.368   4.843
13913WAT      O41980   9.449   0.928   9.819
13913WAT     H141981   9.430   0.835   9.786
13913WAT     H241982   9.538   0.958   9.784
13914WAT      O41983   8.248   3.018   1.244
13914WAT     H141984   8.192   2.988   1.167
13914WAT     H241985   8.332   3.060   1.210
13915WAT      O41986   7.299   6.124   4.815
13915WAT     H141987   7.199   6.122   4.808
13915WAT     H241988   7.328   6.215   4.845
13916WAT      O41989   1.015   0.550   1.860
13916WAT     H141990   1.018   0.635   1.808
13916WAT     H241991   1.051   0.475   1.805
13917WAT      O41992   7.140   6.311   1.712
13917WAT     H141993   7.125   6.410   1.716
13917WAT     H241994   7.230   6.293   1.674
13918WAT      O41995   1.595   1.536   1.790
13918WAT     H141996   1.591   1.559   1.887
13918WAT     H241997   1.546   1.605   1.737
13919WAT      O41998   6.651   2.019   7.863
13919WAT     H141999   6.574   1.967   7.825
13919WAT     H242000   6.685   1.973   7.945
13920WAT      O42001   8.860   9.000   5.725
13920WAT     H142002   8.768   8.963   5.739
13920WAT     H242003   8.878   9.069   5.794
13921WAT      O42004   3.006   1.486   4.040
13921WAT     H142005   3.058   1.472   4.123
13921WAT     H242006   3.029   1.415   3.973
13922WAT      O42007   0.129   4.026   1.072
13922WAT     H142008   0.154   4.012   1.168
13922WAT     H242009   0.182   3.963   1.014
13923WAT      O42010   2.993   0.655   9.831
13923WAT     H142011   3.055   0.627   9.757
13923WAT     H242012   2.949   0.741   9.806
13924WAT      O42013   6.440   9.501   3.954
13924WAT     H142014   6.406   9.582   4.001
13924WAT     H242015   6.364   9.457   3.905
13925WAT      O42016   4.880   7.079   3.714
13925WAT     H142017   4.815   7.151   3.735
13925WAT     H242018   4.927   7.051   3.798
13926WAT      O42019   6.913   7.416   6.395
13926WAT     H142020   6.892   7.430   6.492
13926WAT     H242021   7.005   7.379   6.387
13927WAT      O42022   9.709   2.164   5.788
13927WAT     H142023   9.805   2.192   5.801
13927WAT     H242024   9.676   2.200   5.701
13928WAT      O42025   8.147   1.585   4.243
13928WAT     H142026   8.076   1.570   4.174
13928WAT     H242027   8.119   1.544   4.330
13929WAT      O42028   1.089   2.875   8.329
13929WAT     H142029   1.008   2.821   8.306
13929WAT     H242030   1.153   2.873   8.252
13930WAT      O42031   2.954   3.655   7.747
13930WAT     H142032   2.910   3.568   7.726
13930WAT     H242033   2.884   3.726   7.758
13931WAT      O42034   7.296   4.279   0.402
13931WAT     H142035   7.336   4.352   0.346
13931WAT     H242036   7.364   4.207   0.416
13932WAT      O42037   6.212   8.505   9.187
13932WAT     H142038   6.301   8.500   9.142
13932WAT     H242039   6.220   8.474   9.282
13933WAT      O42040   6.613   7.556   9.731
13933WAT     H142041   6.601   7.616   9.652
13933WAT     H242042   6.538   7.569   9.795
13934WAT      O42043   4.702   6.902   8.733
13934WAT     H142044   4.603   6.906   8.747
13934WAT     H242045   4.721   6.863   8.643
13935WAT      O42046   8.006   1.156   5.471
13935WAT     H142047   7.934   1.225   5.461
13935WAT     H242048   8.003   1.092   5.394
13936WAT      O42049   8.788   7.643   0.770
13936WAT     H142050   8.722   7.581   0.811
13936WAT     H242051   8.813   7.610   0.678
13937WAT      O42052   3.422   7.932   9.183
13937WAT     H142053   3.441   8.028   9.161
13937WAT     H242054   3.386   7.925   9.276
13938WAT      O42055   0.470   9.081   6.755
13938WAT     H142056   0.396   9.073   6.688
13938WAT     H242057   0.459   9.166   6.806
13939WAT      O42058   7.219   2.884   4.304
13939WAT     H142059   7.187   2.959   4.248
13939WAT     H242060   7.144   2.851   4.362
13940WAT      O42061   5.815   2.885   0.464
13940WAT     H142062   5.733   2.832   0.484
13940WAT     H242063   5.851   2.924   0.549
13941WAT      O42064   6.746   0.930   7.679
13941WAT     H142065   6.839   0.903   7.702
13941WAT     H242066   6.729   0.912   7.583
13942WAT      O42067   3.306   0.823   6.186
13942WAT     H142068   3.253   0.791   6.265
13942WAT     H242069   3.370   0.752   6.158
13943WAT      O42070   7.190   2.315   2.717
13943WAT     H142071   7.185   2.412   2.693
13943WAT     H242072   7.227   2.306   2.810
13944WAT      O42073   1.840   6.680   6.784
13944WAT     H142074   1.813   6.708   6.691
13944WAT     H242075   1.884   6.591   6.780
13945WAT      O42076   7.698   4.527   2.953
13945WAT     H142077   7.779   4.477   2.924
13945WAT     H242078   7.673   4.594   2.882
13946WAT      O42079   1.998   8.523   4.089
13946WAT     H142080   1.915   8.490   4.044
13946WAT     H242081   2.068   8.452   4.085
13947WAT      O42082   8.737   4.990   5.131
13947WAT     H142083   8.749   4.896   5.098
13947WAT     H242084   8.640   5.007   5.147
13948WAT      O42085   6.357   4.456   2.084
13948WAT     H142086   6.293   4.446   2.160
13948WAT     H242087   6.380   4.553   2.073
13949WAT      O42088   2.469   6.751   5.399
13949WAT     H142089   2.557   6.781   5.435
13949WAT     H242090   2.473   6.653   5.378
13950WAT      O42091   3.910   9.024   4.120
13950WAT     H142092   3.939   9.052   4.028
13950WAT     H242093   3.811   9.004   4.119
13951WAT      O42094   7.620   0.567   1.844
13951WAT     H142095   7.605   0.559   1.746
13951WAT     H242096   7.673   0.650   1.863
13952WAT      O42097   1.589   9.621   1.110
13952WAT     H142098   1.546   9.690   1.051
13952WAT     H242099   1.547   9.624   1.201
13953WAT      O42100   2.413   0.922   4.338
13953WAT     H142101   2.381   0.953   4.249
13953WAT     H242102   2.498   0.969   4.361
13954WAT      O42103   2.091   0.941   2.597
13954WAT     H142104   2.052   1.032   2.603
13954WAT     H242105   2.050   0.883   2.668
13955WAT      O42106   2.122   8.815   2.473
13955WAT     H142107   2.083   8.851   2.558
13955WAT     H242108   2.140   8.891   2.410
13956WAT      O42109   2.696   4.331   6.467
13956WAT     H142110   2.719   4.411   6.522
13956WAT     H242111   2.642   4.359   6.387
13957WAT      O42112   3.793   0.828   5.376
13957WAT     H142113   3.801   0.824   5.276
13957WAT     H242114   3.879   0.864   5.414
13958WAT      O42115   6.422   9.339   0.794
13958WAT     H142116   6.519   9.317   0.790
13958WAT     H242117   6.377   9.310   0.710
13959WAT      O42118   3.721   9.493   3.641
13959WAT     H142119   3.775   9.526   3.718
13959WAT     H242120   3.641   9.552   3.629
13960WAT      O42121   6.317   6.686   2.430
13960WAT     H142122   6.236   6.686   2.489
13960WAT     H242123   6.365   6.599   2.439
13961WAT      O42124   0.810   4.021   0.955
13961WAT     H142125   0.715   4.036   0.982
13961WAT     H242126   0.841   3.932   0.990
13962WAT      O42127   2.949   3.414   8.349
13962WAT     H142128   2.992   3.489   8.400
13962WAT     H242129   2.913   3.449   8.263
13963WAT      O42130   2.439   6.770   9.300
13963WAT     H142131   2.532   6.775   9.265
13963WAT     H242132   2.431   6.691   9.360
13964WAT      O42133   2.271   2.889   0.937
13964WAT     H142134   2.203   2.824   0.902
13964WAT     H242135   2.363   2.853   0.922
13965WAT      O42136   2.702   7.513   8.499
13965WAT     H142137   2.704   7.565   8.584
13965WAT     H242138   2.795   7.496   8.468
13966WAT      O42139   4.694   6.829   8.142
13966WAT     H142140   4.643   6.828   8.056
13966WAT     H242141   4.686   6.919   8.184
13967WAT      O42142   4.751   1.825   0.665
13967WAT     H142143   4.811   1.748   0.686
13967WAT     H242144   4.806   1.901   0.628
13968WAT      O42145   7.834   0.219   7.955
13968WAT     H142146   7.797   0.213   7.862
13968WAT     H242147   7.873   0.310   7.970
13969WAT      O42148   1.778   9.080   9.781
13969WAT     H142149   1.692   9.109   9.739
13969WAT     H242150   1.837   9.159   9.796
13970WAT      O42151   3.426   4.584   1.500
13970WAT     H142152   3.490   4.508   1.491
13970WAT     H242153   3.426   4.617   1.594
13971WAT      O42154   8.663   5.219   3.386
13971WAT     H142155   8.616   5.226   3.473
13971WAT     H242156   8.709   5.130   3.380
13972WAT      O42157   4.445   4.284   6.310
13972WAT     H142158   4.506   4.363   6.304
13972WAT     H242159   4.490   4.205   6.268
13973WAT      O42160   5.513   8.060   6.946
13973WAT     H142161   5.539   8.038   6.852
13973WAT     H242162   5.432   8.007   6.971
13974WAT      O42163   3.774   9.117   7.531
13974WAT     H142164   3.727   9.143   7.447
13974WAT     H242165   3.764   9.018   7.546
13975WAT      O42166   7.802   0.737   5.020
13975WAT     H142167   7.822   0.729   5.118
13975WAT     H242168   7.779   0.832   4.999
13976WAT      O42169   9.556   5.292   5.727
13976WAT     H142170   9.637   5.327   5.774
13976WAT     H242171   9.560   5.317   5.630
13977WAT      O42172   0.428   8.954   3.689
13977WAT     H142173   0.332   8.977   3.706
13977WAT     H242174   0.443   8.948   3.591
13978WAT      O42175   7.969   9.388   0.412
13978WAT     H142176   7.965   9.312   0.348
13978WAT     H242177   7.876   9.410   0.443
13979WAT      O42178   5.560   8.109   9.843
13979WAT     H142179   5.490   8.060   9.791
13979WAT     H242180   5.524   8.197   9.874
13980WAT      O42181   1.194   8.986   2.937
13980WAT     H142182   1.196   8.890   2.966
13980WAT     H242183   1.123   8.998   2.867
13981WAT      O42184   3.403   3.607   2.282
13981WAT     H142185   3.458   3.657   2.216
13981WAT     H242186   3.424   3.639   2.375
13982WAT      O42187   6.062   3.566   9.686
13982WAT     H142188   6.033   3.540   9.594
13982WAT     H242189   6.143   3.623   9.681
13983WAT      O42190   9.596   6.608   4.285
13983WAT     H142191   9.629   6.703   4.289
13983WAT     H242192   9.599   6.576   4.191
13984WAT      O42193   1.909   1.904   7.704
13984WAT     H142194   1.892   1.832   7.771
13984WAT     H242195   1.829   1.913   7.644
13985WAT      O42196   7.183   7.472   8.893
13985WAT     H142197   7.246   7.396   8.907
13985WAT     H242198   7.093   7.436   8.867
13986WAT      O42199   4.398   8.805   5.017
13986WAT     H142200   4.355   8.764   5.098
13986WAT     H242201   4.360   8.764   4.935
13987WAT      O42202   3.361   3.540   5.136
13987WAT     H142203   3.457   3.520   5.153
13987WAT     H242204   3.333   3.500   5.049
13988WAT      O42205   4.897   4.697   6.175
13988WAT     H142206   4.803   4.672   6.152
13988WAT     H242207   4.952   4.699   6.092
13989WAT      O42208   6.896   6.333   0.245
13989WAT     H142209   6.854   6.257   0.197
13989WAT     H242210   6.881   6.418   0.194
13990WAT      O42211   7.777   1.399   3.385
13990WAT     H142212   7.745   1.349   3.466
13990WAT     H242213   7.774   1.497   3.403
13991WAT      O42214   5.200   2.826   4.178
13991WAT     H142215   5.140   2.759   4.135
13991WAT     H242216   5.246   2.785   4.256
13992WAT      O42217   7.293   1.119   8.991
13992WAT     H142218   7.364   1.068   8.941
13992WAT     H242219   7.252   1.187   8.930
13993WAT      O42220   2.965   1.678   3.224
13993WAT     H142221   3.051   1.641   3.259
13993WAT     H242222   2.981   1.721   3.135
13994WAT      O42223   1.847   8.210   3.763
13994WAT     H142224   1.766   8.223   3.705
13994WAT     H242225   1.910   8.146   3.718
13995WAT      O42226   7.418   6.510   7.158
13995WAT     H142227   7.440   6.600   7.196
13995WAT     H242228   7.322   6.488   7.177
13996WAT      O42229   3.696   9.450   5.614
13996WAT     H142230   3.675   9.546   5.599
13996WAT     H242231   3.663   9.396   5.537
13997WAT      O42232   4.937   0.831   3.783
13997WAT     H142233   4.946   0.734   3.806
13997WAT     H242234   4.965   0.886   3.862
13998WAT      O42235   2.733   1.849   7.835
13998WAT     H142236   2.807   1.840   7.769
13998WAT     H242237   2.762   1.908   7.910
13999WAT      O42238   4.168   1.346   0.464
13999WAT     H142239   4.078   1.323   0.426
13999WAT     H242240   4.158   1.374   0.559
14000WAT      O42241   4.357   2.722   2.837
14000WAT     H142242   4.285   2.691   2.775
14000WAT     H242243   4.323   2.721   2.931
14001WAT      O42244   5.434   0.499   5.520
14001WAT     H142245   5.337   0.475   5.521
14001WAT     H242246   5.468   0.507   5.614
14002WAT      O42247   3.400   9.199   0.325
14002WAT     H142248   3.409   9.299   0.326
14002WAT     H242249   3.305   9.174   0.344
14003WAT      O42250   8.879   5.532   1.493
14003WAT     H142251   8.970   5.572   1.484
14003WAT     H242252   8.810   5.604   1.482
14004WAT      O42253   7.030   1.081   0.723
14004WAT     H142254   7.002   1.007   0.661
14004WAT     H242255   6.950   1.121   0.766
14005WAT      O42256   1.465   9.472   8.705
14005WAT     H142257   1.462   9.474   8.805
14005WAT     H242258   1.374   9.488   8.668
14006WAT      O42259   6.894   3.984   6.235
14006WAT     H142260   6.873   3.914   6.304
14006WAT     H242261   6.861   3.952   6.146
14007WAT      O42262   2.063   1.215   8.406
14007WAT     H142263   2.059   1.294   8.346
14007WAT     H242264   1.986   1.218   8.470
14008WAT      O42265   0.823   7.786   7.505
14008WAT     H142266   0.752   7.728   7.546
14008WAT     H242267   0.781   7.847   7.438
14009WAT      O42268   1.283   8.212   5.048
14009WAT     H142269   1.316   8.212   5.143
14009WAT     H242270   1.360   8.230   4.987
14010WAT      O42271   8.744   4.051   9.511
14010WAT     H142272   8.726   4.117   9.584
14010WAT     H242273   8.692   4.076   9.430
14011WAT      O42274   2.629   7.016   7.677
14011WAT     H142275   2.645   7.089   7.611
14011WAT     H242276   2.697   6.943   7.663
14012WAT      O42277   2.237   0.695   5.060
14012WAT     H142278   2.195   0.725   5.145
14012WAT     H242279   2.200   0.607   5.033
14013WAT      O42280   4.032   6.323   5.538
14013WAT     H142281   4.006   6.229   5.515
14013WAT     H242282   3.985   6.387   5.478
14014WAT      O42283   8.934   1.573   0.147
14014WAT     H142284   8.867   1.500   0.161
14014WAT     H242285   9.007   1.541   0.086
14015WAT      O42286   0.273   1.341   4.898
14015WAT     H142287   0.337   1.418   4.900
14015WAT     H242288   0.182   1.374   4.873
14016WAT      O42289   1.552   3.858   5.326
14016WAT     H142290   1.503   3.941   5.353
14016WAT     H242291   1.645   3.881   5.300
14017WAT      O42292   0.898   7.277   2.045
14017WAT     H142293   0.988   7.289   2.088
14017WAT     H242294   0.891   7.335   1.964
14018WAT      O42295   1.993   0.070   3.202
14018WAT     H142296   1.945   0.128   3.267
14018WAT     H242297   2.017   0.123   3.120
14019WAT      O42298   1.592   2.004   5.760
14019WAT     H142299   1.596   2.010   5.859
14019WAT     H242300   1.658   2.067   5.719
14020WAT      O42301   6.894   7.854   9.644
14020WAT     H142302   6.895   7.795   9.564
14020WAT     H242303   6.835   7.815   9.714
14021WAT      O42304   0.959   8.563   2.182
14021WAT     H142305   0.967   8.510   2.098
14021WAT     H242306   0.863   8.576   2.205
14022WAT      O42307   1.162   2.320   8.785
14022WAT     H142308   1.253   2.342   8.751
14022WAT     H242309   1.105   2.402   8.783
14023WAT      O42310   8.374   1.291   5.092
14023WAT     H142311   8.314   1.211   5.084
14023WAT     H242312   8.337   1.367   5.039
14024WAT      O42313   5.781   6.864   9.564
14024WAT     H142314   5.877   6.893   9.571
14024WAT     H242315   5.775   6.785   9.502
14025WAT      O42316   8.194   1.589   4.973
14025WAT     H142317   8.143   1.630   4.897
14025WAT     H242318   8.143   1.603   5.058
14026WAT      O42319   2.869   0.727   4.420
14026WAT     H142320   2.961   0.749   4.452
14026WAT     H242321   2.808   0.714   4.498
14027WAT      O42322   3.798   3.841   2.415
14027WAT     H142323   3.874   3.815   2.355
14027WAT     H242324   3.763   3.760   2.462
14028WAT      O42325   2.575   8.731   1.397
14028WAT     H142326   2.566   8.634   1.416
14028WAT     H242327   2.584   8.781   1.483
14029WAT      O42328   8.698   6.501   3.937
14029WAT     H142329   8.786   6.496   3.890
14029WAT     H242330   8.675   6.411   3.974
14030WAT      O42331   8.863   8.049   2.186
14030WAT     H142332   8.805   7.977   2.148
14030WAT     H242333   8.836   8.137   2.146
14031WAT      O42334   6.842   7.761   1.244
14031WAT     H142335   6.873   7.816   1.167
14031WAT     H242336   6.796   7.679   1.211
14032WAT      O42337   0.420   4.967   1.867
14032WAT     H142338   0.478   5.006   1.938
14032WAT     H242339   0.326   4.999   1.880
14033WAT      O42340   3.493   5.660   3.195
14033WAT     H142341   3.408   5.653   3.143
14033WAT     H242342   3.565   5.609   3.148
14034WAT      O42343   2.372   6.947   8.496
14034WAT     H142344   2.389   6.849   8.505
14034WAT     H242345   2.274   6.964   8.501
14035WAT      O42346   0.604   8.332   0.662
14035WAT     H142347   0.581   8.241   0.629
14035WAT     H242348   0.563   8.347   0.752
14036WAT      O42349   8.075   4.784   4.407
14036WAT     H142350   8.102   4.876   4.436
14036WAT     H242351   8.153   4.739   4.362
14037WAT      O42352   6.436   1.068   6.696
14037WAT     H142353   6.431   1.161   6.660
14037WAT     H242354   6.366   1.056   6.767
14038WAT      O42355   9.435   9.113   9.636
14038WAT     H142356   9.531   9.109   9.663
14038WAT     H242357   9.393   9.023   9.648
14039WAT      O42358   0.190   9.159   3.063
14039WAT     H142359   0.130   9.204   3.129
14039WAT     H242360   0.136   9.097   3.005
14040WAT      O42361   4.865   8.035   6.408
14040WAT     H142362   4.912   7.975   6.473
14040WAT     H242363   4.832   8.116   6.456
14041WAT      O42364   6.958   2.198   3.277
14041WAT     H142365   6.999   2.206   3.368
14041WAT     H242366   6.863   2.228   3.280
14042WAT      O42367   4.148   7.985   1.445
14042WAT     H142368   4.221   7.979   1.377
14042WAT     H242369   4.134   8.080   1.471
14043WAT      O42370   9.676   6.910   7.575
14043WAT     H142371   9.708   6.895   7.481
14043WAT     H242372   9.644   6.824   7.613
14044WAT      O42373   3.352   0.319   4.176
14044WAT     H142374   3.441   0.351   4.145
14044WAT     H242375   3.280   0.363   4.123
14045WAT      O42376   8.667   8.576   9.285
14045WAT     H142377   8.623   8.645   9.228
14045WAT     H242378   8.732   8.619   9.346
14046WAT      O42379   5.640   0.785   6.764
14046WAT     H142380   5.667   0.851   6.694
14046WAT     H242381   5.547   0.805   6.795
14047WAT      O42382   0.167   6.552   8.516
14047WAT     H142383   0.144   6.494   8.438
14047WAT     H242384   0.242   6.510   8.567
14048WAT      O42385   5.980   3.737   6.295
14048WAT     H142386   6.014   3.738   6.201
14048WAT     H242387   6.051   3.702   6.356
14049WAT      O42388   2.141   8.477   6.835
14049WAT     H142389   2.081   8.494   6.913
14049WAT     H242390   2.119   8.388   6.795
14050WAT      O42391   5.910   6.475   4.079
14050WAT     H142392   5.944   6.384   4.103
14050WAT     H242393   5.855   6.469   3.996
14051WAT      O42394   1.329   4.953   0.706
14051WAT     H142395   1.388   4.981   0.782
14051WAT     H242396   1.267   5.028   0.683
14052WAT      O42397   2.614   3.148   0.191
14052WAT     H142398   2.546   3.149   0.117
14052WAT     H242399   2.615   3.237   0.236
14053WAT      O42400   6.475   4.406   2.889
14053WAT     H142401   6.507   4.454   2.808
14053WAT     H242402   6.441   4.473   2.956
14054WAT      O42403   1.497   7.275   3.648
14054WAT     H142404   1.476   7.178   3.640
14054WAT     H242405   1.545   7.305   3.565
14055WAT      O42406   3.412   3.641   6.154
14055WAT     H142407   3.352   3.689   6.217
14055WAT     H242408   3.467   3.707   6.103
14056WAT      O42409   4.212   5.985   8.223
14056WAT     H142410   4.199   6.080   8.195
14056WAT     H242411   4.194   5.977   8.321
14057WAT      O42412   2.179   3.648   8.321
14057WAT     H142413   2.087   3.681   8.298
14057WAT     H242414   2.172   3.560   8.368
14058WAT      O42415   6.536   2.174   0.591
14058WAT     H142416   6.633   2.196   0.604
14058WAT     H242417   6.483   2.212   0.667
14059WAT      O42418   9.260   6.014   1.609
14059WAT     H142419   9.170   5.970   1.607
14059WAT     H242420   9.256   6.095   1.666
14060WAT      O42421   2.716   3.953   3.030
14060WAT     H142422   2.756   3.944   3.121
14060WAT     H242423   2.676   4.045   3.020
14061WAT      O42424   2.109   7.527   4.015
14061WAT     H142425   2.186   7.477   4.055
14061WAT     H242426   2.028   7.469   4.014
14062WAT      O42427   1.381   0.107   2.294
14062WAT     H142428   1.451   0.055   2.244
14062WAT     H242429   1.425   0.181   2.345
14063WAT      O42430   5.506   8.946   8.503
14063WAT     H142431   5.550   8.921   8.589
14063WAT     H242432   5.519   8.873   8.436
14064WAT      O42433   6.358   7.822   7.760
14064WAT     H142434   6.333   7.896   7.822
14064WAT     H242435   6.388   7.743   7.814
14065WAT      O42436   2.178   0.847   1.515
14065WAT     H142437   2.085   0.860   1.479
14065WAT     H242438   2.223   0.773   1.466
14066WAT      O42439   1.053   4.145   1.377
14066WAT     H142440   1.113   4.100   1.311
14066WAT     H242441   1.105   4.164   1.461
14067WAT      O42442   4.680   2.607   8.996
14067WAT     H142443   4.596   2.586   9.046
14067WAT     H242444   4.683   2.552   8.912
14068WAT      O42445   6.536   8.558   9.520
14068WAT     H142446   6.620   8.519   9.483
14068WAT     H242447   6.504   8.632   9.461
14069WAT      O42448   0.927   3.088   0.983
14069WAT     H142449   1.027   3.082   0.988
14069WAT     H242450   0.887   3.010   1.030
14070WAT      O42451   4.900   0.619   3.203
14070WAT     H142452   4.986   0.568   3.190
14070WAT     H242453   4.868   0.607   3.297
14071WAT      O42454   6.054   0.296   0.450
14071WAT     H142455   6.012   0.362   0.388
14071WAT     H242456   5.984   0.257   0.510
14072WAT      O42457   3.083   8.826   0.958
14072WAT     H142458   3.095   8.851   1.054
14072WAT     H242459   3.145   8.751   0.935
14073WAT      O42460   0.962   1.520   2.148
14073WAT     H142461   0.884   1.562   2.193
14073WAT     H242462   0.979   1.430   2.188
14074WAT      O42463   2.774   2.894   1.343
14074WAT     H142464   2.837   2.909   1.267
14074WAT     H242465   2.808   2.819   1.400
14075WAT      O42466   4.159   0.054   6.830
14075WAT     H142467   4.229   0.104   6.779
14075WAT     H242468   4.092   0.017   6.766
14076WAT      O42469   9.091   0.824   9.186
14076WAT     H142470   9.120   0.830   9.090
14076WAT     H242471   9.090   0.728   9.215
14077WAT      O42472   9.604   1.968   4.456
14077WAT     H142473   9.610   1.952   4.357
14077WAT     H242474   9.611   2.066   4.474
14078WAT      O42475   4.416   0.417   5.155
14078WAT     H142476   4.382   0.380   5.242
14078WAT     H242477   4.515   0.408   5.152
14079WAT      O42478   4.839   6.817   4.984
14079WAT     H142479   4.867   6.793   4.891
14079WAT     H242480   4.920   6.839   5.038
14080WAT      O42481   9.175   3.644   4.639
14080WAT     H142482   9.168   3.743   4.648
14080WAT     H242483   9.191   3.603   4.729
14081WAT      O42484   1.110   8.116   8.834
14081WAT     H142485   1.128   8.188   8.768
14081WAT     H242486   1.012   8.111   8.853
14082WAT      O42487   9.555   6.516   2.153
14082WAT     H142488   9.511   6.593   2.200
14082WAT     H242489   9.590   6.547   2.065
14083WAT      O42490   2.370   7.148   1.681
14083WAT     H142491   2.364   7.103   1.592
14083WAT     H242492   2.285   7.133   1.732
14084WAT      O42493   8.155   5.461   0.399
14084WAT     H142494   8.215   5.402   0.453
14084WAT     H242495   8.177   5.557   0.417
14085WAT      O42496   7.827   0.722   9.573
14085WAT     H142497   7.754   0.788   9.553
14085WAT     H242498   7.811   0.638   9.521
14086WAT      O42499   2.527   6.069   0.463
14086WAT     H142500   2.625   6.089   0.462
14086WAT     H242501   2.510   5.981   0.417
14087WAT      O42502   6.838   2.117   4.002
14087WAT     H142503   6.844   2.197   4.061
14087WAT     H242504   6.840   2.146   3.906
14088WAT      O42505   4.948   1.871   3.506
14088WAT     H142506   5.045   1.896   3.508
14088WAT     H242507   4.898   1.924   3.574
14089WAT      O42508   4.006   1.782   6.087
14089WAT     H142509   3.934   1.851   6.080
14089WAT     H242510   4.062   1.784   6.005
14090WAT      O42511   3.397   3.814   3.795
14090WAT     H142512   3.478   3.839   3.742
14090WAT     H242513   3.420   3.811   3.893
14091WAT      O42514   9.062   7.997   5.191
14091WAT     H142515   8.976   8.047   5.182
14091WAT     H242516   9.057   7.912   5.138
14092WAT      O42517   7.300   7.557   8.300
14092WAT     H142518   7.394   7.556   8.335
14092WAT     H242519   7.237   7.577   8.375
14093WAT      O42520   2.359   3.226   6.336
14093WAT     H142521   2.431   3.178   6.286
14093WAT     H242522   2.388   3.240   6.431
14094WAT      O42523   7.441   2.861   6.157
14094WAT     H142524   7.392   2.885   6.241
14094WAT     H242525   7.528   2.910   6.154
14095WAT      O42526   6.070   6.408   1.300
14095WAT     H142527   6.068   6.309   1.310
14095WAT     H242528   6.074   6.432   1.202
14096WAT      O42529   5.931   8.306   1.234
14096WAT     H142530   6.017   8.344   1.269
14096WAT     H242531   5.951   8.228   1.174
14097WAT      O42532   7.453   1.131   0.488
14097WAT     H142533   7.387   1.080   0.543
14097WAT     H242534   7.407   1.207   0.442
14098WAT      O42535   0.256   0.821   2.431
14098WAT     H142536   0.332   0.867   2.479
14098WAT     H242537   0.224   0.744   2.486
14099WAT      O42538   7.509   3.271   2.249
14099WAT     H142539   7.451   3.195   2.218
14099WAT     H242540   7.605   3.251   2.229
14100WAT      O42541   2.281   9.565   8.837
14100WAT     H142542   2.307   9.504   8.762
14100WAT     H242543   2.183   9.583   8.832
14101WAT      O42544   2.681   9.074   5.883
14101WAT     H142545   2.658   9.111   5.793
14101WAT     H242546   2.643   9.133   5.954
14102WAT      O42547   3.354   0.087   9.646
14102WAT     H142548   3.368   0.004   9.699
14102WAT     H242549   3.394   0.075   9.555
14103WAT      O42550   6.612   9.226   1.045
14103WAT     H142551   6.527   9.181   1.074
14103WAT     H242552   6.682   9.212   1.115
14104WAT      O42553   2.147   5.698   6.618
14104WAT     H142554   2.106   5.750   6.543
14104WAT     H242555   2.107   5.727   6.705
14105WAT      O42556   2.353   8.038   9.242
14105WAT     H142557   2.314   7.963   9.296
14105WAT     H242558   2.335   8.125   9.288
14106WAT      O42559   1.434   9.587   5.500
14106WAT     H142560   1.337   9.606   5.518
14106WAT     H242561   1.490   9.646   5.556
14107WAT      O42562   8.673   2.171   3.201
14107WAT     H142563   8.699   2.117   3.121
14107WAT     H242564   8.592   2.226   3.180
14108WAT      O42565   5.840   5.305   9.337
14108WAT     H142566   5.810   5.249   9.414
14108WAT     H242567   5.939   5.316   9.339
14109WAT      O42568   5.031   9.603   3.954
14109WAT     H142569   5.099   9.530   3.949
14109WAT     H242570   5.058   9.677   3.892
14110WAT      O42571   7.763   1.206   7.042
14110WAT     H142572   7.807   1.268   7.106
14110WAT     H242573   7.813   1.206   6.956
14111WAT      O42574   6.746   4.787   3.902
14111WAT     H142575   6.724   4.847   3.979
14111WAT     H242576   6.745   4.840   3.817
14112WAT      O42577   3.410   4.228   9.451
14112WAT     H142578   3.419   4.292   9.528
14112WAT     H242579   3.483   4.161   9.455
14113WAT      O42580   9.413   4.558   0.710
14113WAT     H142581   9.319   4.586   0.728
14113WAT     H242582   9.428   4.466   0.746
14114WAT      O42583   0.951   6.499   2.428
14114WAT     H142584   1.029   6.438   2.444
14114WAT     H242585   0.897   6.507   2.511
14115WAT      O42586   0.708   1.289   4.028
14115WAT     H142587   0.757   1.349   3.965
14115WAT     H242588   0.703   1.197   3.989
14116WAT      O42589   6.493   8.173   2.516
14116WAT     H142590   6.574   8.206   2.468
14116WAT     H242591   6.512   8.083   2.555
14117WAT      O42592   2.943   4.804   9.861
14117WAT     H142593   2.916   4.736   9.793
14117WAT     H242594   3.026   4.774   9.908
14118WAT      O42595   5.565   8.638   6.634
14118WAT     H142596   5.563   8.539   6.620
14118WAT     H242597   5.524   8.661   6.722
14119WAT      O42598   4.066   8.602   6.995
14119WAT     H142599   3.969   8.628   6.997
14119WAT     H242600   4.087   8.546   7.075
14120WAT      O42601   4.274   4.488   6.827
14120WAT     H142602   4.362   4.440   6.822
14120WAT     H242603   4.285   4.582   6.794
14121WAT      O42604   6.108   1.627   0.142
14121WAT     H142605   6.204   1.634   0.168
14121WAT     H242606   6.092   1.538   0.098
14122WAT      O42607   9.234   8.275   0.201
14122WAT     H142608   9.332   8.293   0.202
14122WAT     H242609   9.184   8.360   0.218
14123WAT      O42610   7.866   1.112   9.282
14123WAT     H142611   7.836   1.163   9.363
14123WAT     H242612   7.915   1.030   9.310
14124WAT      O42613   3.591   0.622   6.727
14124WAT     H142614   3.545   0.707   6.701
14124WAT     H242615   3.687   0.627   6.699
14125WAT      O42616   3.784   0.156   6.480
14125WAT     H142617   3.692   0.118   6.474
14125WAT     H242618   3.784   0.234   6.542
14126WAT      O42619   7.249   0.194   5.317
14126WAT     H142620   7.328   0.139   5.345
14126WAT     H242621   7.173   0.133   5.295
14127WAT      O42622   4.796   2.863   3.577
14127WAT     H142623   4.883   2.819   3.558
14127WAT     H242624   4.813   2.957   3.608
14128WAT      O42625   7.023   1.699   4.694
14128WAT     H142626   7.032   1.617   4.751
14128WAT     H242627   7.046   1.780   4.748
14129WAT      O42628   8.809   3.258   0.098
14129WAT     H142629   8.843   3.219   0.184
14129WAT     H242630   8.734   3.202   0.063
14130WAT      O42631   7.343   2.368   3.492
14130WAT     H142632   7.331   2.289   3.431
14130WAT     H242633   7.428   2.414   3.470
14131WAT      O42634   8.963   8.443   6.974
14131WAT     H142635   9.012   8.426   6.888
14131WAT     H242636   8.875   8.395   6.972
14132WAT      O42637   1.508   8.692   1.522
14132WAT     H142638   1.447   8.739   1.458
14132WAT     H242639   1.574   8.637   1.471
14133WAT      O42640   1.461   5.400   4.140
14133WAT     H142641   1.559   5.386   4.154
14133WAT     H242642   1.423   5.446   4.220
14134WAT      O42643   8.862   7.795   5.983
14134WAT     H142644   8.809   7.723   5.937
14134WAT     H242645   8.850   7.786   6.082
14135WAT      O42646   2.423   6.895   7.019
14135WAT     H142647   2.504   6.882   7.075
14135WAT     H242648   2.343   6.909   7.078
14136WAT      O42649   5.630   1.168   8.064
14136WAT     H142650   5.590   1.248   8.020
14136WAT     H242651   5.572   1.138   8.140
14137WAT      O42652   0.450   5.688   4.967
14137WAT     H142653   0.395   5.613   4.928
14137WAT     H242654   0.546   5.660   4.972
14138WAT      O42655   7.354   8.345   8.449
14138WAT     H142656   7.308   8.432   8.470
14138WAT     H242657   7.318   8.309   8.363
14139WAT      O42658   2.006   8.359   0.843
14139WAT     H142659   1.924   8.342   0.788
14139WAT     H242660   2.023   8.281   0.903
14140WAT      O42661   5.471   3.780   6.457
14140WAT     H142662   5.399   3.763   6.389
14140WAT     H242663   5.448   3.732   6.542
14141WAT      O42664   8.102   4.942   7.500
14141WAT     H142665   8.047   4.877   7.448
14141WAT     H242666   8.049   4.978   7.577
14142WAT      O42667   9.237   4.366   1.805
14142WAT     H142668   9.202   4.432   1.739
14142WAT     H242669   9.297   4.302   1.759
14143WAT      O42670   3.771   1.706   1.911
14143WAT     H142671   3.758   1.674   2.005
14143WAT     H242672   3.739   1.636   1.848
14144WAT      O42673   4.365   8.619   1.721
14144WAT     H142674   4.289   8.603   1.784
14144WAT     H242675   4.343   8.579   1.632
14145WAT      O42676   0.170   1.805   0.658
14145WAT     H142677   0.185   1.781   0.754
14145WAT     H242678   0.253   1.784   0.605
14146WAT      O42679   0.524   6.908   1.709
14146WAT     H142680   0.433   6.892   1.670
14146WAT     H242681   0.589   6.841   1.671
14147WAT      O42682   9.257   0.259   8.607
14147WAT     H142683   9.244   0.337   8.545
14147WAT     H242684   9.167   0.223   8.633
14148WAT      O42685   7.718   2.895   0.474
14148WAT     H142686   7.757   2.960   0.409
14148WAT     H242687   7.772   2.896   0.559
14149WAT      O42688   9.014   5.390   2.377
14149WAT     H142689   9.088   5.443   2.418
14149WAT     H242690   9.047   5.298   2.354
14150WAT      O42691   6.521   7.157   7.216
14150WAT     H142692   6.547   7.228   7.281
14150WAT     H242693   6.595   7.089   7.209
14151WAT      O42694   9.884   1.992   1.743
14151WAT     H142695   9.815   2.064   1.737
14151WAT     H242696   9.878   1.933   1.662
14152WAT      O42697   3.409   6.110   2.306
14152WAT     H142698   3.424   6.182   2.374
14152WAT     H242699   3.339   6.140   2.241
14153WAT      O42700   3.811   4.483   1.217
14153WAT     H142701   3.719   4.493   1.180
14153WAT     H242702   3.813   4.515   1.312
14154WAT      O42703   4.814   0.301   3.684
14154WAT     H142704   4.857   0.211   3.684
14154WAT     H242705   4.717   0.292   3.707
14155WAT      O42706   4.433   0.300   5.409
14155WAT     H142707   4.450   0.209   5.371
14155WAT     H242708   4.517   0.334   5.452
14156WAT      O42709   4.400   2.530   2.457
14156WAT     H142710   4.317   2.572   2.420
14156WAT     H242711   4.404   2.547   2.556
14157WAT      O42712   8.519   5.163   5.622
14157WAT     H142713   8.610   5.125   5.635
14157WAT     H242714   8.503   5.236   5.688
14158WAT      O42715   7.196   4.135   2.530
14158WAT     H142716   7.194   4.055   2.470
14158WAT     H242717   7.210   4.105   2.624
14159WAT      O42718   5.117   2.023   2.972
14159WAT     H142719   5.140   2.111   2.932
14159WAT     H242720   5.184   1.999   3.042
14160WAT      O42721   7.060   6.778   3.211
14160WAT     H142722   7.146   6.765   3.160
14160WAT     H242723   7.058   6.871   3.248
14161WAT      O42724   5.486   6.924   4.433
14161WAT     H142725   5.463   6.910   4.529
14161WAT     H242726   5.566   6.984   4.426
14162WAT      O42727   6.128   9.238   2.710
14162WAT     H142728   6.074   9.155   2.694
14162WAT     H242729   6.156   9.241   2.806
14163WAT      O42730   7.613   4.689   0.515
14163WAT     H142731   7.563   4.768   0.551
14163WAT     H242732   7.596   4.680   0.417
14164WAT      O42733   8.869   6.176   2.567
14164WAT     H142734   8.948   6.119   2.544
14164WAT     H242735   8.874   6.261   2.515
14165WAT      O42736   4.229   3.182   6.815
14165WAT     H142737   4.293   3.250   6.849
14165WAT     H242738   4.178   3.144   6.892
14166WAT      O42739   5.913   5.900   7.781
14166WAT     H142740   5.874   5.903   7.689
14166WAT     H242741   5.873   5.825   7.833
14167WAT      O42742   6.170   4.324   6.744
14167WAT     H142743   6.185   4.385   6.822
14167WAT     H242744   6.240   4.342   6.675
14168WAT      O42745   1.460   8.749   8.818
14168WAT     H142746   1.523   8.717   8.748
14168WAT     H242747   1.371   8.705   8.806
14169WAT      O42748   1.473   7.872   7.289
14169WAT     H142749   1.491   7.779   7.320
14169WAT     H242750   1.545   7.901   7.226
14170WAT      O42751   5.528   8.368   3.316
14170WAT     H142752   5.565   8.362   3.409
14170WAT     H242753   5.553   8.286   3.264
14171WAT      O42754   1.502   0.595   3.669
14171WAT     H142755   1.478   0.688   3.640
14171WAT     H242756   1.573   0.600   3.739
14172WAT      O42757   1.072   3.995   6.106
14172WAT     H142758   1.116   3.907   6.124
14172WAT     H242759   1.052   4.040   6.193
14173WAT      O42760   1.746   6.003   1.764
14173WAT     H142761   1.752   6.002   1.665
14173WAT     H242762   1.797   5.926   1.802
14174WAT      O42763   5.299   1.681   8.127
14174WAT     H142764   5.390   1.714   8.150
14174WAT     H242765   5.291   1.669   8.028
14175WAT      O42766   9.326   1.891   2.652
14175WAT     H142767   9.356   1.853   2.565
14175WAT     H242768   9.357   1.832   2.727
14176WAT      O42769   4.231   9.265   9.443
14176WAT     H142770   4.269   9.264   9.351
14176WAT     H242771   4.167   9.189   9.454
14177WAT      O42772   3.145   4.734   7.384
14177WAT     H142773   3.217   4.681   7.339
14177WAT     H242774   3.056   4.698   7.357
14178WAT      O42775   9.460   8.187   8.990
14178WAT     H142776   9.429   8.094   8.973
14178WAT     H242777   9.448   8.210   9.086
14179WAT      O42778   1.469   1.574   2.494
14179WAT     H142779   1.524   1.612   2.568
14179WAT     H242780   1.512   1.491   2.459
14180WAT      O42781   7.901   3.956   1.269
14180WAT     H142782   7.903   4.042   1.320
14180WAT     H242783   7.994   3.931   1.242
14181WAT      O42784   3.325   8.186   9.758
14181WAT     H142785   3.353   8.201   9.852
14181WAT     H242786   3.229   8.214   9.747
14182WAT      O42787   7.092   3.390   4.021
14182WAT     H142788   7.132   3.377   4.112
14182WAT     H242789   7.146   3.458   3.971
14183WAT      O42790   2.439   4.289   6.727
14183WAT     H142791   2.351   4.263   6.689
14183WAT     H242792   2.470   4.375   6.685
14184WAT      O42793   7.000   9.491   0.068
14184WAT     H142794   7.056   9.411   0.046
14184WAT     H242795   6.903   9.465   0.069
14185WAT      O42796   4.311   5.038   0.639
14185WAT     H142797   4.336   5.054   0.543
14185WAT     H242798   4.364   5.098   0.698
14186WAT      O42799   4.711   2.822   0.058
14186WAT     H142800   4.693   2.724   0.071
14186WAT     H242801   4.799   2.834   0.012
14187WAT      O42802   7.182   4.919   6.215
14187WAT     H142803   7.207   4.982   6.289
14187WAT     H242804   7.095   4.948   6.175
14188WAT      O42805   8.545   8.041   0.445
14188WAT     H142806   8.592   8.125   0.418
14188WAT     H242807   8.533   8.041   0.545
14189WAT      O42808   0.852   9.627   4.795
14189WAT     H142809   0.899   9.539   4.789
14189WAT     H242810   0.764   9.615   4.840
14190WAT      O42811   1.336   3.449   0.380
14190WAT     H142812   1.354   3.543   0.351
14190WAT     H242813   1.257   3.413   0.331
14191WAT      O42814   5.239   5.728   5.813
14191WAT     H142815   5.292   5.650   5.848
14191WAT     H242816   5.297   5.783   5.753
14192WAT      O42817   2.311   6.161   2.291
14192WAT     H142818   2.304   6.106   2.208
14192WAT     H242819   2.269   6.250   2.276
14193WAT      O42820   9.031   3.878   3.904
14193WAT     H142821   9.081   3.858   3.820
14193WAT     H242822   8.937   3.903   3.882
14194WAT      O42823   3.828   1.538   3.003
14194WAT     H142824   3.856   1.532   2.908
14194WAT     H242825   3.792   1.630   3.022
14195WAT      O42826   1.601   5.587   5.401
14195WAT     H142827   1.580   5.528   5.479
14195WAT     H242828   1.549   5.558   5.321
14196WAT      O42829   9.038   3.712   3.295
14196WAT     H142830   9.123   3.673   3.259
14196WAT     H242831   8.994   3.646   3.356
14197WAT      O42832   1.003   0.646   8.638
14197WAT     H142833   1.029   0.559   8.679
14197WAT     H242834   0.905   0.645   8.618
14198WAT      O42835   1.058   6.551   7.173
14198WAT     H142836   1.037   6.496   7.253
14198WAT     H242837   0.991   6.625   7.165
14199WAT      O42838   3.522   8.716   5.575
14199WAT     H142839   3.536   8.788   5.643
14199WAT     H242840   3.442   8.738   5.519
14200WAT      O42841   4.298   0.947   1.881
14200WAT     H142842   4.280   0.893   1.963
14200WAT     H242843   4.371   0.905   1.828
14201WAT      O42844   6.758   6.405   6.395
14201WAT     H142845   6.836   6.422   6.454
14201WAT     H242846   6.790   6.384   6.302
14202WAT      O42847   8.727   9.259   3.883
14202WAT     H142848   8.703   9.201   3.805
14202WAT     H242849   8.793   9.328   3.853
14203WAT      O42850   4.362   8.298   8.219
14203WAT     H142851   4.375   8.339   8.129
14203WAT     H242852   4.450   8.290   8.265
14204WAT      O42853   1.891   0.385   6.731
14204WAT     H142854   1.846   0.298   6.710
14204WAT     H242855   1.989   0.371   6.743
14205WAT      O42856   6.091   7.447   5.368
14205WAT     H142857   6.012   7.498   5.402
14205WAT     H242858   6.090   7.445   5.268
14206WAT      O42859   4.342   5.681   3.250
14206WAT     H142860   4.410   5.625   3.296
14206WAT     H242861   4.300   5.744   3.316
14207WAT      O42862   9.518   0.477   3.702
14207WAT     H142863   9.592   0.457   3.765
14207WAT     H242864   9.452   0.538   3.745
14208WAT      O42865   4.188   0.964   4.536
14208WAT     H142866   4.195   1.047   4.480
14208WAT     H242867   4.156   0.888   4.480
14209WAT      O42868   4.650   9.392   7.395
14209WAT     H142869   4.651   9.297   7.423
14209WAT     H242870   4.561   9.433   7.415
14210WAT      O42871   4.884   9.229   2.374
14210WAT     H142872   4.947   9.170   2.324
14210WAT     H242873   4.867   9.312   2.320
14211WAT      O42874   0.580   7.264   1.668
14211WAT     H142875   0.568   7.224   1.577
14211WAT     H242876   0.637   7.203   1.723
14212WAT      O42877   2.158   1.107   4.524
14212WAT     H142878   2.132   1.116   4.428
14212WAT     H242879   2.240   1.162   4.542
14213WAT      O42880   9.743   2.548   2.647
14213WAT     H142881   9.819   2.597   2.689
14213WAT     H242882   9.738   2.572   2.549
14214WAT      O42883   1.535   0.282   9.760
14214WAT     H142884   1.529   0.374   9.722
14214WAT     H242885   1.509   0.215   9.689
14215WAT      O42886   2.972   0.454   7.056
14215WAT     H142887   2.893   0.414   7.103
14215WAT     H242888   3.040   0.382   7.040
14216WAT      O42889   0.451   8.010   0.805
14216WAT     H142890   0.500   8.032   0.890
14216WAT     H242891   0.491   7.928   0.765
14217WAT      O42892   5.303   5.289   6.269
14217WAT     H142893   5.302   5.364   6.203
14217WAT     H242894   5.281   5.325   6.360
14218WAT      O42895   4.578   6.913   6.764
14218WAT     H142896   4.662   6.968   6.763
14218WAT     H242897   4.594   6.828   6.814
14219WAT      O42898   2.127   9.484   4.090
14219WAT     H142899   2.146   9.582   4.087
14219WAT     H242900   2.206   9.436   4.127
14220WAT      O42901   0.005   1.870   7.392
14220WAT     H142902   0.022   1.954   7.444
14220WAT     H242903   0.091   1.836   7.354
14221WAT      O42904   3.558   3.690   6.579
14221WAT     H142905   3.463   3.709   6.607
14221WAT     H242906   3.558   3.653   6.486
14222WAT      O42907   6.624   3.050   5.330
14222WAT     H142908   6.614   3.150   5.338
14222WAT     H242909   6.685   3.017   5.401
14223WAT      O42910   6.012   0.626   7.216
14223WAT     H142911   5.965   0.689   7.154
14223WAT     H242912   6.108   0.652   7.223
14224WAT      O42913   9.647   2.914   9.499
14224WAT     H142914   9.648   2.824   9.455
14224WAT     H242915   9.632   2.903   9.597
14225WAT      O42916   3.113   4.918   5.162
14225WAT     H142917   3.058   4.852   5.111
14225WAT     H242918   3.090   4.912   5.259
14226WAT      O42919   9.136   6.740   7.003
14226WAT     H142920   9.170   6.825   7.044
14226WAT     H242921   9.131   6.669   7.073
14227WAT      O42922   5.782   0.214   3.555
14227WAT     H142923   5.781   0.253   3.463
14227WAT     H242924   5.756   0.284   3.622
14228WAT      O42925   8.776   3.855   6.888
14228WAT     H142926   8.775   3.809   6.977
14228WAT     H242927   8.864   3.839   6.844
14229WAT      O42928   4.242   2.413   5.240
14229WAT     H142929   4.322   2.355   5.257
14229WAT     H242930   4.269   2.509   5.242
14230WAT      O42931   7.644   8.032   1.871
14230WAT     H142932   7.657   8.131   1.871
14230WAT     H242933   7.559   8.010   1.824
14231WAT      O42934   1.634   2.078   9.849
14231WAT     H142935   1.599   1.985   9.862
14231WAT     H242936   1.564   2.144   9.875
14232WAT      O42937   9.041   7.522   5.770
14232WAT     H142938   8.996   7.597   5.721
14232WAT     H242939   9.125   7.497   5.723
14233WAT      O42940   4.508   1.061   8.007
14233WAT     H142941   4.497   0.963   8.024
14233WAT     H242942   4.563   1.073   7.924
14234WAT      O42943   7.950   5.159   6.150
14234WAT     H142944   7.901   5.085   6.197
14234WAT     H242945   7.883   5.223   6.111
14235WAT      O42946   9.260   4.212   9.150
14235WAT     H142947   9.325   4.192   9.077
14235WAT     H242948   9.283   4.156   9.230
14236WAT      O42949   3.979   3.552   6.149
14236WAT     H142950   3.949   3.608   6.227
14236WAT     H242951   3.899   3.510   6.106
14237WAT      O42952   7.106   2.597   0.109
14237WAT     H142953   7.146   2.607   0.200
14237WAT     H242954   7.006   2.591   0.116
14238WAT      O42955   4.037   4.605   1.566
14238WAT     H142956   4.077   4.589   1.476
14238WAT     H242957   3.943   4.638   1.555
14239WAT      O42958   5.209   3.981   9.066
14239WAT     H142959   5.232   4.050   9.134
14239WAT     H242960   5.140   4.017   9.003
14240WAT      O42961   1.433   3.295   2.570
14240WAT     H142962   1.374   3.272   2.492
14240WAT     H242963   1.380   3.286   2.655
14241WAT      O42964   2.818   2.194   5.874
14241WAT     H142965   2.781   2.208   5.966
14241WAT     H242966   2.759   2.131   5.824
14242WAT      O42967   1.666   7.942   1.834
14242WAT     H142968   1.647   7.898   1.922
14242WAT     H242969   1.651   7.876   1.760
14243WAT      O42970   8.391   0.384   7.545
14243WAT     H142971   8.464   0.315   7.550
14243WAT     H242972   8.311   0.345   7.498
14244WAT      O42973   1.369   5.727   6.150
14244WAT     H142974   1.399   5.700   6.242
14244WAT     H242975   1.318   5.813   6.155
14245WAT      O42976   0.092   3.980   4.152
14245WAT     H142977   0.055   3.992   4.060
14245WAT     H242978   0.018   3.953   4.214
14246WAT      O42979   7.671   9.026   3.209
14246WAT     H142980   7.682   9.043   3.111
14246WAT     H242981   7.759   9.038   3.255
14247WAT      O42982   5.759   5.478   5.322
14247WAT     H142983   5.849   5.514   5.295
14247WAT     H242984   5.698   5.555   5.341
14248WAT      O42985   0.884   3.826   7.859
14248WAT     H142986   0.862   3.815   7.762
14248WAT     H242987   0.947   3.902   7.870
14249WAT      O42988   4.141   3.567   8.626
14249WAT     H142989   4.236   3.546   8.649
14249WAT     H242990   4.088   3.482   8.625
14250WAT      O42991   4.014   2.372   6.988
14250WAT     H142992   4.110   2.398   6.976
14250WAT     H242993   3.983   2.397   7.079
14251WAT      O42994   9.223   6.112   4.855
14251WAT     H142995   9.247   6.123   4.758
14251WAT     H242996   9.126   6.090   4.862
14252WAT      O42997   4.195   1.441   4.466
14252WAT     H142998   4.203   1.524   4.410
14252WAT     H242999   4.138   1.459   4.545
14253WAT      O43000   2.813   8.843   3.803
14253WAT     H143001   2.781   8.826   3.709
14253WAT     H243002   2.734   8.846   3.864
14254WAT      O43003   3.347   7.145   6.305
14254WAT     H143004   3.265   7.088   6.292
14254WAT     H243005   3.320   7.238   6.329
14255WAT      O43006   4.144   2.555   1.226
14255WAT     H143007   4.208   2.597   1.290
14255WAT     H243008   4.148   2.456   1.235
14256WAT      O43009   4.975   5.469   9.125
14256WAT     H143010   4.908   5.396   9.141
14256WAT     H243011   5.067   5.434   9.142
14257WAT      O43012   9.712   6.894   1.417
14257WAT     H143013   9.722   6.809   1.366
14257WAT     H243014   9.625   6.893   1.467
14258WAT      O43015   5.083   2.781   7.028
14258WAT     H143016   5.137   2.864   7.043
14258WAT     H243017   5.129   2.703   7.070
14259WAT      O43018   6.172   8.370   0.578
14259WAT     H143019   6.174   8.365   0.478
14259WAT     H243020   6.130   8.456   0.606
14260WAT      O43021   9.087   7.455   1.935
14260WAT     H143022   9.018   7.525   1.955
14260WAT     H243023   9.150   7.448   2.012
14261WAT      O43024   1.239   4.900   6.458
14261WAT     H143025   1.203   4.921   6.367
14261WAT     H243026   1.336   4.922   6.461
14262WAT      O43027   7.455   7.991   7.132
14262WAT     H143028   7.512   7.932   7.074
14262WAT     H243029   7.410   7.934   7.202
14263WAT      O43030   8.249   6.713   1.840
14263WAT     H143031   8.191   6.714   1.759
14263WAT     H243032   8.230   6.794   1.895
14264WAT      O43033   1.416   1.441   5.108
14264WAT     H143034   1.386   1.419   5.014
14264WAT     H243035   1.375   1.528   5.136
14265WAT      O43036   2.107   6.347   1.474
14265WAT     H143037   2.200   6.368   1.503
14265WAT     H243038   2.043   6.365   1.549
14266WAT      O43039   5.467   9.665   2.863
14266WAT     H143040   5.558   9.644   2.899
14266WAT     H243041   5.469   9.664   2.763
14267WAT      O43042   0.405   5.993   3.447
14267WAT     H143043   0.402   6.079   3.395
14267WAT     H243044   0.413   5.916   3.383
14268WAT      O43045   2.805   2.137   9.864
14268WAT     H143046   2.757   2.207   9.917
14268WAT     H243047   2.858   2.181   9.792
14269WAT      O43048   6.708   3.341   5.895
14269WAT     H143049   6.753   3.403   5.958
14269WAT     H243050   6.736   3.247   5.914
14270WAT      O43051   3.200   6.470   1.713
14270WAT     H143052   3.243   6.444   1.627
14270WAT     H243053   3.270   6.496   1.779
14271WAT      O43054   2.221   9.416   2.792
14271WAT     H143055   2.246   9.411   2.889
14271WAT     H243056   2.175   9.503   2.775
14272WAT      O43057   6.233   2.346   8.754
14272WAT     H143058   6.262   2.272   8.815
14272WAT     H243059   6.263   2.434   8.791
14273WAT      O43060   5.224   2.610   0.447
14273WAT     H143061   5.249   2.516   0.471
14273WAT     H243062   5.305   2.661   0.419
14274WAT      O43063   3.464   4.828   8.737
14274WAT     H143064   3.538   4.774   8.696
14274WAT     H243065   3.502   4.912   8.776
14275WAT      O43066   3.366   4.000   4.566
14275WAT     H143067   3.437   3.948   4.517
14275WAT     H243068   3.312   4.053   4.500
14276WAT      O43069   3.833   1.071   4.922
14276WAT     H143070   3.748   1.125   4.916
14276WAT     H243071   3.902   1.113   4.864
14277WAT      O43072   0.240   4.568   6.883
14277WAT     H143073   0.191   4.558   6.796
14277WAT     H243074   0.228   4.661   6.918
14278WAT      O43075   1.029   5.030   7.444
14278WAT     H143076   1.000   4.966   7.373
14278WAT     H243077   1.096   5.094   7.406
14279WAT      O43078   2.053   5.431   7.904
14279WAT     H143079   1.984   5.368   7.870
14279WAT     H243080   2.144   5.394   7.884
14280WAT      O43081   8.623   4.178   0.694
14280WAT     H143082   8.717   4.144   0.688
14280WAT     H243083   8.606   4.212   0.786
14281WAT      O43084   9.702   9.690   0.706
14281WAT     H143085   9.699   9.737   0.794
14281WAT     H243086   9.784   9.633   0.702
14282WAT      O43087   4.733   9.129   5.304
14282WAT     H143088   4.684   9.052   5.263
14282WAT     H243089   4.817   9.147   5.253
14283WAT      O43090   6.507   7.326   3.648
14283WAT     H143091   6.515   7.308   3.746
14283WAT     H243092   6.447   7.257   3.606
14284WAT      O43093   3.406   7.495   9.465
14284WAT     H143094   3.454   7.503   9.377
14284WAT     H243095   3.455   7.429   9.523
14285WAT      O43096   8.996   6.265   1.394
14285WAT     H143097   8.933   6.193   1.365
14285WAT     H243098   9.090   6.231   1.392
14286WAT      O43099   2.680   5.218   0.610
14286WAT     H143100   2.739   5.161   0.553
14286WAT     H243101   2.613   5.161   0.658
14287WAT      O43102   7.017   0.993   6.070
14287WAT     H143103   6.944   1.061   6.081
14287WAT     H243104   7.017   0.930   6.148
14288WAT      O43105   9.650   1.686   5.250
14288WAT     H143106   9.577   1.709   5.314
14288WAT     H243107   9.612   1.671   5.159
14289WAT      O43108   5.781   6.888   4.969
14289WAT     H143109   5.880   6.899   4.971
14289WAT     H243110   5.757   6.796   5.001
14290WAT      O43111   9.487   8.807   7.231
14290WAT     H143112   9.463   8.886   7.287
14290WAT     H243113   9.551   8.835   7.159
14291WAT      O43114   8.996   8.544   9.535
14291WAT     H143115   8.915   8.603   9.528
14291WAT     H243116   9.039   8.535   9.445
14292WAT      O43117   5.173   3.780   5.776
14292WAT     H143118   5.187   3.864   5.724
14292WAT     H243119   5.113   3.719   5.724
14293WAT      O43120   6.517   6.690   9.702
14293WAT     H143121   6.557   6.698   9.610
14293WAT     H243122   6.450   6.763   9.716
14294WAT      O43123   7.316   8.615   8.498
14294WAT     H143124   7.364   8.701   8.481
14294WAT     H243125   7.341   8.581   8.589
14295WAT      O43126   3.002   8.269   4.298
14295WAT     H143127   3.064   8.334   4.254
14295WAT     H243128   3.030   8.256   4.393
14296WAT      O43129   7.963   8.465   1.164
14296WAT     H143130   7.979   8.503   1.073
14296WAT     H243131   7.872   8.490   1.195
14297WAT      O43132   2.346   6.978   3.749
14297WAT     H143133   2.415   6.982   3.820
14297WAT     H243134   2.288   7.059   3.754
14298WAT      O43135   3.797   6.648   3.369
14298WAT     H143136   3.862   6.720   3.343
14298WAT     H243137   3.750   6.616   3.287
14299WAT      O43138   1.291   0.545   0.076
14299WAT     H143139   1.328   0.628   0.035
14299WAT     H243140   1.291   0.554   0.176
14300WAT      O43141   4.377   4.390   3.756
14300WAT     H143142   4.354   4.404   3.659
14300WAT     H243143   4.462   4.438   3.777
14301WAT      O43144   0.805   8.580   4.086
14301WAT     H143145   0.792   8.560   3.989
14301WAT     H243146   0.808   8.493   4.137
14302WAT      O43147   7.865   2.707   3.490
14302WAT     H143148   7.891   2.614   3.514
14302WAT     H243149   7.880   2.767   3.569
14303WAT      O43150   0.177   1.466   3.346
14303WAT     H143151   0.093   1.412   3.350
14303WAT     H243152   0.157   1.558   3.313
14304WAT      O43153   7.487   6.295   6.978
14304WAT     H143154   7.419   6.277   6.908
14304WAT     H243155   7.469   6.383   7.022
14305WAT      O43156   8.071   0.419   5.230
14305WAT     H143157   8.044   0.391   5.137
14305WAT     H243158   8.014   0.371   5.297
14306WAT      O43159   8.981   0.823   7.106
14306WAT     H143160   8.942   0.882   7.177
14306WAT     H243161   9.071   0.857   7.081
14307WAT      O43162   7.409   0.155   6.773
14307WAT     H143163   7.400   0.065   6.731
14307WAT     H243164   7.346   0.161   6.851
14308WAT      O43165   4.966   3.866   6.237
14308WAT     H143166   5.033   3.869   6.163
14308WAT     H243167   4.929   3.958   6.252
14309WAT      O43168   4.493   9.299   1.819
14309WAT     H143169   4.533   9.381   1.778
14309WAT     H243170   4.410   9.325   1.869
14310WAT      O43171   6.315   4.650   5.455
14310WAT     H143172   6.291   4.745   5.433
14310WAT     H243173   6.312   4.595   5.372
14311WAT      O43174   7.217   8.696   2.767
14311WAT     H143175   7.196   8.778   2.714
14311WAT     H243176   7.242   8.723   2.860
14312WAT      O43177   2.702   0.239   0.806
14312WAT     H143178   2.729   0.255   0.901
14312WAT     H243179   2.664   0.323   0.767
14313WAT      O43180   9.297   8.714   1.986
14313WAT     H143181   9.377   8.772   1.997
14313WAT     H243182   9.274   8.671   2.073
14314WAT      O43183   3.893   1.855   2.556
14314WAT     H143184   3.827   1.781   2.543
14314WAT     H243185   3.844   1.939   2.577
14315WAT      O43186   2.843   9.646   3.620
14315WAT     H143187   2.814   9.700   3.542
14315WAT     H243188   2.935   9.675   3.649
14316WAT      O43189   6.154   0.362   2.207
14316WAT     H143190   6.101   0.318   2.135
14316WAT     H243191   6.098   0.432   2.252
14317WAT      O43192   4.649   9.111   2.533
14317WAT     H143193   4.581   9.039   2.543
14317WAT     H243194   4.624   9.169   2.455
14318WAT      O43195   3.169   8.332   3.769
14318WAT     H143196   3.188   8.253   3.827
14318WAT     H243197   3.222   8.325   3.685
14319WAT      O43198   4.182   5.240   8.114
14319WAT     H143199   4.208   5.228   8.018
14319WAT     H243200   4.191   5.154   8.163
14320WAT      O43201   3.128   4.886   8.985
14320WAT     H143202   3.044   4.834   9.001
14320WAT     H243203   3.121   4.975   9.032
14321WAT      O43204   5.469   0.484   6.644
14321WAT     H143205   5.383   0.534   6.655
14321WAT     H243206   5.486   0.428   6.725
14322WAT      O43207   6.362   9.503   0.004
14322WAT     H143208   6.407   9.413   0.005
14322WAT     H243209   6.413   9.567   0.061
14323WAT      O43210   9.542   0.176   9.012
14323WAT     H143211   9.519   0.087   8.971
14323WAT     H243212   9.622   0.214   8.965
14324WAT      O43213   5.499   4.599   0.144
14324WAT     H143214   5.559   4.609   0.064
14324WAT     H243215   5.512   4.508   0.184
14325WAT      O43216   1.452   8.697   8.029
14325WAT     H143217   1.487   8.787   8.006
14325WAT     H243218   1.370   8.706   8.086
14326WAT      O43219   0.046   4.031   7.308
14326WAT     H143220   0.073   3.938   7.283
14326WAT     H243221   0.083   4.054   7.397
14327WAT      O43222   8.141   3.013   1.774
14327WAT     H143223   8.085   3.079   1.825
14327WAT     H243224   8.237   3.039   1.780
14328WAT      O43225   4.006   7.625   5.409
14328WAT     H143226   4.050   7.655   5.325
14328WAT     H243227   4.072   7.628   5.484
14329WAT      O43228   4.393   3.575   9.623
14329WAT     H143229   4.379   3.565   9.524
14329WAT     H243230   4.482   3.537   9.648
14330WAT      O43231   1.483   0.231   2.759
14330WAT     H143232   1.564   0.206   2.813
14330WAT     H243233   1.468   0.329   2.766
14331WAT      O43234   2.557   8.424   7.315
14331WAT     H143235   2.578   8.332   7.279
14331WAT     H243236   2.632   8.456   7.372
14332WAT      O43237   8.840   1.354   1.124
14332WAT     H143238   8.894   1.355   1.208
14332WAT     H243239   8.764   1.291   1.134
14333WAT      O43240   7.455   5.708   4.706
14333WAT     H143241   7.513   5.760   4.768
14333WAT     H243242   7.503   5.624   4.678
14334WAT      O43243   2.608   6.454   5.363
14334WAT     H143244   2.637   6.361   5.338
14334WAT     H243245   2.647   6.519   5.298
14335WAT      O43246   6.396   7.583   1.596
14335WAT     H143247   6.493   7.563   1.611
14335WAT     H243248   6.386   7.675   1.559
14336WAT      O43249   8.002   1.563   0.824
14336WAT     H143250   8.086   1.512   0.842
14336WAT     H243251   7.998   1.587   0.728
14337WAT      O43252   4.002   1.273   2.063
14337WAT     H143253   4.023   1.208   1.989
14337WAT     H243254   4.028   1.365   2.035
14338WAT      O43255   7.763   8.936   7.312
14338WAT     H143256   7.694   8.983   7.367
14338WAT     H243257   7.806   8.863   7.365
14339WAT      O43258   4.416   1.018   7.713
14339WAT     H143259   4.428   0.927   7.674
14339WAT     H243260   4.321   1.047   7.702
14340WAT      O43261   8.644   9.753   5.199
14340WAT     H143262   8.575   9.825   5.188
14340WAT     H243263   8.630   9.684   5.128
14341WAT      O43264   7.295   8.784   7.983
14341WAT     H143265   7.285   8.710   7.916
14341WAT     H243266   7.224   8.775   8.053
14342WAT      O43267   7.121   3.091   0.546
14342WAT     H143268   7.142   3.178   0.591
14342WAT     H243269   7.114   3.106   0.448
14343WAT      O43270   7.316   4.950   4.243
14343WAT     H143271   7.277   5.023   4.299
14343WAT     H243272   7.246   4.883   4.222
14344WAT      O43273   6.146   7.899   8.227
14344WAT     H143274   6.211   7.975   8.227
14344WAT     H243275   6.055   7.934   8.250
14345WAT      O43276   7.872   4.769   3.988
14345WAT     H143277   7.786   4.758   3.938
14345WAT     H243278   7.854   4.814   4.076
14346WAT      O43279   0.700   2.922   8.964
14346WAT     H143280   0.650   2.835   8.974
14346WAT     H243281   0.687   2.977   9.046
14347WAT      O43282   2.244   7.209   8.030
14347WAT     H143283   2.239   7.286   8.095
14347WAT     H243284   2.215   7.240   7.940
14348WAT      O43285   2.286   8.483   7.495
14348WAT     H143286   2.196   8.522   7.514
14348WAT     H243287   2.306   8.488   7.397
14349WAT      O43288   2.150   0.348   0.631
14349WAT     H143289   2.201   0.357   0.716
14349WAT     H243290   2.052   0.343   0.651
14350WAT      O43291   5.771   0.964   3.937
14350WAT     H143292   5.821   0.917   4.009
14350WAT     H243293   5.805   1.058   3.927
14351WAT      O43294   6.229   3.907   0.593
14351WAT     H143295   6.327   3.890   0.604
14351WAT     H243296   6.178   3.850   0.658
14352WAT      O43297   3.927   9.025   0.844
14352WAT     H143298   3.956   9.032   0.939
14352WAT     H243299   4.007   9.007   0.786
14353WAT      O43300   7.322   5.218   5.586
14353WAT     H143301   7.312   5.121   5.564
14353WAT     H243302   7.235   5.254   5.617
14354WAT      O43303   6.335   9.346   7.850
14354WAT     H143304   6.276   9.294   7.788
14354WAT     H243305   6.406   9.286   7.885
14355WAT      O43306   8.643   2.209   2.196
14355WAT     H143307   8.722   2.247   2.147
14355WAT     H243308   8.591   2.150   2.134
14356WAT      O43309   5.696   7.907   4.423
14356WAT     H143310   5.672   7.982   4.361
14356WAT     H243311   5.697   7.821   4.371
14357WAT      O43312   8.866   0.343   7.611
14357WAT     H143313   8.841   0.246   7.603
14357WAT     H243314   8.911   0.358   7.699
14358WAT      O43315   6.241   5.869   1.958
14358WAT     H143316   6.188   5.834   2.035
14358WAT     H243317   6.265   5.965   1.976
14359WAT      O43318   2.620   8.975   4.399
14359WAT     H143319   2.660   9.062   4.429
14359WAT     H243320   2.607   8.976   4.300
14360WAT      O43321   5.033   7.623   1.066
14360WAT     H143322   4.965   7.620   0.993
14360WAT     H243323   4.987   7.616   1.155
14361WAT      O43324   0.803   6.770   1.650
14361WAT     H143325   0.873   6.709   1.687
14361WAT     H243326   0.789   6.750   1.553
14362WAT      O43327   3.374   2.052   9.417
14362WAT     H143328   3.359   1.996   9.336
14362WAT     H243329   3.472   2.067   9.430
14363WAT      O43330   3.321   2.604   5.442
14363WAT     H143331   3.399   2.546   5.467
14363WAT     H243332   3.236   2.563   5.475
14364WAT      O43333   4.836   8.472   1.031
14364WAT     H143334   4.862   8.519   1.116
14364WAT     H243335   4.915   8.470   0.969
14365WAT      O43336   9.220   2.032   6.864
14365WAT     H143337   9.210   2.109   6.926
14365WAT     H243338   9.175   2.053   6.777
14366WAT      O43339   5.965   0.056   6.812
14366WAT     H143340   5.947   0.097   6.723
14366WAT     H243341   5.900   0.092   6.879
14367WAT      O43342   9.589   3.833   7.883
14367WAT     H143343   9.563   3.770   7.957
14367WAT     H243344   9.657   3.898   7.918
14368WAT      O43345   5.435   5.482   9.626
14368WAT     H143346   5.514   5.527   9.668
14368WAT     H243347   5.425   5.514   9.532
14369WAT      O43348   6.576   3.501   1.538
14369WAT     H143349   6.603   3.419   1.489
14369WAT     H243350   6.494   3.482   1.591
14370WAT      O43351   2.542   0.173   4.157
14370WAT     H143352   2.571   0.124   4.239
14370WAT     H243353   2.555   0.271   4.170
14371WAT      O43354   5.804   6.199   0.181
14371WAT     H143355   5.838   6.257   0.107
14371WAT     H243356   5.879   6.140   0.212
14372WAT      O43357   7.405   0.491   0.397
14372WAT     H143358   7.339   0.431   0.443
14372WAT     H243359   7.358   0.573   0.364
14373WAT      O43360   4.759   3.637   4.405
14373WAT     H143361   4.755   3.654   4.306
14373WAT     H243362   4.854   3.623   4.433
14374WAT      O43363   0.058   3.433   9.274
14374WAT     H143364   0.028   3.429   9.178
14374WAT     H243365   0.088   3.526   9.295
14375WAT      O43366   7.248   9.043   3.280
14375WAT     H143367   7.301   8.981   3.339
14375WAT     H243368   7.306   9.119   3.251
14376WAT      O43369   0.401   0.602   7.755
14376WAT     H143370   0.494   0.599   7.791
14376WAT     H243371   0.341   0.547   7.814
14377WAT      O43372   3.692   2.611   9.707
14377WAT     H143373   3.744   2.696   9.714
14377WAT     H243374   3.753   2.537   9.680
14378WAT      O43375   3.190   3.157   2.139
14378WAT     H143376   3.232   3.094   2.074
14378WAT     H243377   3.233   3.247   2.132
14379WAT      O43378   9.612   4.309   5.268
14379WAT     H143379   9.513   4.326   5.277
14379WAT     H243380   9.645   4.263   5.350
14380WAT      O43381   3.027   1.374   1.683
14380WAT     H143382   2.943   1.344   1.636
14380WAT     H243383   3.019   1.354   1.780
14381WAT      O43384   5.938   6.597   8.882
14381WAT     H143385   5.987   6.678   8.850
14381WAT     H243386   5.958   6.581   8.979
14382WAT      O43387   1.817   0.072   6.219
14382WAT     H143388   1.740   0.110   6.167
14382WAT     H243389   1.801  -0.026   6.234
14383WAT      O43390   8.030   2.843   6.500
14383WAT     H143391   8.025   2.845   6.600
14383WAT     H243392   7.946   2.882   6.462
14384WAT      O43393   1.208   4.566   1.084
14384WAT     H143394   1.163   4.507   1.151
14384WAT     H243395   1.307   4.563   1.097
14385WAT      O43396   2.445   4.493   7.846
14385WAT     H143397   2.455   4.435   7.928
14385WAT     H243398   2.485   4.447   7.768
14386WAT      O43399   5.542   0.597   9.489
14386WAT     H143400   5.613   0.666   9.472
14386WAT     H243401   5.464   0.615   9.428
14387WAT      O43402   7.807   0.303   0.413
14387WAT     H143403   7.905   0.290   0.402
14387WAT     H243404   7.762   0.300   0.324
14388WAT      O43405   2.823   2.093   4.542
14388WAT     H143406   2.793   2.167   4.482
14388WAT     H243407   2.796   2.005   4.502
14389WAT      O43408   0.643   5.718   3.339
14389WAT     H143409   0.655   5.632   3.289
14389WAT     H243410   0.558   5.714   3.392
14390WAT      O43411   4.777   6.181   3.105
14390WAT     H143412   4.688   6.226   3.114
14390WAT     H243413   4.767   6.083   3.122
14391WAT      O43414   9.218   6.969   7.648
14391WAT     H143415   9.177   6.989   7.737
14391WAT     H243416   9.182   6.883   7.613
14392WAT      O43417   7.500   9.685   6.436
14392WAT     H143418   7.485   9.611   6.369
14392WAT     H243419   7.575   9.660   6.497
14393WAT      O43420   7.587   0.570   6.572
14393WAT     H143421   7.551   0.646   6.517
14393WAT     H243422   7.532   0.489   6.556
14394WAT      O43423   1.356   0.646   1.202
14394WAT     H143424   1.342   0.548   1.191
14394WAT     H243425   1.321   0.694   1.121
14395WAT      O43426   5.026   2.393   9.639
14395WAT     H143427   5.014   2.352   9.549
14395WAT     H243428   5.120   2.426   9.648
14396WAT      O43429   1.094   7.221   6.566
14396WAT     H143430   1.158   7.286   6.524
14396WAT     H243431   1.065   7.154   6.498
14397WAT      O43432   7.827   6.574   2.781
14397WAT     H143433   7.877   6.630   2.714
14397WAT     H243434   7.830   6.618   2.870
14398WAT      O43435   7.296   4.010   4.425
14398WAT     H143436   7.274   3.938   4.491
14398WAT     H243437   7.378   4.058   4.455
14399WAT      O43438   4.863   3.892   1.286
14399WAT     H143439   4.851   3.812   1.228
14399WAT     H243440   4.954   3.932   1.271
14400WAT      O43441   2.123   4.829   5.570
14400WAT     H143442   2.134   4.812   5.472
14400WAT     H243443   2.192   4.894   5.600
14401WAT      O43444   8.458   6.763   5.678
14401WAT     H143445   8.549   6.762   5.637
14401WAT     H243446   8.461   6.816   5.763
14402WAT      O43447   2.422   8.042   7.010
14402WAT     H143448   2.486   7.978   6.967
14402WAT     H243449   2.439   8.134   6.975
14403WAT      O43450   6.893   5.287   5.414
14403WAT     H143451   6.802   5.329   5.415
14403WAT     H243452   6.942   5.316   5.332
14404WAT      O43453   7.790   2.513   6.647
14404WAT     H143454   7.734   2.461   6.712
14404WAT     H243455   7.870   2.551   6.695
14405WAT      O43456   4.712   3.796   4.656
14405WAT     H143457   4.626   3.745   4.659
14405WAT     H243458   4.767   3.764   4.579
14406WAT      O43459   6.076   5.466   8.249
14406WAT     H143460   6.137   5.545   8.249
14406WAT     H243461   6.130   5.382   8.245
14407WAT      O43462   6.621   0.274   8.149
14407WAT     H143463   6.558   0.311   8.080
14407WAT     H243464   6.608   0.175   8.155
14408WAT      O43465   5.887   7.565   2.536
14408WAT     H143466   5.893   7.489   2.470
14408WAT     H243467   5.895   7.652   2.487
14409WAT      O43468   6.811   5.273   9.169
14409WAT     H143469   6.776   5.356   9.211
14409WAT     H243470   6.740   5.231   9.112
14410WAT      O43471   3.406   3.177   8.988
14410WAT     H143472   3.319   3.192   8.940
14410WAT     H243473   3.436   3.263   9.030
14411WAT      O43474   7.238   1.773   1.752
14411WAT     H143475   7.259   1.679   1.727
14411WAT     H243476   7.177   1.813   1.683
14412WAT      O43477   0.885   8.502   8.918
14412WAT     H143478   0.946   8.504   8.997
14412WAT     H243479   0.831   8.418   8.919
14413WAT      O43480   4.042   7.317   1.090
14413WAT     H143481   4.049   7.366   1.003
14413WAT     H243482   4.131   7.313   1.134
14414WAT      O43483   4.151   3.714   1.195
14414WAT     H143484   4.063   3.682   1.228
14414WAT     H243485   4.215   3.637   1.189
14415WAT      O43486   6.846   0.242   5.167
14415WAT     H143487   6.764   0.221   5.220
14415WAT     H243488   6.895   0.319   5.209
14416WAT      O43489   1.107   8.304   5.390
14416WAT     H143490   1.138   8.217   5.429
14416WAT     H243491   1.186   8.365   5.377
14417WAT      O43492   8.898   1.754   8.242
14417WAT     H143493   8.917   1.680   8.306
14417WAT     H243494   8.895   1.841   8.292
14418WAT      O43495   5.401   4.598   0.586
14418WAT     H143496   5.301   4.595   0.582
14418WAT     H243497   5.435   4.649   0.507
14419WAT      O43498   5.378   9.442   6.461
14419WAT     H143499   5.338   9.350   6.456
14419WAT     H243500   5.314   9.503   6.508
14420WAT      O43501   1.743   1.011   8.025
14420WAT     H143502   1.810   1.081   8.000
14420WAT     H243503   1.734   0.945   7.950
14421WAT      O43504   3.716   4.921   9.691
14421WAT     H143505   3.707   4.889   9.597
14421WAT     H243506   3.718   4.843   9.753
14422WAT      O43507   1.926   3.850   5.749
14422WAT     H143508   1.971   3.781   5.692
14422WAT     H243509   1.978   3.863   5.833
14423WAT      O43510   6.815   0.927   2.402
14423WAT     H143511   6.809   0.885   2.492
14423WAT     H243512   6.724   0.926   2.359
14424WAT      O43513   3.665   3.143   9.404
14424WAT     H143514   3.647   3.239   9.382
14424WAT     H243515   3.606   3.085   9.347
14425WAT      O43516   8.698   2.679   1.738
14425WAT     H143517   8.691   2.733   1.822
14425WAT     H243518   8.740   2.591   1.758
14426WAT      O43519   7.830   4.758   7.789
14426WAT     H143520   7.777   4.679   7.758
14426WAT     H243521   7.905   4.728   7.848
14427WAT      O43522   4.455   9.225   3.934
14427WAT     H143523   4.442   9.133   3.971
14427WAT     H243524   4.479   9.219   3.837
14428WAT      O43525   6.930   2.004   9.838
14428WAT     H143526   7.008   2.009   9.901
14428WAT     H243527   6.867   1.934   9.871
14429WAT      O43528   9.837   0.807   4.289
14429WAT     H143529   9.927   0.764   4.289
14429WAT     H243530   9.775   0.755   4.348
14430WAT      O43531   6.461   5.748   2.725
14430WAT     H143532   6.426   5.770   2.634
14430WAT     H243533   6.554   5.712   2.717
14431WAT      O43534   2.793   6.257   1.106
14431WAT     H143535   2.744   6.193   1.166
14431WAT     H243536   2.889   6.262   1.135
14432WAT      O43537   2.480   7.026   9.426
14432WAT     H143538   2.562   7.083   9.433
14432WAT     H243539   2.505   6.938   9.386
14433WAT      O43540   3.531   3.573   4.035
14433WAT     H143541   3.578   3.556   4.121
14433WAT     H243542   3.492   3.666   4.036
14434WAT      O43543   5.272   8.288   3.334
14434WAT     H143544   5.275   8.200   3.286
14434WAT     H243545   5.365   8.323   3.344
14435WAT      O43546   9.083   3.457   0.600
14435WAT     H143547   8.998   3.404   0.609
14435WAT     H243548   9.060   3.551   0.577
14436WAT      O43549   9.102   4.295   2.482
14436WAT     H143550   9.092   4.197   2.500
14436WAT     H243551   9.185   4.328   2.526
14437WAT      O43552   8.790   9.685   3.775
14437WAT     H143553   8.845   9.603   3.788
14437WAT     H243554   8.703   9.675   3.824
14438WAT      O43555   5.977   6.064   8.129
14438WAT     H143556   5.908   6.098   8.192
14438WAT     H243557   6.000   6.135   8.063
14439WAT      O43558   3.162   5.188   2.263
14439WAT     H143559   3.162   5.104   2.317
14439WAT     H243560   3.132   5.167   2.169
14440WAT      O43561   5.395   6.211   7.263
14440WAT     H143562   5.329   6.186   7.334
14440WAT     H243563   5.488   6.202   7.300
14441WAT      O43564   1.639   7.236   5.009
14441WAT     H143565   1.686   7.174   4.947
14441WAT     H243566   1.579   7.184   5.069
14442WAT      O43567   1.428   4.651   0.413
14442WAT     H143568   1.334   4.620   0.427
14442WAT     H243569   1.436   4.748   0.435
14443WAT      O43570   5.696   1.661   3.711
14443WAT     H143571   5.632   1.631   3.640
14443WAT     H243572   5.684   1.604   3.792
14444WAT      O43573   9.533   3.415   4.638
14444WAT     H143574   9.438   3.446   4.638
14444WAT     H243575   9.542   3.333   4.582
14445WAT      O43576   9.421   6.346   9.238
14445WAT     H143577   9.514   6.374   9.213
14445WAT     H243578   9.359   6.364   9.162
14446WAT      O43579   7.421   9.207   5.211
14446WAT     H143580   7.350   9.241   5.273
14446WAT     H243581   7.380   9.144   5.145
14447WAT      O43582   4.680   5.382   1.223
14447WAT     H143583   4.593   5.338   1.245
14447WAT     H243584   4.728   5.403   1.308
14448WAT      O43585   8.474   9.024   2.085
14448WAT     H143586   8.376   9.045   2.091
14448WAT     H243587   8.492   8.974   2.000
14449WAT      O43588   5.903   1.817   5.833
14449WAT     H143589   5.979   1.882   5.835
14449WAT     H243590   5.930   1.734   5.883
14450WAT      O43591   3.319   1.857   4.072
14450WAT     H143592   3.225   1.830   4.050
14450WAT     H243593   3.319   1.919   4.150
14451WAT      O43594   0.834   5.482   5.984
14451WAT     H143595   0.927   5.456   5.958
14451WAT     H243596   0.807   5.563   5.932
14452WAT      O43597   4.387   1.844   6.184
14452WAT     H143598   4.319   1.916   6.171
14452WAT     H243599   4.362   1.764   6.129
14453WAT      O43600   3.397   1.707   9.205
14453WAT     H143601   3.394   1.680   9.301
14453WAT     H243602   3.358   1.799   9.195
14454WAT      O43603   6.338   0.043   0.609
14454WAT     H143604   6.317   0.140   0.597
14454WAT     H243605   6.428   0.034   0.653
14455WAT      O43606   1.577   5.704   2.981
14455WAT     H143607   1.564   5.686   3.079
14455WAT     H243608   1.673   5.725   2.963
14456WAT      O43609   7.483   8.429   5.569
14456WAT     H143610   7.539   8.352   5.601
14456WAT     H243611   7.413   8.395   5.506
14457WAT      O43612   6.943   3.867   4.945
14457WAT     H143613   6.865   3.826   4.992
14457WAT     H243614   7.028   3.830   4.982
14458WAT      O43615   8.381   5.651   7.634
14458WAT     H143616   8.400   5.554   7.644
14458WAT     H243617   8.453   5.694   7.581
14459WAT      O43618   3.692   4.076   7.146
14459WAT     H143619   3.737   4.004   7.094
14459WAT     H243620   3.714   4.165   7.106
14460WAT      O43621   3.883   6.557   4.642
14460WAT     H143622   3.834   6.598   4.720
14460WAT     H243623   3.868   6.613   4.561
14461WAT      O43624   9.432   8.211   0.509
14461WAT     H143625   9.436   8.156   0.425
14461WAT     H243626   9.435   8.308   0.484
14462WAT      O43627   1.654   1.363   0.637
14462WAT     H143628   1.630   1.297   0.565
14462WAT     H243629   1.697   1.443   0.596
14463WAT      O43630   7.526   1.907   1.078
14463WAT     H143631   7.615   1.862   1.069
14463WAT     H243632   7.513   1.937   1.172
14464WAT      O43633   0.955   9.201   7.860
14464WAT     H143634   0.946   9.121   7.920
14464WAT     H243635   0.864   9.229   7.830
14465WAT      O43636   2.689   5.691   7.148
14465WAT     H143637   2.727   5.631   7.078
14465WAT     H243638   2.718   5.659   7.238
14466WAT      O43639   8.645   6.777   2.004
14466WAT     H143640   8.584   6.834   2.060
14466WAT     H243641   8.739   6.789   2.035
14467WAT      O43642   3.182   3.770   5.617
14467WAT     H143643   3.149   3.826   5.541
14467WAT     H243644   3.125   3.688   5.627
14468WAT      O43645   5.251   3.217   9.440
14468WAT     H143646   5.264   3.282   9.366
14468WAT     H243647   5.154   3.194   9.447
14469WAT      O43648   1.855   2.989   1.167
14469WAT     H143649   1.898   2.962   1.080
14469WAT     H243650   1.926   3.011   1.233
14470WAT      O43651   1.558   8.955   3.504
14470WAT     H143652   1.535   8.997   3.592
14470WAT     H243653   1.473   8.932   3.455
14471WAT      O43654   6.085   4.800   1.195
14471WAT     H143655   6.014   4.740   1.157
14471WAT     H243656   6.148   4.827   1.123
14472WAT      O43657   6.695   6.988   7.286
14472WAT     H143658   6.674   6.902   7.239
14472WAT     H243659   6.794   7.003   7.284
14473WAT      O43660   4.367   2.191   5.362
14473WAT     H143661   4.370   2.147   5.272
14473WAT     H243662   4.454   2.176   5.409
14474WAT      O43663   3.686   7.209   1.858
14474WAT     H143664   3.615   7.213   1.788
14474WAT     H243665   3.702   7.301   1.894
14475WAT      O43666   6.139   1.467   9.487
14475WAT     H143667   6.081   1.544   9.513
14475WAT     H243668   6.164   1.475   9.390
14476WAT      O43669   2.065   9.158   4.005
14476WAT     H143670   2.025   9.067   3.990
14476WAT     H243671   2.026   9.223   3.940
14477WAT      O43672   7.934   3.089   6.784
14477WAT     H143673   7.942   3.140   6.869
14477WAT     H243674   7.991   3.131   6.714
14478WAT      O43675   3.012   0.061   7.485
14478WAT     H143676   3.062   0.109   7.414
14478WAT     H243677   3.024  -0.037   7.474
14479WAT      O43678   2.691   1.806   6.254
14479WAT     H143679   2.674   1.730   6.317
14479WAT     H243680   2.695   1.771   6.160
14480WAT      O43681   8.690   1.098   3.408
14480WAT     H143682   8.709   1.000   3.401
14480WAT     H243683   8.653   1.130   3.321
14481WAT      O43684   6.404   7.742   3.991
14481WAT     H143685   6.386   7.839   4.008
14481WAT     H243686   6.453   7.731   3.905
14482WAT      O43687   7.476   6.102   7.336
14482WAT     H143688   7.504   6.052   7.254
14482WAT     H243689   7.377   6.116   7.334
14483WAT      O43690   1.135   6.830   6.219
14483WAT     H143691   1.198   6.817   6.296
14483WAT     H243692   1.085   6.745   6.203
14484WAT      O43693   5.657   7.426   4.456
14484WAT     H143694   5.588   7.354   4.447
14484WAT     H243695   5.748   7.388   4.434
14485WAT      O43696   7.647   9.104   0.993
14485WAT     H143697   7.709   9.154   0.933
14485WAT     H243698   7.583   9.050   0.938
14486WAT      O43699   0.567   1.567   5.533
14486WAT     H143700   0.559   1.535   5.627
14486WAT     H243701   0.660   1.600   5.517
14487WAT      O43702   1.214   4.114   2.799
14487WAT     H143703   1.187   4.043   2.865
14487WAT     H243704   1.276   4.074   2.732
14488WAT      O43705   4.789   0.027   3.130
14488WAT     H143706   4.776   0.076   3.216
14488WAT     H243707   4.876  -0.021   3.132
14489WAT      O43708   2.869   5.646   9.639
14489WAT     H143709   2.874   5.745   9.644
14489WAT     H243710   2.809   5.619   9.563
14490WAT      O43711   3.372   3.640   1.658
14490WAT     H143712   3.377   3.550   1.702
14490WAT     H243713   3.444   3.699   1.694
14491WAT      O43714   3.854   6.706   8.703
14491WAT     H143715   3.907   6.790   8.693
14491WAT     H243716   3.906   6.629   8.665
14492WAT      O43717   5.732   6.449   2.793
14492WAT     H143718   5.689   6.366   2.831
14492WAT     H243719   5.823   6.460   2.833
14493WAT      O43720   2.445   6.293   7.808
14493WAT     H143721   2.406   6.309   7.899
14493WAT     H243722   2.511   6.218   7.814
14494WAT      O43723   7.840   7.464   1.036
14494WAT     H143724   7.885   7.378   1.013
14494WAT     H243725   7.844   7.526   0.957
14495WAT      O43726   8.066   5.787   0.027
14495WAT     H143727   7.993   5.784  -0.041
14495WAT     H243728   8.112   5.876   0.023
14496WAT      O43729   0.495   0.091   9.563
14496WAT     H143730   0.421   0.103   9.628
14496WAT     H243731   0.558   0.169   9.569
14497WAT      O43732   7.400   7.475   1.318
14497WAT     H143733   7.309   7.437   1.334
14497WAT     H243734   7.458   7.405   1.275
14498WAT      O43735   4.857   8.571   1.498
14498WAT     H143736   4.932   8.518   1.539
14498WAT     H243737   4.771   8.548   1.544
14499WAT      O43738   8.222   5.510   3.977
14499WAT     H143739   8.151   5.574   4.003
14499WAT     H243740   8.195   5.461   3.894
14500WAT      O43741   3.459   7.244   6.726
14500WAT     H143742   3.512   7.313   6.775
14500WAT     H243743   3.362   7.271   6.725
14501WAT      O43744   4.200   1.180   6.518
14501WAT     H143745   4.239   1.092   6.491
14501WAT     H243746   4.226   1.200   6.613
14502WAT      O43747   5.452   7.003   2.011
14502WAT     H143748   5.498   6.914   2.000
14502WAT     H243749   5.380   6.994   2.080
14503WAT      O43750   8.270   4.165   2.075
14503WAT     H143751   8.242   4.085   2.128
14503WAT     H243752   8.251   4.150   1.979
14504WAT      O43753   3.003   4.005   7.653
14504WAT     H143754   2.922   3.946   7.649
14504WAT     H243755   3.033   4.026   7.560
14505WAT      O43756   0.183   1.298   2.500
14505WAT     H143757   0.157   1.229   2.433
14505WAT     H243758   0.174   1.261   2.592
14506WAT      O43759   2.162   9.013   3.522
14506WAT     H143760   2.117   8.972   3.602
14506WAT     H243761   2.231   9.078   3.552
14507WAT      O43762   9.889   6.892   1.635
14507WAT     H143763   9.803   6.900   1.586
14507WAT     H243764   9.934   6.981   1.639
14508WAT      O43765   2.302   2.050   4.726
14508WAT     H143766   2.326   1.978   4.790
14508WAT     H243767   2.377   2.064   4.661
14509WAT      O43768   0.326   2.540   4.574
14509WAT     H143769   0.320   2.613   4.505
14509WAT     H243770   0.356   2.579   4.661
14510WAT      O43771   5.085   7.164   3.548
14510WAT     H143772   5.065   7.246   3.495
14510WAT     H243773   5.006   7.141   3.604
14511WAT      O43774   2.803   1.722   2.329
14511WAT     H143775   2.866   1.728   2.252
14511WAT     H243776   2.713   1.756   2.301
14512WAT      O43777   2.037   8.888   8.502
14512WAT     H143778   2.128   8.893   8.543
14512WAT     H243779   2.024   8.797   8.462
14513WAT      O43780   2.610   3.357   1.355
14513WAT     H143781   2.607   3.341   1.454
14513WAT     H243782   2.569   3.446   1.335
14514WAT      O43783   7.252   7.642   3.172
14514WAT     H143784   7.253   7.604   3.264
14514WAT     H243785   7.335   7.614   3.123
14515WAT      O43786   1.918   1.503   8.765
14515WAT     H143787   1.941   1.408   8.744
14515WAT     H243788   1.984   1.540   8.829
14516WAT      O43789   8.221   4.376   1.590
14516WAT     H143790   8.228   4.313   1.513
14516WAT     H243791   8.301   4.367   1.649
14517WAT      O43792   3.147   3.681   6.971
14517WAT     H143793   3.236   3.723   6.989
14517WAT     H243794   3.139   3.659   6.874
14518WAT      O43795   6.047   9.064   9.003
14518WAT     H143796   6.138   9.063   8.962
14518WAT     H243797   6.056   9.071   9.103
14519WAT      O43798   4.942   5.953   1.337
14519WAT     H143799   5.030   5.939   1.383
14519WAT     H243800   4.956   5.954   1.238
14520WAT      O43801   3.693   3.000   5.623
14520WAT     H143802   3.619   2.951   5.579
14520WAT     H243803   3.660   3.090   5.654
14521WAT      O43804   7.993   9.009   6.901
14521WAT     H143805   7.998   8.994   6.999
14521WAT     H243806   7.919   9.074   6.881
14522WAT      O43807   0.261   9.348   1.878
14522WAT     H143808   0.226   9.402   1.802
14522WAT     H243809   0.214   9.374   1.962
14523WAT      O43810   3.328   9.399   8.036
14523WAT     H143811   3.276   9.378   7.953
14523WAT     H243812   3.362   9.314   8.076
14524WAT      O43813   7.780   0.238   5.008
14524WAT     H143814   7.749   0.313   4.949
14524WAT     H243815   7.880   0.232   5.005
14525WAT      O43816   0.861   9.083   0.393
14525WAT     H143817   0.844   9.103   0.296
14525WAT     H243818   0.925   9.006   0.400
14526WAT      O43819   2.371   3.237   8.922
14526WAT     H143820   2.302   3.303   8.952
14526WAT     H243821   2.386   3.169   8.994
14527WAT      O43822   2.956   4.721   1.265
14527WAT     H143823   3.000   4.808   1.285
14527WAT     H243824   2.904   4.728   1.180
14528WAT      O43825   8.116   2.290   1.844
14528WAT     H143826   8.094   2.384   1.872
14528WAT     H243827   8.176   2.248   1.912
14529WAT      O43828   6.404   2.011   5.806
14529WAT     H143829   6.385   2.021   5.709
14529WAT     H243830   6.487   2.062   5.830
14530WAT      O43831   3.050   4.009   5.506
14530WAT     H143832   3.023   4.076   5.437
14530WAT     H243833   2.971   3.981   5.560
14531WAT      O43834   5.026   4.204   9.148
14531WAT     H143835   4.975   4.281   9.187
14531WAT     H243836   4.994   4.119   9.190
14532WAT      O43837   5.698   5.581   1.844
14532WAT     H143838   5.713   5.496   1.894
14532WAT     H243839   5.740   5.657   1.895
14533WAT      O43840   3.888   1.635   3.489
14533WAT     H143841   3.933   1.691   3.420
14533WAT     H243842   3.952   1.614   3.562
14534WAT      O43843   5.335   1.304   4.757
14534WAT     H143844   5.288   1.390   4.736
14534WAT     H243845   5.423   1.302   4.710
14535WAT      O43846   9.358   2.030   7.579
14535WAT     H143847   9.439   2.083   7.554
14535WAT     H243848   9.344   1.957   7.512
14536WAT      O43849   1.463   4.148   8.830
14536WAT     H143850   1.447   4.091   8.911
14536WAT     H243851   1.524   4.101   8.767
14537WAT      O43852   3.372   2.396   4.152
14537WAT     H143853   3.389   2.299   4.167
14537WAT     H243854   3.286   2.423   4.196
14538WAT      O43855   7.634   4.478   0.698
14538WAT     H143856   7.632   4.549   0.628
14538WAT     H243857   7.711   4.493   0.759
14539WAT      O43858   2.557   1.024   9.098
14539WAT     H143859   2.577   1.095   9.032
14539WAT     H243860   2.506   0.950   9.054
14540WAT      O43861   5.853   0.340   7.770
14540WAT     H143862   5.903   0.287   7.701
14540WAT     H243863   5.791   0.404   7.724
14541WAT      O43864   8.973   3.378   3.098
14541WAT     H143865   8.912   3.457   3.094
14541WAT     H243866   9.061   3.405   3.138
14542WAT      O43867   1.181   0.769   0.662
14542WAT     H143868   1.227   0.770   0.750
14542WAT     H243869   1.105   0.834   0.664
14543WAT      O43870   7.491   4.588   6.984
14543WAT     H143871   7.442   4.607   6.899
14543WAT     H243872   7.453   4.505   7.026
14544WAT      O43873   9.128   9.292   5.513
14544WAT     H143874   9.102   9.211   5.461
14544WAT     H243875   9.185   9.264   5.591
14545WAT      O43876   0.386   5.110   0.805
14545WAT     H143877   0.349   5.203   0.807
14545WAT     H243878   0.481   5.113   0.774
14546WAT      O43879   3.776   6.625   7.517
14546WAT     H143880   3.786   6.640   7.615
14546WAT     H243881   3.792   6.528   7.496
14547WAT      O43882   4.376   4.361   4.119
14547WAT     H143883   4.282   4.327   4.120
14547WAT     H243884   4.439   4.284   4.122
14548WAT      O43885   2.931   8.654   4.695
14548WAT     H143886   2.849   8.654   4.752
14548WAT     H243887   2.948   8.747   4.661
14549WAT      O43888   9.468   1.100   4.710
14549WAT     H143889   9.455   1.122   4.806
14549WAT     H243890   9.537   1.029   4.700
14550WAT      O43891   4.925   0.293   0.050
14550WAT     H143892   4.826   0.299   0.060
14550WAT     H243893   4.955   0.199   0.068
14551WAT      O43894   9.632   3.772   8.738
14551WAT     H143895   9.565   3.755   8.811
14551WAT     H243896   9.636   3.870   8.718
14552WAT      O43897   6.505   8.442   9.209
14552WAT     H143898   6.587   8.449   9.266
14552WAT     H243899   6.457   8.357   9.230
14553WAT      O43900   5.333   6.098   6.355
14553WAT     H143901   5.342   6.173   6.289
14553WAT     H243902   5.236   6.073   6.364
14554WAT      O43903   4.822   4.267   0.327
14554WAT     H143904   4.908   4.219   0.346
14554WAT     H243905   4.841   4.364   0.315
14555WAT      O43906   1.953   9.407   2.059
14555WAT     H143907   1.871   9.357   2.089
14555WAT     H243908   1.936   9.447   1.969
14556WAT      O43909   5.419   6.526   5.311
14556WAT     H143910   5.331   6.562   5.340
14556WAT     H243911   5.491   6.591   5.336
14557WAT      O43912   5.715   9.306   3.063
14557WAT     H143913   5.657   9.378   3.025
14557WAT     H243914   5.666   9.260   3.137
14558WAT      O43915   1.813   1.569   2.408
14558WAT     H143916   1.897   1.516   2.421
14558WAT     H243917   1.734   1.510   2.424
14559WAT      O43918   9.210   8.717   7.174
14559WAT     H143919   9.302   8.721   7.213
14559WAT     H243920   9.169   8.628   7.192
14560WAT      O43921   1.372   2.286   6.802
14560WAT     H143922   1.394   2.312   6.708
14560WAT     H243923   1.451   2.239   6.842
14561WAT      O43924   3.717   9.396   2.655
14561WAT     H143925   3.747   9.322   2.594
14561WAT     H243926   3.619   9.411   2.644
14562WAT      O43927   5.608   7.420   7.650
14562WAT     H143928   5.609   7.451   7.745
14562WAT     H243929   5.608   7.320   7.648
14563WAT      O43930   6.106   4.134   3.033
14563WAT     H143931   6.066   4.194   2.964
14563WAT     H243932   6.070   4.158   3.123
14564WAT      O43933   6.339   1.272   4.791
14564WAT     H143934   6.269   1.219   4.838
14564WAT     H243935   6.344   1.245   4.695
14565WAT      O43936   7.431   3.832   8.949
14565WAT     H143937   7.376   3.749   8.957
14565WAT     H243938   7.514   3.822   9.004
14566WAT      O43939   1.972   3.162   1.649
14566WAT     H143940   2.028   3.226   1.596
14566WAT     H243941   1.886   3.205   1.674
14567WAT      O43942   2.443   9.692   8.424
14567WAT     H143943   2.413   9.786   8.409
14567WAT     H243944   2.513   9.668   8.357
14568WAT      O43945   1.161   3.684   7.766
14568WAT     H143946   1.141   3.588   7.745
14568WAT     H243947   1.120   3.743   7.697
14569WAT      O43948   4.044   0.228   0.005
14569WAT     H143949   3.995   0.191   0.084
14569WAT     H243950   3.979   0.275  -0.055
14570WAT      O43951   7.636   9.309   1.631
14570WAT     H143952   7.671   9.385   1.576
14570WAT     H243953   7.687   9.304   1.717
14571WAT      O43954   0.432   4.859   0.961
14571WAT     H143955   0.445   4.881   1.057
14571WAT     H243956   0.396   4.939   0.913
14572WAT      O43957   4.168   2.956   4.902
14572WAT     H143958   4.183   3.040   4.850
14572WAT     H243959   4.074   2.924   4.887
14573WAT      O43960   4.850   6.878   9.241
14573WAT     H143961   4.767   6.931   9.260
14573WAT     H243962   4.857   6.862   9.143
14574WAT      O43963   0.634   1.128   4.963
14574WAT     H143964   0.569   1.074   5.015
14574WAT     H243965   0.652   1.084   4.875
14575WAT      O43966   3.804   3.849   5.337
14575WAT     H143967   3.842   3.936   5.367
14575WAT     H243968   3.710   3.863   5.305
14576WAT      O43969   7.311   6.167   0.106
14576WAT     H143970   7.268   6.228   0.172
14576WAT     H243971   7.259   6.168   0.020
14577WAT      O43972   2.410   3.534   7.923
14577WAT     H143973   2.318   3.571   7.911
14577WAT     H243974   2.428   3.520   8.021
14578WAT      O43975   8.184   6.672   0.488
14578WAT     H143976   8.226   6.760   0.468
14578WAT     H243977   8.129   6.643   0.409
14579WAT      O43978   8.464   7.836   9.045
14579WAT     H143979   8.381   7.890   9.038
14579WAT     H243980   8.455   7.770   9.120
14580WAT      O43981   8.427   8.929   8.798
14580WAT     H143982   8.412   8.958   8.892
14580WAT     H243983   8.524   8.941   8.775
14581WAT      O43984   3.317   5.266   4.307
14581WAT     H143985   3.312   5.166   4.300
14581WAT     H243986   3.261   5.296   4.384
14582WAT      O43987   7.822   0.930   7.439
14582WAT     H143988   7.738   0.882   7.413
14582WAT     H243989   7.822   0.945   7.538
14583WAT      O43990   3.985   1.721   9.000
14583WAT     H143991   4.071   1.672   9.012
14583WAT     H243992   3.940   1.689   8.916
14584WAT      O43993   2.365   7.808   3.607
14584WAT     H143994   2.265   7.803   3.613
14584WAT     H243995   2.404   7.804   3.699
14585WAT      O43996   7.246   1.699   8.480
14585WAT     H143997   7.202   1.678   8.567
14585WAT     H243998   7.327   1.756   8.495
14586WAT      O43999   2.024   7.272   7.749
14586WAT     H144000   2.104   7.213   7.746
14586WAT     H244001   1.947   7.222   7.790
14587WAT      O44002   9.270   1.120   8.240
14587WAT     H144003   9.263   1.123   8.141
14587WAT     H244004   9.357   1.078   8.266
14588WAT      O44005   6.537   2.966   3.939
14588WAT     H144006   6.503   3.000   3.851
14588WAT     H244007   6.610   2.900   3.924
14589WAT      O44008   6.339   0.836   7.040
14589WAT     H144009   6.305   0.930   7.035
14589WAT     H244010   6.304   0.792   7.122
14590WAT      O44011   8.531   6.196   3.443
14590WAT     H144012   8.539   6.110   3.494
14590WAT     H244013   8.619   6.243   3.441
14591WAT      O44014   9.098   4.548   0.487
14591WAT     H144015   9.102   4.560   0.586
14591WAT     H244016   9.002   4.543   0.458
14592WAT      O44017   0.493   1.263   6.980
14592WAT     H144018   0.402   1.296   7.007
14592WAT     H244019   0.539   1.333   6.926
14593WAT      O44020   2.059   4.741   4.207
14593WAT     H144021   1.964   4.762   4.231
14593WAT     H244022   2.120   4.797   4.263
14594WAT      O44023   2.744   0.977   2.817
14594WAT     H144024   2.825   0.931   2.854
14594WAT     H244025   2.767   1.020   2.730
14595WAT      O44026   6.718   6.357   4.922
14595WAT     H144027   6.810   6.363   4.884
14595WAT     H244028   6.666   6.287   4.873
14596WAT      O44029   6.908   0.805   3.085
14596WAT     H144030   6.861   0.717   3.094
14596WAT     H244031   7.007   0.789   3.081
14597WAT      O44032   5.980   6.106   3.318
14597WAT     H144033   6.049   6.073   3.383
14597WAT     H244034   6.024   6.133   3.233
14598WAT      O44035   5.820   6.599   5.021
14598WAT     H144036   5.734   6.558   5.051
14598WAT     H244037   5.886   6.596   5.096
14599WAT      O44038   4.952   2.634   8.115
14599WAT     H144039   5.014   2.593   8.182
14599WAT     H244040   4.860   2.641   8.155
14600WAT      O44041   3.029   0.213   2.647
14600WAT     H144042   2.990   0.184   2.735
14600WAT     H244043   3.094   0.144   2.615
14601WAT      O44044   0.347   7.074   9.081
14601WAT     H144045   0.294   7.015   9.142
14601WAT     H244046   0.294   7.156   9.061
14602WAT      O44047   5.752   1.576   3.005
14602WAT     H144048   5.655   1.567   3.027
14602WAT     H244049   5.802   1.605   3.086
14603WAT      O44050   5.664   9.773   0.610
14603WAT     H144051   5.716   9.735   0.533
14603WAT     H244052   5.592   9.832   0.575
14604WAT      O44053   4.461   7.484   6.512
14604WAT     H144054   4.372   7.448   6.541
14604WAT     H244055   4.460   7.584   6.518
14605WAT      O44056   9.004   5.950   2.192
14605WAT     H144057   9.088   5.899   2.207
14605WAT     H244058   9.026   6.042   2.159
14606WAT      O44059   7.996   6.899   8.502
14606WAT     H144060   8.005   6.836   8.579
14606WAT     H244061   8.025   6.991   8.530
14607WAT      O44062   7.712   0.476   5.426
14607WAT     H144063   7.660   0.452   5.344
14607WAT     H244064   7.650   0.487   5.503
14608WAT      O44065   6.947   3.153   7.874
14608WAT     H144066   6.955   3.062   7.833
14608WAT     H244067   6.982   3.221   7.810
14609WAT      O44068   9.605   8.410   3.339
14609WAT     H144069   9.537   8.339   3.318
14609WAT     H244070   9.621   8.412   3.437
14610WAT      O44071   8.694   3.343   5.324
14610WAT     H144072   8.609   3.358   5.374
14610WAT     H244073   8.689   3.392   5.237
14611WAT      O44074   5.226   1.629   4.427
14611WAT     H144075   5.257   1.556   4.366
14611WAT     H244076   5.203   1.710   4.372
14612WAT      O44077   5.078   8.034   5.262
14612WAT     H144078   5.020   8.057   5.183
14612WAT     H244079   5.174   8.033   5.233
14613WAT      O44080   5.256   4.388   8.529
14613WAT     H144081   5.160   4.361   8.518
14613WAT     H244082   5.261   4.487   8.544
14614WAT      O44083   8.311   5.952   4.924
14614WAT     H144084   8.406   5.920   4.921
14614WAT     H244085   8.288   5.994   4.836
14615WAT      O44086   9.291   3.360   9.160
14615WAT     H144087   9.382   3.378   9.122
14615WAT     H244088   9.226   3.425   9.122
14616WAT      O44089   2.590   5.960   1.075
14616WAT     H144090   2.521   6.016   1.029
14616WAT     H244091   2.652   6.020   1.126
14617WAT      O44092   9.582   5.497   8.939
14617WAT     H144093   9.589   5.550   8.855
14617WAT     H244094   9.673   5.485   8.978
14618WAT      O44095   4.561   0.612   9.326
14618WAT     H144096   4.593   0.542   9.262
14618WAT     H244097   4.481   0.578   9.375
14619WAT      O44098   7.606   7.066   8.562
14619WAT     H144099   7.648   7.128   8.495
14619WAT     H244100   7.543   7.117   8.620
14620WAT      O44101   7.751   0.593   7.707
14620WAT     H144102   7.653   0.578   7.704
14620WAT     H244103   7.794   0.545   7.630
14621WAT      O44104   4.846   6.592   8.688
14621WAT     H144105   4.896   6.507   8.702
14621WAT     H244106   4.756   6.585   8.731
14622WAT      O44107   1.049   8.273   1.671
14622WAT     H144108   1.099   8.359   1.658
14622WAT     H244109   1.048   8.249   1.768
14623WAT      O44110   8.266   8.659   7.300
14623WAT     H144111   8.351   8.684   7.253
14623WAT     H244112   8.188   8.696   7.250
14624WAT      O44113   0.023   2.022   5.399
14624WAT     H144114   0.058   2.110   5.429
14624WAT     H244115  -0.072   2.012   5.427
14625WAT      O44116   2.226   1.844   4.453
14625WAT     H144117   2.254   1.819   4.546
14625WAT     H244118   2.306   1.845   4.393
14626WAT      O44119   2.012   1.629   5.904
14626WAT     H144120   2.075   1.707   5.898
14626WAT     H244121   1.922   1.656   5.870
14627WAT      O44122   8.921   1.676   7.204
14627WAT     H144123   8.966   1.751   7.251
14627WAT     H244124   8.857   1.712   7.136
14628WAT      O44125   8.286   3.600   9.693
14628WAT     H144126   8.267   3.521   9.634
14628WAT     H244127   8.315   3.568   9.783
14629WAT      O44128   0.437   2.155   1.576
14629WAT     H144129   0.399   2.176   1.487
14629WAT     H244130   0.504   2.224   1.601
14630WAT      O44131   4.351   8.362   3.953
14630WAT     H144132   4.425   8.295   3.956
14630WAT     H244133   4.385   8.447   3.915
14631WAT      O44134   3.280   7.979   4.348
14631WAT     H144135   3.311   8.046   4.281
14631WAT     H244136   3.180   7.978   4.351
14632WAT      O44137   9.805   7.623   1.492
14632WAT     H144138   9.831   7.718   1.477
14632WAT     H244139   9.824   7.597   1.587
14633WAT      O44140   8.151   4.032   1.849
14633WAT     H144141   8.144   3.934   1.869
14633WAT     H244142   8.232   4.049   1.793
14634WAT      O44143   9.617   7.314   6.714
14634WAT     H144144   9.673   7.322   6.797
14634WAT     H244145   9.640   7.389   6.652
14635WAT      O44146   8.270   1.217   5.577
14635WAT     H144147   8.312   1.236   5.488
14635WAT     H244148   8.173   1.196   5.564
14636WAT      O44149   0.834   5.327   0.383
14636WAT     H144150   0.845   5.253   0.317
14636WAT     H244151   0.921   5.343   0.429
14637WAT      O44152   2.575   7.469   3.541
14637WAT     H144153   2.527   7.523   3.472
14637WAT     H244154   2.616   7.531   3.608
14638WAT      O44155   0.966   2.701   3.279
14638WAT     H144156   0.960   2.695   3.179
14638WAT     H244157   0.896   2.644   3.320
14639WAT      O44158   1.102   7.650   5.972
14639WAT     H144159   1.094   7.662   5.873
14639WAT     H244160   1.194   7.678   6.001
14640WAT      O44161   8.477   2.126   4.558
14640WAT     H144162   8.446   2.038   4.593
14640WAT     H244163   8.568   2.115   4.517
14641WAT      O44164   5.302   1.999   0.906
14641WAT     H144165   5.397   2.027   0.894
14641WAT     H244166   5.284   1.917   0.853
14642WAT      O44167   3.723   8.914   0.341
14642WAT     H144168   3.630   8.883   0.362
14642WAT     H244169   3.756   8.974   0.413
14643WAT      O44170   0.019   1.326   7.741
14643WAT     H144171  -0.010   1.230   7.741
14643WAT     H244172   0.047   1.353   7.833
14644WAT      O44173   3.647   9.071   7.937
14644WAT     H144174   3.636   9.056   8.036
14644WAT     H244175   3.717   9.141   7.922
14645WAT      O44176   6.847   0.527   0.193
14645WAT     H144177   6.758   0.573   0.203
14645WAT     H244178   6.920   0.596   0.189
14646WAT      O44179   5.141   5.661   7.314
14646WAT     H144180   5.205   5.624   7.381
14646WAT     H244181   5.051   5.619   7.328
14647WAT      O44182   9.755   8.469   5.418
14647WAT     H144183   9.748   8.526   5.500
14647WAT     H244184   9.719   8.378   5.438
14648WAT      O44185   8.423   1.805   7.277
14648WAT     H144186   8.372   1.891   7.283
14648WAT     H244187   8.478   1.793   7.359
14649WAT      O44188   4.886   6.128   1.797
14649WAT     H144189   4.937   6.155   1.715
14649WAT     H244190   4.940   6.150   1.879
14650WAT      O44191   9.633   6.784   5.156
14650WAT     H144192   9.577   6.775   5.238
14650WAT     H244193   9.575   6.774   5.075
14651WAT      O44194   8.957   9.053   1.986
14651WAT     H144195   8.880   9.114   2.003
14651WAT     H244196   8.994   9.021   2.073
14652WAT      O44197   1.254   5.479   6.141
14652WAT     H144198   1.291   5.572   6.133
14652WAT     H244199   1.170   5.482   6.196
14653WAT      O44200   8.066   1.502   4.506
14653WAT     H144201   8.125   1.478   4.582
14653WAT     H244202   8.001   1.572   4.535
14654WAT      O44203   7.252   3.838   0.755
14654WAT     H144204   7.178   3.898   0.725
14654WAT     H244205   7.273   3.772   0.683
14655WAT      O44206   0.265   3.917   8.879
14655WAT     H144207   0.337   3.986   8.880
14655WAT     H244208   0.199   3.936   8.952
14656WAT      O44209   1.806   0.492   1.376
14656WAT     H144210   1.829   0.551   1.453
14656WAT     H244211   1.887   0.476   1.320
14657WAT      O44212   1.874   1.887   9.483
14657WAT     H144213   1.943   1.877   9.555
14657WAT     H244214   1.879   1.979   9.444
14658WAT      O44215   3.735   8.573   4.106
14658WAT     H144216   3.743   8.635   4.184
14658WAT     H244217   3.646   8.584   4.063
14659WAT      O44218   3.362   7.416   0.653
14659WAT     H144219   3.406   7.327   0.641
14659WAT     H244220   3.414   7.486   0.605
14660WAT      O44221   1.199   5.142   9.451
14660WAT     H144222   1.133   5.078   9.490
14660WAT     H244223   1.172   5.165   9.357
14661WAT      O44224   4.641   0.816   0.520
14661WAT     H144225   4.641   0.835   0.421
14661WAT     H244226   4.735   0.808   0.552
14662WAT      O44227   2.887   3.630   5.374
14662WAT     H144228   2.893   3.599   5.468
14662WAT     H244229   2.959   3.697   5.356
14663WAT      O44230   1.128   4.516   0.801
14663WAT     H144231   1.036   4.481   0.821
14663WAT     H244232   1.180   4.523   0.887
14664WAT      O44233   6.095   6.318   0.500
14664WAT     H144234   6.144   6.319   0.413
14664WAT     H244235   6.132   6.390   0.560
14665WAT      O44236   6.267   1.428   7.890
14665WAT     H144237   6.352   1.435   7.838
14665WAT     H244238   6.226   1.338   7.875
14666WAT      O44239   6.660   6.116   3.334
14666WAT     H144240   6.577   6.100   3.388
14666WAT     H244241   6.642   6.186   3.265
14667WAT      O44242   9.548   0.890   6.807
14667WAT     H144243   9.519   0.900   6.903
14667WAT     H244244   9.469   0.903   6.747
14668WAT      O44245   1.733   2.340   0.470
14668WAT     H144246   1.745   2.245   0.443
14668WAT     H244247   1.732   2.398   0.389
14669WAT      O44248   1.331   5.667   5.537
14669WAT     H144249   1.341   5.764   5.559
14669WAT     H244250   1.308   5.617   5.621
14670WAT      O44251   6.414   3.660   8.698
14670WAT     H144252   6.343   3.719   8.659
14670WAT     H244253   6.370   3.583   8.746
14671WAT      O44254   4.878   4.007   9.263
14671WAT     H144255   4.810   4.064   9.309
14671WAT     H244256   4.832   3.934   9.213
14672WAT      O44257   1.361   2.445   2.668
14672WAT     H144258   1.429   2.395   2.615
14672WAT     H244259   1.277   2.391   2.673
14673WAT      O44260   9.330   1.625   7.705
14673WAT     H144261   9.369   1.647   7.616
14673WAT     H244262   9.264   1.696   7.731
14674WAT      O44263   6.926   2.110   1.801
14674WAT     H144264   6.936   2.041   1.729
14674WAT     H244265   7.008   2.109   1.859
14675WAT      O44266   1.468   8.335   7.078
14675WAT     H144267   1.380   8.319   7.122
14675WAT     H244268   1.482   8.266   7.007
14676WAT      O44269   3.683   4.670   8.588
14676WAT     H144270   3.706   4.660   8.685
14676WAT     H244271   3.766   4.678   8.534
14677WAT      O44272   4.519   2.346   2.040
14677WAT     H144273   4.547   2.439   2.014
14677WAT     H244274   4.432   2.350   2.090
14678WAT      O44275   1.218   9.687   4.237
14678WAT     H144276   1.204   9.648   4.146
14678WAT     H244277   1.177   9.627   4.305
14679WAT      O44278   3.561   8.645   4.799
14679WAT     H144279   3.632   8.646   4.728
14679WAT     H244280   3.475   8.614   4.759
14680WAT      O44281   8.132   0.653   9.670
14680WAT     H144282   8.117   0.711   9.749
14680WAT     H244283   8.098   0.561   9.688
14681WAT      O44284   5.179   5.354   7.193
14681WAT     H144285   5.154   5.263   7.225
14681WAT     H244286   5.099   5.414   7.199
14682WAT      O44287   2.177   0.913   8.612
14682WAT     H144288   2.152   0.923   8.515
14682WAT     H244289   2.238   0.987   8.639
14683WAT      O44290   2.593   2.901   6.591
14683WAT     H144291   2.603   2.884   6.689
14683WAT     H244292   2.584   2.813   6.543
14684WAT      O44293   0.930   4.387   1.494
14684WAT     H144294   0.861   4.328   1.536
14684WAT     H244295   1.021   4.350   1.512
14685WAT      O44296   6.614   8.014   1.109
14685WAT     H144297   6.654   8.092   1.157
14685WAT     H244298   6.684   7.972   1.051
14686WAT      O44299   0.924   5.621   9.586
14686WAT     H144300   0.973   5.562   9.522
14686WAT     H244301   0.826   5.609   9.573
14687WAT      O44302   0.483   4.297   1.684
14687WAT     H144303   0.555   4.253   1.631
14687WAT     H244304   0.412   4.332   1.623
14688WAT      O44305   7.818   9.623   2.255
14688WAT     H144306   7.832   9.706   2.309
14688WAT     H244307   7.869   9.631   2.169
14689WAT      O44308   3.768   6.457   2.576
14689WAT     H144309   3.681   6.480   2.620
14689WAT     H244310   3.841   6.459   2.645
14690WAT      O44311   1.092   2.189   9.005
14690WAT     H144312   1.112   2.236   8.918
14690WAT     H244313   0.995   2.167   9.009
14691WAT      O44314   3.386   3.615   4.434
14691WAT     H144315   3.469   3.657   4.470
14691WAT     H244316   3.311   3.682   4.433
14692WAT      O44317   5.308   9.380   5.694
14692WAT     H144318   5.304   9.470   5.737
14692WAT     H244319   5.381   9.380   5.625
14693WAT      O44320   5.351   0.724   7.614
14693WAT     H144321   5.418   0.763   7.677
14693WAT     H244322   5.328   0.792   7.544
14694WAT      O44323   0.975   5.862   8.085
14694WAT     H144324   0.878   5.841   8.079
14694WAT     H244325   1.026   5.802   8.023
14695WAT      O44326   0.799   8.424   9.892
14695WAT     H144327   0.809   8.508   9.839
14695WAT     H244328   0.835   8.347   9.839
14696WAT      O44329   6.970   2.570   2.494
14696WAT     H144330   6.896   2.534   2.551
14696WAT     H244331   6.933   2.632   2.425
14697WAT      O44332   0.732   9.756   9.248
14697WAT     H144333   0.691   9.835   9.293
14697WAT     H244334   0.741   9.681   9.313
14698WAT      O44335   2.926   6.685   6.389
14698WAT     H144336   2.848   6.649   6.440
14698WAT     H244337   3.007   6.629   6.408
14699WAT      O44338   1.786   7.088   4.832
14699WAT     H144339   1.871   7.117   4.876
14699WAT     H244340   1.792   6.991   4.810
14700WAT      O44341   0.883   5.209   4.586
14700WAT     H144342   0.905   5.300   4.621
14700WAT     H244343   0.802   5.214   4.527
14701WAT      O44344   4.934   6.668   9.798
14701WAT     H144345   4.996   6.673   9.720
14701WAT     H244346   4.840   6.654   9.766
14702WAT      O44347   1.964   2.697   7.610
14702WAT     H144348   1.918   2.669   7.525
14702WAT     H244349   2.040   2.634   7.629
14703WAT      O44350   2.910   4.287   6.723
14703WAT     H144351   3.001   4.261   6.756
14703WAT     H244352   2.841   4.254   6.788
14704WAT      O44353   3.931   9.122   1.682
14704WAT     H144354   3.958   9.151   1.773
14704WAT     H244355   3.878   9.194   1.637
14705WAT      O44356   9.078   4.826   2.393
14705WAT     H144357   8.995   4.823   2.448
14705WAT     H244358   9.157   4.813   2.452
14706WAT      O44359   1.565   7.009   1.406
14706WAT     H144360   1.488   6.996   1.469
14706WAT     H244361   1.553   6.949   1.327
14707WAT      O44362   0.808   8.093   0.353
14707WAT     H144363   0.723   8.109   0.302
14707WAT     H244364   0.786   8.075   0.449
14708WAT      O44365   1.575   6.518   0.715
14708WAT     H144366   1.598   6.505   0.811
14708WAT     H244367   1.520   6.442   0.683
14709WAT      O44368   2.198   9.284   0.307
14709WAT     H144369   2.199   9.239   0.217
14709WAT     H244370   2.148   9.371   0.299
14710WAT      O44371   9.661   7.259   7.965
14710WAT     H144372   9.702   7.183   7.915
14710WAT     H244373   9.731   7.305   8.019
14711WAT      O44374   9.020   4.364   9.309
14711WAT     H144375   8.978   4.305   9.240
14711WAT     H244376   9.043   4.452   9.268
14712WAT      O44377   8.119   2.168   8.467
14712WAT     H144378   8.087   2.242   8.406
14712WAT     H244379   8.200   2.126   8.427
14713WAT      O44380   0.407   8.380   7.160
14713WAT     H144381   0.393   8.330   7.245
14713WAT     H244382   0.339   8.452   7.152
14714WAT      O44383   1.259   0.444   9.019
14714WAT     H144384   1.292   0.353   9.045
14714WAT     H244385   1.225   0.442   8.925
14715WAT      O44386   6.830   8.972   7.077
14715WAT     H144387   6.897   9.032   7.034
14715WAT     H244388   6.844   8.878   7.046
14716WAT      O44389   7.493   9.759   5.041
14716WAT     H144390   7.549   9.792   5.117
14716WAT     H244391   7.488   9.659   5.045
14717WAT      O44392   2.246   7.968   2.773
14717WAT     H144393   2.273   7.926   2.686
14717WAT     H244394   2.285   8.060   2.778
14718WAT      O44395   0.889   1.974   8.534
14718WAT     H144396   0.948   2.042   8.490
14718WAT     H244397   0.943   1.922   8.601
14719WAT      O44398   5.218   0.865   0.960
14719WAT     H144399   5.260   0.854   0.870
14719WAT     H244400   5.238   0.785   1.016
14720WAT      O44401   9.448   0.623   2.727
14720WAT     H144402   9.445   0.706   2.672
14720WAT     H244403   9.467   0.647   2.822
14721WAT      O44404   4.334   6.141   1.062
14721WAT     H144405   4.368   6.093   1.142
14721WAT     H244406   4.295   6.229   1.090
14722WAT      O44407   3.768   8.015   7.036
14722WAT     H144408   3.741   8.087   6.973
14722WAT     H244409   3.765   7.926   6.989
14723WAT      O44410   9.880   3.516   3.728
14723WAT     H144411   9.874   3.471   3.640
14723WAT     H244412   9.971   3.554   3.741
14724WAT      O44413   0.523   0.718   6.595
14724WAT     H144414   0.426   0.720   6.616
14724WAT     H244415   0.567   0.799   6.632
14725WAT      O44416   1.365   8.373   5.265
14725WAT     H144417   1.449   8.326   5.292
14725WAT     H244418   1.386   8.441   5.195
14726WAT      O44419   8.117   0.281   0.396
14726WAT     H144420   8.163   0.197   0.367
14726WAT     H244421   8.127   0.350   0.324
14727WAT      O44422   5.916   2.016   9.165
14727WAT     H144423   5.953   2.049   9.252
14727WAT     H244424   5.817   2.029   9.164
14728WAT      O44425   4.330   5.798   6.508
14728WAT     H144426   4.360   5.823   6.600
14728WAT     H244427   4.253   5.735   6.515
14729WAT      O44428   2.125   6.041   4.990
14729WAT     H144429   2.194   6.077   5.053
14729WAT     H244430   2.072   6.117   4.952
14730WAT      O44431   0.159   2.530   0.226
14730WAT     H144432   0.228   2.576   0.281
14730WAT     H244433   0.169   2.556   0.130
14731WAT      O44434   1.076   8.880   1.314
14731WAT     H144435   1.074   8.971   1.272
14731WAT     H244436   0.982   8.847   1.327
14732WAT      O44437   1.623   2.408   0.212
14732WAT     H144438   1.622   2.480   0.143
14732WAT     H244439   1.575   2.328   0.178
14733WAT      O44440   8.126   1.989   4.014
14733WAT     H144441   8.192   2.033   3.953
14733WAT     H244442   8.175   1.934   4.082
14734WAT      O44443   4.635   0.428   2.574
14734WAT     H144444   4.650   0.407   2.670
14734WAT     H244445   4.717   0.404   2.521
14735WAT      O44446   3.227   2.170   8.106
14735WAT     H144447   3.238   2.152   8.008
14735WAT     H244448   3.135   2.204   8.124
14736WAT      O44449   6.529   1.201   7.747
14736WAT     H144450   6.512   1.299   7.755
14736WAT     H244451   6.601   1.175   7.812
14737WAT      O44452   3.047   8.261   4.588
14737WAT     H144453   2.989   8.179   4.588
14737WAT     H244454   3.018   8.321   4.663
14738WAT      O44455   3.424   5.173   6.633
14738WAT     H144456   3.468   5.108   6.695
14738WAT     H244457   3.421   5.134   6.541
14739WAT      O44458   2.450   8.744   4.290
14739WAT     H144459   2.353   8.730   4.310
14739WAT     H244460   2.477   8.835   4.318
14740WAT      O44461   7.186   1.884   2.795
14740WAT     H144462   7.264   1.865   2.853
14740WAT     H244463   7.209   1.956   2.729
14741WAT      O44464   8.443   7.484   0.515
14741WAT     H144465   8.487   7.574   0.522
14741WAT     H244466   8.395   7.464   0.600
14742WAT      O44467   0.221   7.333   0.683
14742WAT     H144468   0.292   7.351   0.615
14742WAT     H244469   0.137   7.304   0.637
14743WAT      O44470   8.259   9.829   6.075
14743WAT     H144471   8.237   9.733   6.057
14743WAT     H244472   8.342   9.854   6.026
14744WAT      O44473   8.758   9.458   7.410
14744WAT     H144474   8.771   9.450   7.509
14744WAT     H244475   8.708   9.542   7.390
14745WAT      O44476   4.333   2.354   7.411
14745WAT     H144477   4.419   2.343   7.361
14745WAT     H244478   4.271   2.279   7.388
14746WAT      O44479   3.760   2.816   6.589
14746WAT     H144480   3.753   2.910   6.624
14746WAT     H244481   3.712   2.754   6.651
14747WAT      O44482   4.198   7.996   0.927
14747WAT     H144483   4.188   8.086   0.885
14747WAT     H244484   4.288   7.989   0.970
14748WAT      O44485   3.378   7.653   1.050
14748WAT     H144486   3.354   7.750   1.051
14748WAT     H244487   3.414   7.626   1.139
14749WAT      O44488   7.578   8.197   5.650
14749WAT     H144489   7.588   8.112   5.598
14749WAT     H244490   7.669   8.232   5.673
14750WAT      O44491   6.580   2.964   1.063
14750WAT     H144492   6.667   2.936   1.104
14750WAT     H244493   6.505   2.919   1.111
14751WAT      O44494   5.139   7.850   7.705
14751WAT     H144495   5.169   7.811   7.619
14751WAT     H244496   5.198   7.927   7.729
14752WAT      O44497   1.302   1.081   5.620
14752WAT     H144498   1.267   1.070   5.712
14752WAT     H244499   1.378   1.018   5.605
14753WAT      O44500   1.529   3.071   0.233
14753WAT     H144501   1.449   3.020   0.267
14753WAT     H244502   1.502   3.165   0.214
14754WAT      O44503   1.602   2.989   5.581
14754WAT     H144504   1.679   3.001   5.644
14754WAT     H244505   1.523   3.040   5.614
14755WAT      O44506   9.555   2.743   1.685
14755WAT     H144507   9.588   2.650   1.702
14755WAT     H244508   9.456   2.746   1.694
14756WAT      O44509   3.038   4.951   0.282
14756WAT     H144510   3.136   4.936   0.269
14756WAT     H244511   3.000   4.999   0.203
14757WAT      O44512   7.921   5.784   7.598
14757WAT     H144513   7.945   5.707   7.656
14757WAT     H244514   7.851   5.756   7.532
14758WAT      O44515   8.544   8.425   2.116
14758WAT     H144516   8.628   8.394   2.072
14758WAT     H244517   8.559   8.435   2.214
14759WAT      O44518   2.585   1.863   1.508
14759WAT     H144519   2.641   1.797   1.558
14759WAT     H244520   2.516   1.814   1.454
14760WAT      O44521   0.353   1.920   6.543
14760WAT     H144522   0.367   1.834   6.494
14760WAT     H244523   0.419   1.987   6.511
14761WAT      O44524   3.092   9.305   4.457
14761WAT     H144525   3.141   9.389   4.436
14761WAT     H244526   3.056   9.264   4.373
14762WAT      O44527   2.134   3.045   6.685
14762WAT     H144528   2.189   3.119   6.723
14762WAT     H244529   2.191   2.988   6.625
14763WAT      O44530   5.419   0.874   6.897
14763WAT     H144531   5.450   0.810   6.967
14763WAT     H244532   5.351   0.936   6.937
14764WAT      O44533   8.847   7.624   5.270
14764WAT     H144534   8.808   7.532   5.278
14764WAT     H244535   8.774   7.689   5.250
14765WAT      O44536   7.414   1.825   0.829
14765WAT     H144537   7.501   1.782   0.803
14765WAT     H244538   7.419   1.856   0.924
14766WAT      O44539   3.265   1.204   1.605
14766WAT     H144540   3.172   1.236   1.622
14766WAT     H244541   3.272   1.171   1.511
14767WAT      O44542   1.485   2.314   6.525
14767WAT     H144543   1.551   2.241   6.545
14767WAT     H244544   1.446   2.300   6.434
14768WAT      O44545   4.440   3.346   6.878
14768WAT     H144546   4.465   3.376   6.970
14768WAT     H244547   4.521   3.347   6.819
14769WAT      O44548   1.928   0.600   2.498
14769WAT     H144549   2.017   0.579   2.537
14769WAT     H244550   1.898   0.525   2.440
14770WAT      O44551   3.254   7.302   1.800
14770WAT     H144552   3.337   7.253   1.776
14770WAT     H244553   3.179   7.273   1.739
14771WAT      O44554   2.221   0.998   1.255
14771WAT     H144555   2.133   1.009   1.301
14771WAT     H244556   2.230   1.067   1.182
14772WAT      O44557   2.719   0.115   3.966
14772WAT     H144558   2.658   0.165   4.027
14772WAT     H244559   2.696   0.017   3.970
14773WAT      O44560   1.190   9.779   1.063
14773WAT     H144561   1.227   9.687   1.074
14773WAT     H244562   1.156   9.812   1.151
14774WAT      O44563   7.176   8.347   4.077
14774WAT     H144564   7.264   8.316   4.114
14774WAT     H244565   7.111   8.362   4.153
14775WAT      O44566   5.721   9.615   9.283
14775WAT     H144567   5.644   9.676   9.303
14775WAT     H244568   5.689   9.520   9.285
14776WAT      O44569   4.597   1.400   7.406
14776WAT     H144570   4.544   1.474   7.447
14776WAT     H244571   4.627   1.337   7.477
14777WAT      O44572   9.438   9.484   2.553
14777WAT     H144573   9.495   9.420   2.604
14777WAT     H244574   9.350   9.442   2.533
14778WAT      O44575   3.507   3.828   1.021
14778WAT     H144576   3.448   3.885   1.078
14778WAT     H244577   3.539   3.881   0.943
14779WAT      O44578   2.044   0.752   5.262
14779WAT     H144579   2.097   0.756   5.346
14779WAT     H244580   1.963   0.695   5.275
14780WAT      O44581   1.756   8.699   7.089
14780WAT     H144582   1.713   8.703   7.179
14780WAT     H244583   1.686   8.703   7.018
14781WAT      O44584   6.094   9.090   6.156
14781WAT     H144585   6.059   9.010   6.205
14781WAT     H244586   6.029   9.116   6.084
14782WAT      O44587   3.749   9.841   4.950
14782WAT     H144588   3.791   9.782   4.882
14782WAT     H244589   3.810   9.852   5.028
14783WAT      O44590   5.681   9.073   7.266
14783WAT     H144591   5.631   9.088   7.351
14783WAT     H244592   5.623   9.100   7.189
14784WAT      O44593   3.832   7.425   6.583
14784WAT     H144594   3.891   7.484   6.638
14784WAT     H244595   3.860   7.329   6.597
14785WAT      O44596   4.916   2.725   9.052
14785WAT     H144597   4.927   2.811   9.002
14785WAT     H244598   4.838   2.675   9.015
14786WAT      O44599   3.885   5.040   0.237
14786WAT     H144600   3.792   5.065   0.264
14786WAT     H244601   3.926   4.983   0.308
14787WAT      O44602   7.209   0.943   7.718
14787WAT     H144603   7.246   0.945   7.811
14787WAT     H244604   7.112   0.920   7.721
14788WAT      O44605   2.784   5.897   1.570
14788WAT     H144606   2.755   5.845   1.651
14788WAT     H244607   2.869   5.857   1.533
14789WAT      O44608   2.180   2.967   5.091
14789WAT     H144609   2.146   2.986   4.999
14789WAT     H244610   2.272   3.005   5.101
14790WAT      O44611   2.702   0.793   1.056
14790WAT     H144612   2.624   0.855   1.066
14790WAT     H244613   2.675   0.713   1.002
14791WAT      O44614   1.303   5.187   5.724
14791WAT     H144615   1.300   5.262   5.658
14791WAT     H244616   1.338   5.221   5.811
14792WAT      O44617   8.245   0.481   4.479
14792WAT     H144618   8.320   0.451   4.538
14792WAT     H244619   8.254   0.578   4.459
14793WAT      O44620   5.609   8.107   0.873
14793WAT     H144621   5.545   8.184   0.875
14793WAT     H244622   5.557   8.022   0.859
14794WAT      O44623   5.083   0.769   9.015
14794WAT     H144624   5.115   0.796   9.106
14794WAT     H244625   5.040   0.679   9.019
14795WAT      O44626   6.365   7.121   3.558
14795WAT     H144627   6.279   7.123   3.508
14795WAT     H244628   6.362   7.048   3.627
14796WAT      O44629   2.457   8.226   2.509
14796WAT     H144630   2.429   8.321   2.523
14796WAT     H244631   2.541   8.208   2.561
14797WAT      O44632   5.952   9.556   6.379
14797WAT     H144633   5.985   9.487   6.315
14797WAT     H244634   5.878   9.518   6.434
14798WAT      O44635   8.485   2.500   6.651
14798WAT     H144636   8.502   2.410   6.612
14798WAT     H244637   8.514   2.571   6.586
14799WAT      O44638   2.700   2.899   0.247
14799WAT     H144639   2.721   2.920   0.343
14799WAT     H244640   2.688   2.985   0.196
14800WAT      O44641   8.375   3.489   5.896
14800WAT     H144642   8.374   3.589   5.885
14800WAT     H244643   8.435   3.448   5.828
14801WAT      O44644   8.015   3.746   6.814
14801WAT     H144645   8.109   3.775   6.796
14801WAT     H244646   8.015   3.666   6.873
14802WAT      O44647   1.598   6.731   6.293
14802WAT     H144648   1.581   6.806   6.357
14802WAT     H244649   1.541   6.652   6.317
14803WAT      O44650   4.405   4.752   9.337
14803WAT     H144651   4.430   4.724   9.429
14803WAT     H244652   4.426   4.849   9.325
14804WAT      O44653   2.678   9.682   5.815
14804WAT     H144654   2.595   9.715   5.769
14804WAT     H244655   2.662   9.679   5.913
14805WAT      O44656   0.617   8.646   1.184
14805WAT     H144657   0.603   8.547   1.181
14805WAT     H244658   0.605   8.684   1.092
14806WAT      O44659   8.018   4.677   9.124
14806WAT     H144660   8.093   4.623   9.083
14806WAT     H244661   7.987   4.746   9.058
14807WAT      O44662   1.388   5.515   7.975
14807WAT     H144663   1.366   5.597   8.027
14807WAT     H244664   1.487   5.501   7.974
14808WAT      O44665   2.029   3.395   4.124
14808WAT     H144666   2.057   3.447   4.044
14808WAT     H244667   1.930   3.396   4.132
14809WAT      O44668   6.327   1.645   1.223
14809WAT     H144669   6.228   1.662   1.226
14809WAT     H244670   6.348   1.590   1.142
14810WAT      O44671   9.573   8.930   8.957
14810WAT     H144672   9.502   8.992   8.924
14810WAT     H244673   9.621   8.890   8.879
14811WAT      O44674   3.256   8.562   9.018
14811WAT     H144675   3.215   8.542   9.108
14811WAT     H244676   3.255   8.661   9.003
14812WAT      O44677   0.817   4.987   6.708
14812WAT     H144678   0.814   5.058   6.778
14812WAT     H244679   0.810   4.897   6.751
14813WAT      O44680   8.432   8.200   9.303
14813WAT     H144681   8.431   8.286   9.353
14813WAT     H244682   8.418   8.124   9.366
14814WAT      O44683   6.979   9.560   5.560
14814WAT     H144684   6.891   9.514   5.575
14814WAT     H244685   7.011   9.599   5.646
14815WAT      O44686   4.882   6.070   9.489
14815WAT     H144687   4.947   6.139   9.523
14815WAT     H244688   4.930   6.007   9.428
14816WAT      O44689   5.273   5.869   8.353
14816WAT     H144690   5.353   5.819   8.386
14816WAT     H244691   5.193   5.810   8.356
14817WAT      O44692   0.502   8.276   3.289
14817WAT     H144693   0.534   8.209   3.356
14817WAT     H244694   0.443   8.343   3.334
14818WAT      O44695   6.259   6.911   6.029
14818WAT     H144696   6.266   6.872   5.937
14818WAT     H244697   6.174   6.963   6.037
14819WAT      O44698   9.430   2.647   2.424
14819WAT     H144699   9.394   2.653   2.331
14819WAT     H244700   9.530   2.654   2.421
14820WAT      O44701   3.987   6.003   9.188
14820WAT     H144702   4.048   5.929   9.161
14820WAT     H244703   4.024   6.051   9.267
14821WAT      O44704   0.185   2.401   4.896
14821WAT     H144705   0.138   2.317   4.870
14821WAT     H244706   0.265   2.379   4.951
14822WAT      O44707   8.396   5.244   6.319
14822WAT     H144708   8.308   5.217   6.357
14822WAT     H244709   8.391   5.244   6.219
14823WAT      O44710   6.099   1.079   2.625
14823WAT     H144711   6.085   1.132   2.709
14823WAT     H244712   6.011   1.059   2.582
14824WAT      O44713   8.693   2.808   8.716
14824WAT     H144714   8.629   2.833   8.789
14824WAT     H244715   8.643   2.765   8.641
14825WAT      O44716   4.774   1.730   9.473
14825WAT     H144717   4.869   1.705   9.490
14825WAT     H244718   4.760   1.826   9.495
14826WAT      O44719   5.799   6.381   7.245
14826WAT     H144720   5.715   6.347   7.288
14826WAT     H244721   5.775   6.447   7.174
14827WAT      O44722   6.670   6.271   6.946
14827WAT     H144723   6.706   6.356   6.985
14827WAT     H244724   6.623   6.291   6.860
14828WAT      O44725   0.394   2.281   5.073
14828WAT     H144726   0.321   2.213   5.081
14828WAT     H244727   0.479   2.243   5.109
14829WAT      O44728   6.962   6.523   4.079
14829WAT     H144729   6.922   6.519   3.987
14829WAT     H244730   7.059   6.545   4.072
14830WAT      O44731   2.553   6.381   4.480
14830WAT     H144732   2.596   6.292   4.469
14830WAT     H244733   2.493   6.379   4.560
14831WAT      O44734   5.159   0.631   4.502
14831WAT     H144735   5.101   0.601   4.577
14831WAT     H244736   5.126   0.592   4.416
14832WAT      O44737   2.550   0.352   7.028
14832WAT     H144738   2.539   0.447   6.999
14832WAT     H244739   2.644   0.337   7.057
14833WAT      O44740   1.751   2.561   5.798
14833WAT     H144741   1.759   2.527   5.704
14833WAT     H244742   1.823   2.520   5.854
14834WAT      O44743   9.519   8.034   0.325
14834WAT     H144744   9.541   7.965   0.257
14834WAT     H244745   9.601   8.085   0.349
14835WAT      O44746   9.472   7.723   0.821
14835WAT     H144747   9.477   7.626   0.797
14835WAT     H244748   9.457   7.778   0.739
14836WAT      O44749   6.556   0.920   5.553
14836WAT     H144750   6.519   0.965   5.472
14836WAT     H244751   6.552   0.821   5.540
14837WAT      O44752   4.369   0.083   7.500
14837WAT     H144753   4.454   0.048   7.462
14837WAT     H244754   4.387   0.165   7.553
14838WAT      O44755   8.508   6.612   5.419
14838WAT     H144756   8.497   6.682   5.348
14838WAT     H244757   8.576   6.643   5.486
14839WAT      O44758   6.726   4.869   4.178
14839WAT     H144759   6.740   4.804   4.253
14839WAT     H244760   6.813   4.909   4.152
14840WAT      O44761   1.870   3.326   0.311
14840WAT     H144762   1.801   3.392   0.342
14840WAT     H244763   1.960   3.370   0.311
14841WAT      O44764   1.203   8.826   9.778
14841WAT     H144765   1.251   8.873   9.852
14841WAT     H244766   1.247   8.739   9.760
14842WAT      O44767   3.298   9.068   6.488
14842WAT     H144768   3.208   9.057   6.447
14842WAT     H244769   3.303   9.017   6.574
14843WAT      O44770   5.406   9.550   9.417
14843WAT     H144771   5.380   9.612   9.491
14843WAT     H244772   5.369   9.584   9.330
14844WAT      O44773   5.717   7.482   4.026
14844WAT     H144774   5.679   7.544   3.958
14844WAT     H244775   5.776   7.532   4.089
14845WAT      O44776   9.786   0.531   0.854
14845WAT     H144777   9.842   0.484   0.923
14845WAT     H244778   9.741   0.463   0.796
14846WAT      O44779   5.324   1.313   2.229
14846WAT     H144780   5.273   1.355   2.304
14846WAT     H244781   5.406   1.268   2.264
14847WAT      O44782   3.594   0.512   5.162
14847WAT     H144783   3.643   0.457   5.094
14847WAT     H244784   3.538   0.453   5.219
14848WAT      O44785   0.738   1.504   6.621
14848WAT     H144786   0.831   1.499   6.585
14848WAT     H244787   0.674   1.479   6.549
14849WAT      O44788   3.474   0.246   4.458
14849WAT     H144789   3.392   0.212   4.504
14849WAT     H244790   3.448   0.307   4.383
14850WAT      O44791   3.957   4.729   2.902
14850WAT     H144792   4.016   4.653   2.874
14850WAT     H244793   3.994   4.814   2.866
14851WAT      O44794   9.891   6.297   2.076
14851WAT     H144795   9.892   6.363   2.001
14851WAT     H244796   9.797   6.284   2.107
14852WAT      O44797   6.842   8.493   5.329
14852WAT     H144798   6.921   8.542   5.366
14852WAT     H244799   6.758   8.536   5.360
14853WAT      O44800   6.604   4.578   8.972
14853WAT     H144801   6.642   4.556   9.062
14853WAT     H244802   6.664   4.543   8.901
14854WAT      O44803   9.609   9.747   4.082
14854WAT     H144804   9.662   9.829   4.104
14854WAT     H244805   9.514   9.773   4.065
14855WAT      O44806   6.344   4.903   5.807
14855WAT     H144807   6.386   4.819   5.842
14855WAT     H244808   6.338   4.970   5.881
14856WAT      O44809   7.572   0.623   8.381
14856WAT     H144810   7.588   0.540   8.433
14856WAT     H244811   7.589   0.606   8.284
14857WAT      O44812   6.462   9.232   2.962
14857WAT     H144813   6.365   9.222   2.983
14857WAT     H244814   6.474   9.242   2.863
14858WAT      O44815   2.779   2.273   6.140
14858WAT     H144816   2.720   2.198   6.171
14858WAT     H244817   2.865   2.271   6.191
14859WAT      O44818   3.885   0.984   7.333
14859WAT     H144819   3.914   0.917   7.265
14859WAT     H244820   3.793   1.016   7.312
14860WAT      O44821   8.352   3.583   2.408
14860WAT     H144822   8.425   3.562   2.344
14860WAT     H244823   8.357   3.679   2.435
14861WAT      O44824   1.002   0.329   8.152
14861WAT     H144825   0.965   0.333   8.245
14861WAT     H244826   1.059   0.247   8.143
14862WAT      O44827   9.413   2.251   6.122
14862WAT     H144828   9.339   2.293   6.069
14862WAT     H244829   9.450   2.173   6.071
14863WAT      O44830   8.650   9.812   0.477
14863WAT     H144831   8.622   9.720   0.449
14863WAT     H244832   8.670   9.867   0.396
14864WAT      O44833   0.393   0.700   3.907
14864WAT     H144834   0.308   0.736   3.944
14864WAT     H244835   0.455   0.776   3.885
14865WAT      O44836   9.657   6.918   3.306
14865WAT     H144837   9.667   6.847   3.237
14865WAT     H244838   9.688   7.005   3.268
14866WAT      O44839   7.864   3.575   2.920
14866WAT     H144840   7.769   3.577   2.953
14866WAT     H244841   7.922   3.533   2.990
14867WAT      O44842   8.077   8.733   8.798
14867WAT     H144843   8.132   8.760   8.877
14867WAT     H244844   8.122   8.763   8.714
14868WAT      O44845   5.121   3.490   5.848
14868WAT     H144846   5.206   3.466   5.895
14868WAT     H244847   5.119   3.446   5.759
14869WAT      O44848   6.019   2.232   5.246
14869WAT     H144849   5.948   2.168   5.275
14869WAT     H244850   5.980   2.296   5.179
14870WAT      O44851   5.732   0.488   0.799
14870WAT     H144852   5.694   0.579   0.818
14870WAT     H244853   5.721   0.467   0.702
14871WAT      O44854   7.813   8.677   1.446
14871WAT     H144855   7.819   8.644   1.540
14871WAT     H244856   7.775   8.604   1.388
14872WAT      O44857   2.529   8.821   3.168
14872WAT     H144858   2.521   8.900   3.228
14872WAT     H244859   2.519   8.737   3.221
14873WAT      O44860   3.317   4.938   5.789
14873WAT     H144861   3.290   4.857   5.737
14873WAT     H244862   3.334   4.913   5.884
14874WAT      O44863   6.515   0.851   1.740
14874WAT     H144864   6.590   0.846   1.673
14874WAT     H244865   6.524   0.776   1.805
14875WAT      O44866   8.528   5.802   4.841
14875WAT     H144867   8.561   5.804   4.747
14875WAT     H244868   8.594   5.755   4.899
14876WAT      O44869   6.920   2.618   0.508
14876WAT     H144870   6.979   2.689   0.470
14876WAT     H244871   6.936   2.612   0.607
14877WAT      O44872   9.609   9.040   3.025
14877WAT     H144873   9.509   9.042   3.026
14877WAT     H244874   9.640   8.945   3.016
14878WAT      O44875   9.089   9.280   9.340
14878WAT     H144876   9.077   9.375   9.371
14878WAT     H244877   9.008   9.227   9.365
14879WAT      O44878   4.526   1.049   8.849
14879WAT     H144879   4.510   1.127   8.910
14879WAT     H244880   4.548   1.082   8.757
14880WAT      O44881   1.618   5.240   3.342
14880WAT     H144882   1.616   5.334   3.310
14880WAT     H244883   1.709   5.201   3.325
14881WAT      O44884   8.354   7.259   3.450
14881WAT     H144885   8.450   7.233   3.453
14881WAT     H244886   8.341   7.329   3.379
14882WAT      O44887   8.920   4.978   8.598
14882WAT     H144888   8.946   5.023   8.683
14882WAT     H244889   8.913   5.046   8.525
14883WAT      O44890   1.887   4.996   7.006
14883WAT     H144891   1.805   4.954   7.044
14883WAT     H244892   1.907   5.081   7.054
14884WAT      O44893   8.939   1.699   0.398
14884WAT     H144894   8.927   1.666   0.304
14884WAT     H244895   8.873   1.771   0.416
14885WAT      O44896   1.118   3.784   8.028
14885WAT     H144897   1.022   3.793   8.053
14885WAT     H244898   1.125   3.750   7.934
14886WAT      O44899   3.860   5.678   7.578
14886WAT     H144900   3.841   5.713   7.670
14886WAT     H244901   3.868   5.754   7.514
14887WAT      O44902   2.377   6.636   1.850
14887WAT     H144903   2.318   6.674   1.921
14887WAT     H244904   2.341   6.660   1.760
14888WAT      O44905   9.178   8.438   7.532
14888WAT     H144906   9.211   8.478   7.446
14888WAT     H244907   9.082   8.461   7.544
14889WAT      O44908   6.250   9.293   4.396
14889WAT     H144909   6.196   9.327   4.472
14889WAT     H244910   6.333   9.249   4.431
14890WAT      O44911   4.733   3.906   0.683
14890WAT     H144912   4.679   3.951   0.754
14890WAT     H244913   4.737   3.808   0.700
14891WAT      O44914   1.630   6.517   2.691
14891WAT     H144915   1.621   6.577   2.771
14891WAT     H244916   1.719   6.470   2.695
14892WAT      O44917   5.851   7.479   5.815
14892WAT     H144918   5.895   7.563   5.782
14892WAT     H244919   5.896   7.399   5.774
14893WAT      O44920   6.526   5.814   1.934
14893WAT     H144921   6.482   5.888   1.986
14893WAT     H244922   6.603   5.852   1.883
14894WAT      O44923   6.704   1.778   0.719
14894WAT     H144924   6.754   1.713   0.778
14894WAT     H244925   6.763   1.856   0.699
14895WAT      O44926   4.669   3.338   3.481
14895WAT     H144927   4.627   3.429   3.475
14895WAT     H244928   4.766   3.344   3.457
14896WAT      O44929   1.789   1.723   0.783
14896WAT     H144930   1.813   1.762   0.694
14896WAT     H244931   1.690   1.713   0.790
14897WAT      O44932   2.820   1.629   0.784
14897WAT     H144933   2.730   1.596   0.757
14897WAT     H244934   2.834   1.612   0.882
14898WAT      O44935   0.821   5.967   3.965
14898WAT     H144936   0.817   5.906   3.886
14898WAT     H244937   0.913   6.005   3.974
14899WAT      O44938   3.707   3.429   9.286
14899WAT     H144939   3.632   3.425   9.220
14899WAT     H244940   3.793   3.450   9.240
14900WAT      O44941   3.101   4.379   9.128
14900WAT     H144942   3.121   4.340   9.218
14900WAT     H244943   3.049   4.313   9.073
14901WAT      O44944   3.046   8.136   1.258
14901WAT     H144945   3.049   8.189   1.342
14901WAT     H244946   2.986   8.181   1.192
14902WAT      O44947   2.249   2.970   0.652
14902WAT     H144948   2.151   2.983   0.640
14902WAT     H244949   2.281   3.024   0.731
14903WAT      O44950   0.272   7.972   8.168
14903WAT     H144951   0.243   8.068   8.162
14903WAT     H244952   0.228   7.919   8.096
14904WAT      O44953   9.198   7.848   6.422
14904WAT     H144954   9.165   7.908   6.349
14904WAT     H244955   9.278   7.797   6.389
14905WAT      O44956   0.080   7.803   7.464
14905WAT     H144957  -0.011   7.802   7.421
14905WAT     H244958   0.102   7.712   7.497
14906WAT      O44959   6.840   8.083   8.257
14906WAT     H144960   6.900   8.018   8.212
14906WAT     H244961   6.781   8.035   8.321
14907WAT      O44962   7.483   8.645   3.108
14907WAT     H144963   7.454   8.725   3.055
14907WAT     H244964   7.578   8.623   3.088
14908WAT      O44965   2.296   1.499   6.136
14908WAT     H144966   2.343   1.464   6.055
14908WAT     H244967   2.212   1.447   6.151
14909WAT      O44968   4.415   0.309   7.629
14909WAT     H144969   4.414   0.354   7.719
14909WAT     H244970   4.399   0.377   7.558
14910WAT      O44971   0.856   2.491   3.790
14910WAT     H144972   0.888   2.420   3.728
14910WAT     H244973   0.910   2.574   3.777
14911WAT      O44974   8.154   8.419   8.214
14911WAT     H144975   8.064   8.461   8.206
14911WAT     H244976   8.198   8.417   8.125
14912WAT      O44977   4.837   0.881   7.270
14912WAT     H144978   4.756   0.895   7.327
14912WAT     H244979   4.859   0.965   7.222
14913WAT      O44980   9.336   5.366   6.113
14913WAT     H144981   9.434   5.350   6.121
14913WAT     H244982   9.298   5.312   6.038
14914WAT      O44983   3.181   6.844   7.544
14914WAT     H144984   3.096   6.874   7.588
14914WAT     H244985   3.182   6.877   7.449
14915WAT      O44986   7.504   7.287   6.182
14915WAT     H144987   7.509   7.241   6.093
14915WAT     H244988   7.542   7.379   6.174
14916WAT      O44989   4.611   4.233   1.645
14916WAT     H144990   4.702   4.235   1.604
14916WAT     H244991   4.558   4.158   1.606
14917WAT      O44992   8.032   2.086   1.683
14917WAT     H144993   8.058   2.153   1.753
14917WAT     H244994   8.103   2.082   1.613
14918WAT      O44995   1.038   8.829   2.215
14918WAT     H144996   1.007   8.739   2.183
14918WAT     H244997   1.041   8.828   2.315
14919WAT      O44998   7.837   7.999   3.899
14919WAT     H144999   7.860   8.081   3.951
14919WAT     H245000   7.828   7.921   3.960
14920WAT      O45001   0.170   3.835   7.031
14920WAT     H145002   0.111   3.834   7.111
14920WAT     H245003   0.117   3.810   6.950
14921WAT      O45004   4.394   1.155   5.885
14921WAT     H145005   4.367   1.161   5.789
14921WAT     H245006   4.391   1.247   5.926
14922WAT      O45007   6.022   6.583   9.590
14922WAT     H145008   6.062   6.492   9.589
14922WAT     H245009   5.932   6.580   9.546
14923WAT      O45010   0.431   0.606   5.213
14923WAT     H145011   0.510   0.545   5.210
14923WAT     H245012   0.394   0.607   5.306
14924WAT      O45013   0.006   2.420   1.995
14924WAT     H145014   0.026   2.329   1.961
14924WAT     H245015  -0.010   2.483   1.919
14925WAT      O45016   1.820   7.169   7.883
14925WAT     H145017   1.831   7.074   7.854
14925WAT     H245018   1.764   7.172   7.966
14926WAT      O45019   1.078   4.044   8.116
14926WAT     H145020   1.001   4.049   8.179
14926WAT     H245021   1.144   3.977   8.150
14927WAT      O45022   3.288   5.838   1.209
14927WAT     H145023   3.379   5.864   1.177
14927WAT     H245024   3.233   5.921   1.221
14928WAT      O45025   6.573   0.697   8.659
14928WAT     H145026   6.514   0.713   8.580
14928WAT     H245027   6.533   0.625   8.717
14929WAT      O45028   9.814   3.652   7.569
14929WAT     H145029   9.808   3.576   7.504
14929WAT     H245030   9.755   3.726   7.539
14930WAT      O45031   0.043   9.375   9.610
14930WAT     H145032   0.106   9.361   9.686
14930WAT     H245033   0.069   9.317   9.533
14931WAT      O45034   9.335   6.585   0.033
14931WAT     H145035   9.308   6.577   0.129
14931WAT     H245036   9.254   6.601  -0.023
14932WAT      O45037   8.185   0.376   0.626
14932WAT     H145038   8.210   0.471   0.607
14932WAT     H245039   8.160   0.330   0.541
14933WAT      O45040   9.052   8.287   6.467
14933WAT     H145041   9.085   8.344   6.392
14933WAT     H245042   9.076   8.191   6.449
14934WAT      O45043   2.363   2.203   7.191
14934WAT     H145044   2.364   2.292   7.238
14934WAT     H245045   2.349   2.218   7.093
14935WAT      O45046   7.769   4.583   3.436
14935WAT     H145047   7.788   4.563   3.340
14935WAT     H245048   7.788   4.503   3.492
14936WAT      O45049   6.891   1.926   7.448
14936WAT     H145050   6.893   1.972   7.537
14936WAT     H245051   6.797   1.923   7.415
14937WAT      O45052   7.604   8.709   7.223
14937WAT     H145053   7.664   8.650   7.169
14937WAT     H245054   7.660   8.770   7.280
14938WAT      O45055   5.625   6.358   9.583
14938WAT     H145056   5.572   6.345   9.499
14938WAT     H245057   5.594   6.441   9.630
14939WAT      O45058   8.583   0.630   5.661
14939WAT     H145059   8.624   0.689   5.591
14939WAT     H245060   8.529   0.558   5.616
14940WAT      O45061   1.670   6.445   2.144
14940WAT     H145062   1.625   6.534   2.144
14940WAT     H245063   1.739   6.443   2.217
14941WAT      O45064   5.500   2.641   8.504
14941WAT     H145065   5.480   2.720   8.445
14941WAT     H245066   5.423   2.624   8.565
14942WAT      O45067   1.129   5.103   0.571
14942WAT     H145068   1.171   5.167   0.506
14942WAT     H245069   1.049   5.061   0.528
14943WAT      O45070   0.726   1.522   7.829
14943WAT     H145071   0.812   1.526   7.880
14943WAT     H245072   0.741   1.559   7.736
14944WAT      O45073   5.698   3.611   0.317
14944WAT     H145074   5.775   3.666   0.286
14944WAT     H245075   5.681   3.537   0.252
14945WAT      O45076   2.096   0.855   3.274
14945WAT     H145077   2.098   0.866   3.175
14945WAT     H245078   2.092   0.758   3.297
14946WAT      O45079   8.256   7.882   6.867
14946WAT     H145080   8.221   7.809   6.807
14946WAT     H245081   8.351   7.901   6.844
14947WAT      O45082   1.948   8.729   7.897
14947WAT     H145083   1.970   8.749   7.993
14947WAT     H245084   2.031   8.738   7.842
14948WAT      O45085   1.398   3.596   7.931
14948WAT     H145086   1.370   3.675   7.876
14948WAT     H245087   1.320   3.562   7.983
14949WAT      O45088   1.640   4.014   3.511
14949WAT     H145089   1.583   3.979   3.585
14949WAT     H245090   1.734   3.981   3.523
14950WAT      O45091   8.884   4.863   7.012
14950WAT     H145092   8.877   4.860   6.912
14950WAT     H245093   8.821   4.932   7.048
14951WAT      O45094   7.043   1.243   1.529
14951WAT     H145095   6.968   1.210   1.472
14951WAT     H245096   7.129   1.236   1.477
14952WAT      O45097   6.149   2.385   7.583
14952WAT     H145098   6.187   2.377   7.675
14952WAT     H245099   6.092   2.306   7.563
14953WAT      O45100   4.626   0.521   9.799
14953WAT     H145101   4.536   0.562   9.815
14953WAT     H245102   4.621   0.457   9.723
14954WAT      O45103   2.609   9.543   5.102
14954WAT     H145104   2.598   9.616   5.034
14954WAT     H245105   2.690   9.489   5.079
14955WAT      O45106   8.480   7.076   0.361
14955WAT     H145107   8.410   7.018   0.401
14955WAT     H245108   8.496   7.049   0.266
14956WAT      O45109   1.790   4.347   2.437
14956WAT     H145110   1.762   4.253   2.455
14956WAT     H245111   1.858   4.376   2.504
14957WAT      O45112   6.833   7.213   8.622
14957WAT     H145113   6.830   7.212   8.522
14957WAT     H245114   6.917   7.169   8.654
14958WAT      O45115   0.485   8.534   8.341
14958WAT     H145116   0.473   8.446   8.295
14958WAT     H245117   0.398   8.583   8.342
14959WAT      O45118   8.681   8.601   2.638
14959WAT     H145119   8.636   8.591   2.727
14959WAT     H245120   8.774   8.566   2.644
14960WAT      O45121   0.355   9.423   2.265
14960WAT     H145122   0.416   9.448   2.190
14960WAT     H245123   0.368   9.327   2.289
14961WAT      O45124   1.162   2.641   9.020
14961WAT     H145125   1.150   2.718   8.958
14961WAT     H245126   1.073   2.605   9.047
14962WAT      O45127   0.776   6.919   4.660
14962WAT     H145128   0.862   6.926   4.609
14962WAT     H245129   0.706   6.876   4.602
14963WAT      O45130   8.476   1.912   7.937
14963WAT     H145131   8.441   1.996   7.979
14963WAT     H245132   8.560   1.884   7.984
14964WAT      O45133   1.881   6.683   1.278
14964WAT     H145134   1.960   6.703   1.337
14964WAT     H245135   1.810   6.637   1.332
14965WAT      O45136   3.205   9.352   8.555
14965WAT     H145137   3.228   9.418   8.626
14965WAT     H245138   3.247   9.380   8.469
14966WAT      O45139   4.969   1.983   6.358
14966WAT     H145140   4.975   1.928   6.274
14966WAT     H245141   4.880   1.966   6.401
14967WAT      O45142   9.300   7.692   6.077
14967WAT     H145143   9.242   7.771   6.061
14967WAT     H245144   9.395   7.721   6.084
14968WAT      O45145   0.786   5.184   0.927
14968WAT     H145146   0.839   5.101   0.943
14968WAT     H245147   0.831   5.261   0.973
14969WAT      O45148   0.765   6.681   5.524
14969WAT     H145149   0.773   6.581   5.521
14969WAT     H245150   0.683   6.706   5.575
14970WAT      O45151   4.650   9.299   6.568
14970WAT     H145152   4.625   9.208   6.535
14970WAT     H245153   4.746   9.317   6.547
14971WAT      O45154   9.236   0.393   0.702
14971WAT     H145155   9.321   0.417   0.748
14971WAT     H245156   9.254   0.375   0.605
14972WAT      O45157   4.882   2.495   6.465
14972WAT     H145158   4.835   2.582   6.481
14972WAT     H245159   4.908   2.489   6.369
14973WAT      O45160   8.403   9.237   9.747
14973WAT     H145161   8.449   9.324   9.730
14973WAT     H245162   8.449   9.189   9.821
14974WAT      O45163   1.444   4.942   0.448
14974WAT     H145164   1.413   4.935   0.543
14974WAT     H245165   1.478   5.034   0.430
14975WAT      O45166   7.095   6.340   3.242
14975WAT     H145167   7.129   6.328   3.149
14975WAT     H245168   7.111   6.256   3.295
14976WAT      O45169   9.262   6.544   7.153
14976WAT     H145170   9.224   6.560   7.245
14976WAT     H245171   9.221   6.461   7.115
14977WAT      O45172   0.985   9.803   2.797
14977WAT     H145173   0.970   9.790   2.698
14977WAT     H245174   1.072   9.849   2.811
14978WAT      O45175   1.826   4.348   5.776
14978WAT     H145176   1.761   4.383   5.709
14978WAT     H245177   1.799   4.378   5.867
14979WAT      O45178   4.639   3.640   6.475
14979WAT     H145179   4.576   3.601   6.543
14979WAT     H245180   4.728   3.594   6.482
14980WAT      O45181   0.772   6.519   9.174
14980WAT     H145182   0.869   6.504   9.194
14980WAT     H245183   0.761   6.543   9.078
14981WAT      O45184   3.696   9.647   6.292
14981WAT     H145185   3.659   9.636   6.384
14981WAT     H245186   3.625   9.683   6.232
14982WAT      O45187   2.608   9.191   0.667
14982WAT     H145188   2.582   9.172   0.572
14982WAT     H245189   2.631   9.106   0.713
14983WAT      O45190   5.986   6.505   6.907
14983WAT     H145191   6.070   6.465   6.871
14983WAT     H245192   5.920   6.431   6.924
14984WAT      O45193   8.210   9.645   6.403
14984WAT     H145194   8.219   9.557   6.450
14984WAT     H245195   8.140   9.637   6.331
14985WAT      O45196   9.854   2.052   2.600
14985WAT     H145197   9.954   2.053   2.592
14985WAT     H245198   9.828   2.056   2.696
14986WAT      O45199   5.866   0.500   0.096
14986WAT     H145200   5.777   0.469   0.064
14986WAT     H245201   5.892   0.583   0.047
14987WAT      O45202   1.784   4.485   8.201
14987WAT     H145203   1.728   4.406   8.177
14987WAT     H245204   1.847   4.506   8.126
14988WAT      O45205   7.104   1.941   7.029
14988WAT     H145206   7.190   1.891   7.043
14988WAT     H245207   7.027   1.882   7.052
14989WAT      O45208   9.171   4.258   0.741
14989WAT     H145209   9.116   4.215   0.669
14989WAT     H245210   9.247   4.197   0.765
14990WAT      O45211   0.742   1.363   4.689
14990WAT     H145212   0.817   1.302   4.665
14990WAT     H245213   0.747   1.385   4.786
14991WAT      O45214   4.209   8.242   2.382
14991WAT     H145215   4.153   8.230   2.464
14991WAT     H245216   4.167   8.310   2.322
14992WAT      O45217   4.740   4.049   8.237
14992WAT     H145218   4.685   4.075   8.316
14992WAT     H245219   4.692   3.980   8.183
14993WAT      O45220   5.979   8.085   6.436
14993WAT     H145221   6.061   8.041   6.474
14993WAT     H245222   5.961   8.170   6.486
14994WAT      O45223   6.495   4.387   5.088
14994WAT     H145224   6.449   4.309   5.045
14994WAT     H245225   6.490   4.466   5.028
14995WAT      O45226   1.854   8.608   0.857
14995WAT     H145227   1.917   8.648   0.790
14995WAT     H245228   1.816   8.523   0.821
14996WAT      O45229   3.015   8.803   7.500
14996WAT     H145230   3.074   8.882   7.516
14996WAT     H245231   3.046   8.727   7.557
14997WAT      O45232   6.762   0.466   3.441
14997WAT     H145233   6.791   0.472   3.536
14997WAT     H245234   6.747   0.370   3.416
14998WAT      O45235   7.416   3.566   4.502
14998WAT     H145236   7.319   3.543   4.508
14998WAT     H245237   7.445   3.609   4.588
14999WAT      O45238   1.382   4.218   1.011
14999WAT     H145239   1.405   4.180   0.921
14999WAT     H245240   1.286   4.200   1.030
15000WAT      O45241   3.661   8.473   5.553
15000WAT     H145242   3.642   8.542   5.624
15000WAT     H245243   3.738   8.503   5.497
15001WAT      O45244   1.233   7.480   1.635
15001WAT     H145245   1.193   7.543   1.702
15001WAT     H245246   1.234   7.523   1.545
15002WAT      O45247   7.075   7.641   4.327
15002WAT     H145248   7.005   7.616   4.393
15002WAT     H245249   7.156   7.584   4.341
15003WAT      O45250   7.875   5.765   1.290
15003WAT     H145251   7.880   5.681   1.343
15003WAT     H245252   7.967   5.797   1.269
15004WAT      O45253   0.641   1.646   4.223
15004WAT     H145254   0.552   1.656   4.179
15004WAT     H245255   0.652   1.552   4.256
15005WAT      O45256   1.834   6.319   3.823
15005WAT     H145257   1.801   6.391   3.885
15005WAT     H245258   1.775   6.316   3.742
15006WAT      O45259   7.275   1.330   9.892
15006WAT     H145260   7.340   1.298   9.823
15006WAT     H245261   7.275   1.430   9.894
15007WAT      O45262   5.662   8.157   9.451
15007WAT     H145263   5.681   8.193   9.359
15007WAT     H245264   5.572   8.189   9.481
15008WAT      O45265   6.281   9.519   9.311
15008WAT     H145266   6.348   9.467   9.363
15008WAT     H245267   6.217   9.456   9.266
15009WAT      O45268   8.499   0.604   3.605
15009WAT     H145269   8.524   0.515   3.644
15009WAT     H245270   8.485   0.670   3.679
15010WAT      O45271   8.534   3.197   1.333
15010WAT     H145272   8.484   3.270   1.286
15010WAT     H245273   8.597   3.236   1.400
15011WAT      O45274   8.790   1.318   3.848
15011WAT     H145275   8.732   1.341   3.926
15011WAT     H245276   8.776   1.222   3.823
15012WAT      O45277   0.216   4.234   6.046
15012WAT     H145278   0.281   4.300   6.010
15012WAT     H245279   0.241   4.209   6.140
15013WAT      O45280   0.994   4.611   7.645
15013WAT     H145281   0.933   4.663   7.585
15013WAT     H245282   0.967   4.626   7.740
15014WAT      O45283   8.532   4.845   8.725
15014WAT     H145284   8.552   4.933   8.768
15014WAT     H245285   8.549   4.771   8.790
15015WAT      O45286   9.093   0.977   8.935
15015WAT     H145287   9.147   1.055   8.966
15015WAT     H245288   9.130   0.943   8.849
15016WAT      O45289   5.694   8.784   8.077
15016WAT     H145290   5.648   8.791   7.988
15016WAT     H245291   5.753   8.703   8.077
15017WAT      O45292   1.726   3.886   4.404
15017WAT     H145293   1.739   3.863   4.307
15017WAT     H245294   1.803   3.851   4.457
15018WAT      O45295   8.648   6.224   6.992
15018WAT     H145296   8.608   6.315   7.003
15018WAT     H245297   8.664   6.184   7.082
15019WAT      O45298   4.072   4.130   7.696
15019WAT     H145299   4.121   4.163   7.777
15019WAT     H245300   4.116   4.165   7.613
15020WAT      O45301   3.397   6.850   2.712
15020WAT     H145302   3.315   6.807   2.748
15020WAT     H245303   3.475   6.830   2.772
15021WAT      O45304   6.300   6.602   7.039
15021WAT     H145305   6.302   6.661   7.120
15021WAT     H245306   6.371   6.632   6.974
15022WAT      O45307   4.425   8.168   0.276
15022WAT     H145308   4.444   8.257   0.233
15022WAT     H245309   4.328   8.146   0.264
15023WAT      O45310   6.586   4.988   2.899
15023WAT     H145311   6.542   4.917   2.844
15023WAT     H245312   6.573   4.968   2.996
15024WAT      O45313   3.209   3.194   3.983
15024WAT     H145314   3.239   3.276   3.936
15024WAT     H245315   3.140   3.147   3.928
15025WAT      O45316   0.592   0.968   2.105
15025WAT     H145317   0.609   0.994   2.010
15025WAT     H245318   0.533   1.036   2.149
15026WAT      O45319   3.077   1.561   6.352
15026WAT     H145320   3.167   1.519   6.361
15026WAT     H245321   3.082   1.657   6.380
15027WAT      O45322   6.012   8.978   2.618
15027WAT     H145323   6.041   8.884   2.634
15027WAT     H245324   6.024   9.001   2.522
15028WAT      O45325   2.558   4.025   9.843
15028WAT     H145326   2.503   4.105   9.817
15028WAT     H245327   2.498   3.946   9.852
15029WAT      O45328   6.295   0.082   1.147
15029WAT     H145329   6.340   0.084   1.236
15029WAT     H245330   6.241  -0.002   1.139
15030WAT      O45331   2.753   8.697   8.761
15030WAT     H145332   2.831   8.754   8.736
15030WAT     H245333   2.680   8.754   8.799
15031WAT      O45334   2.784   6.408   6.426
15031WAT     H145335   2.813   6.380   6.518
15031WAT     H245336   2.702   6.357   6.400
15032WAT      O45337   0.944   3.403   1.832
15032WAT     H145338   0.999   3.438   1.907
15032WAT     H245339   1.003   3.356   1.766
15033WAT      O45340   2.312   3.878   3.269
15033WAT     H145341   2.260   3.920   3.343
15033WAT     H245342   2.407   3.909   3.274
15034WAT      O45343   1.221   5.175   6.532
15034WAT     H145344   1.199   5.107   6.602
15034WAT     H245345   1.254   5.129   6.450
15035WAT      O45346   7.161   6.866   7.099
15035WAT     H145347   7.224   6.929   7.144
15035WAT     H245348   7.075   6.862   7.150
15036WAT      O45349   3.090   5.844   8.009
15036WAT     H145350   3.087   5.751   7.973
15036WAT     H245351   3.001   5.868   8.047
15037WAT      O45352   4.060   3.603   1.818
15037WAT     H145353   4.131   3.532   1.825
15037WAT     H245354   4.046   3.626   1.722
15038WAT      O45355   9.396   7.317   0.201
15038WAT     H145356   9.423   7.265   0.282
15038WAT     H245357   9.307   7.361   0.218
15039WAT      O45358   2.861   1.728   4.846
15039WAT     H145359   2.823   1.637   4.828
15039WAT     H245360   2.920   1.755   4.771
15040WAT      O45361   0.193   2.836   5.902
15040WAT     H145362   0.244   2.844   5.987
15040WAT     H245363   0.134   2.755   5.905
15041WAT      O45364   9.702   4.204   7.782
15041WAT     H145365   9.750   4.145   7.847
15041WAT     H245366   9.727   4.299   7.797
15042WAT      O45367   1.159   2.273   4.496
15042WAT     H145368   1.096   2.217   4.443
15042WAT     H245369   1.141   2.370   4.477
15043WAT      O45370   4.135   9.709   7.032
15043WAT     H145371   4.165   9.774   6.962
15043WAT     H245372   4.037   9.719   7.048
15044WAT      O45373   0.001   9.265   4.218
15044WAT     H145374   0.046   9.191   4.267
15044WAT     H245375   0.020   9.352   4.263
15045WAT      O45376   7.605   4.406   9.093
15045WAT     H145377   7.577   4.310   9.093
15045WAT     H245378   7.703   4.412   9.073
15046WAT      O45379   3.110   3.962   0.595
15046WAT     H145380   3.065   3.912   0.520
15046WAT     H245381   3.062   3.944   0.681
15047WAT      O45382   2.643   4.339   9.501
15047WAT     H145383   2.658   4.438   9.491
15047WAT     H245384   2.707   4.289   9.443
15048WAT      O45385   7.318   1.356   0.806
15048WAT     H145386   7.247   1.337   0.738
15048WAT     H245387   7.292   1.437   0.860
15049WAT      O45388   4.036   9.023   8.888
15049WAT     H145389   4.076   8.936   8.861
15049WAT     H245390   4.093   9.067   8.957
15050WAT      O45391   1.054   3.659   5.274
15050WAT     H145392   1.105   3.645   5.359
15050WAT     H245393   1.051   3.574   5.221
15051WAT      O45394   7.040   0.887   2.056
15051WAT     H145395   7.050   0.983   2.029
15051WAT     H245396   6.947   0.856   2.036
15052WAT      O45397   6.295   8.468   3.062
15052WAT     H145398   6.286   8.441   3.158
15052WAT     H245399   6.290   8.567   3.055
15053WAT      O45400   5.562   8.489   8.302
15053WAT     H145401   5.549   8.588   8.314
15053WAT     H245402   5.644   8.473   8.248
15054WAT      O45403   7.435   8.417   4.448
15054WAT     H145404   7.402   8.335   4.400
15054WAT     H245405   7.389   8.498   4.411
15055WAT      O45406   8.746   7.104   7.604
15055WAT     H145407   8.694   7.023   7.633
15055WAT     H245408   8.699   7.148   7.528
15056WAT      O45409   7.027   2.158   6.880
15056WAT     H145410   6.958   2.213   6.927
15056WAT     H245411   7.040   2.072   6.931
15057WAT      O45412   9.109   9.108   4.748
15057WAT     H145413   9.096   9.053   4.665
15057WAT     H245414   9.080   9.202   4.730
15058WAT      O45415   8.295   5.147   4.240
15058WAT     H145416   8.211   5.172   4.191
15058WAT     H245417   8.358   5.103   4.176
15059WAT      O45418   0.876   0.808   4.741
15059WAT     H145419   0.961   0.764   4.771
15059WAT     H245420   0.858   0.784   4.646
15060WAT      O45421   8.858   8.594   5.233
15060WAT     H145422   8.882   8.661   5.304
15060WAT     H245423   8.931   8.589   5.166
15061WAT      O45424   0.102   8.640   0.639
15061WAT     H145425   0.113   8.690   0.553
15061WAT     H245426   0.019   8.584   0.635
15062WAT      O45427   1.462   1.466   0.254
15062WAT     H145428   1.534   1.415   0.208
15062WAT     H245429   1.499   1.551   0.291
15063WAT      O45430   9.373   8.487   5.890
15063WAT     H145431   9.324   8.565   5.930
15063WAT     H245432   9.464   8.481   5.930
15064WAT      O45433   4.342   5.175   1.895
15064WAT     H145434   4.300   5.147   1.809
15064WAT     H245435   4.403   5.102   1.928
15065WAT      O45436   3.558   1.113   9.845
15065WAT     H145437   3.603   1.094   9.932
15065WAT     H245438   3.554   1.212   9.830
15066WAT      O45439   2.550   9.317   5.946
15066WAT     H145440   2.456   9.284   5.961
15066WAT     H245441   2.561   9.406   5.990
15067WAT      O45442   9.459   3.638   7.167
15067WAT     H145443   9.398   3.594   7.233
15067WAT     H245444   9.553   3.611   7.184
15068WAT      O45445   0.052   0.923   1.172
15068WAT     H145446   0.151   0.925   1.183
15068WAT     H245447   0.027   0.963   1.084
15069WAT      O45448   1.711   5.287   9.710
15069WAT     H145449   1.794   5.317   9.664
15069WAT     H245450   1.650   5.365   9.723
15070WAT      O45451   0.670   6.750   9.533
15070WAT     H145452   0.669   6.835   9.587
15070WAT     H245453   0.634   6.675   9.589
15071WAT      O45454   6.011   9.468   1.740
15071WAT     H145455   6.017   9.540   1.671
15071WAT     H245456   6.014   9.508   1.832
15072WAT      O45457   0.078   6.972   3.386
15072WAT     H145458   0.003   6.981   3.320
15072WAT     H245459   0.109   6.877   3.388
15073WAT      O45460   3.648   5.028   6.355
15073WAT     H145461   3.617   4.935   6.334
15073WAT     H245462   3.578   5.093   6.324
15074WAT      O45463   7.176   2.348   6.766
15074WAT     H145464   7.126   2.279   6.818
15074WAT     H245465   7.111   2.406   6.718
15075WAT      O45466   1.053   4.186   7.570
15075WAT     H145467   0.975   4.153   7.623
15075WAT     H245468   1.050   4.147   7.478
15076WAT      O45469   6.215   7.642   3.587
15076WAT     H145470   6.183   7.619   3.679
15076WAT     H245471   6.137   7.640   3.524
15077WAT      O45472   8.705   2.385   5.495
15077WAT     H145473   8.631   2.360   5.558
15077WAT     H245474   8.710   2.485   5.488
15078WAT      O45475   7.347   5.829   8.081
15078WAT     H145476   7.353   5.830   8.181
15078WAT     H245477   7.260   5.790   8.053
15079WAT      O45478   4.868   4.842   2.174
15079WAT     H145479   4.967   4.853   2.179
15079WAT     H245480   4.829   4.917   2.119
15080WAT      O45481   9.000   6.940   1.264
15080WAT     H145482   8.936   6.925   1.188
15080WAT     H245483   9.031   7.035   1.263
15081WAT      O45484   0.308   2.446   1.907
15081WAT     H145485   0.215   2.471   1.934
15081WAT     H245486   0.305   2.368   1.846
15082WAT      O45487   9.002   7.705   4.151
15082WAT     H145488   9.047   7.620   4.178
15082WAT     H245489   9.045   7.782   4.200
15083WAT      O45490   5.226   0.597   6.297
15083WAT     H145491   5.301   0.660   6.275
15083WAT     H245492   5.140   0.634   6.262
15084WAT      O45493   8.661   6.240   4.058
15084WAT     H145494   8.741   6.212   4.005
15084WAT     H245495   8.672   6.212   4.153
15085WAT      O45496   9.101   4.462   6.809
15085WAT     H145497   9.129   4.407   6.888
15085WAT     H245498   9.157   4.545   6.805
15086WAT      O45499   1.538   0.460   0.206
15086WAT     H145500   1.488   0.441   0.291
15086WAT     H245501   1.477   0.445   0.128
15087WAT      O45502   0.361   6.683   3.914
15087WAT     H145503   0.406   6.707   3.828
15087WAT     H245504   0.343   6.585   3.916
15088WAT      O45505   6.557   6.493   2.010
15088WAT     H145506   6.550   6.430   2.087
15088WAT     H245507   6.640   6.474   1.958
15089WAT      O45508   2.268   6.077   3.207
15089WAT     H145509   2.238   6.059   3.300
15089WAT     H245510   2.328   6.157   3.207
15090WAT      O45511   1.471   4.962   0.939
15090WAT     H145512   1.425   5.004   1.017
15090WAT     H245513   1.517   4.878   0.969
15091WAT      O45514   8.691   3.851   4.133
15091WAT     H145515   8.693   3.752   4.130
15091WAT     H245516   8.693   3.888   4.040
15092WAT      O45517   6.330   2.751   2.518
15092WAT     H145518   6.368   2.799   2.438
15092WAT     H245519   6.234   2.777   2.529
15093WAT      O45520   3.941   2.414   7.248
15093WAT     H145521   3.906   2.500   7.286
15093WAT     H245522   4.008   2.375   7.310
15094WAT      O45523   3.845   2.375   8.411
15094WAT     H145524   3.915   2.370   8.483
15094WAT     H245525   3.779   2.447   8.433
15095WAT      O45526   3.812   7.387   6.279
15095WAT     H145527   3.821   7.411   6.376
15095WAT     H245528   3.853   7.459   6.223
15096WAT      O45529   3.229   9.666   2.929
15096WAT     H145530   3.234   9.765   2.915
15096WAT     H245531   3.312   9.623   2.894
15097WAT      O45532   2.673   5.788   8.110
15097WAT     H145533   2.614   5.865   8.136
15097WAT     H245534   2.679   5.723   8.185
15098WAT      O45535   8.310   5.660   3.757
15098WAT     H145536   8.317   5.569   3.800
15098WAT     H245537   8.351   5.656   3.666
15099WAT      O45538   7.840   2.591   0.561
15099WAT     H145539   7.764   2.603   0.497
15099WAT     H245540   7.809   2.539   0.640
15100WAT      O45541   3.986   3.973   6.107
15100WAT     H145542   3.964   4.071   6.104
15100WAT     H245543   3.914   3.925   6.158
15101WAT      O45544   8.605   7.040   6.049
15101WAT     H145545   8.571   7.117   5.996
15101WAT     H245546   8.589   7.057   6.146
15102WAT      O45547   3.363   9.176   8.173
15102WAT     H145548   3.460   9.151   8.185
15102WAT     H245549   3.320   9.111   8.109
15103WAT      O45550   1.309   3.912   8.226
15103WAT     H145551   1.362   3.856   8.289
15103WAT     H245552   1.249   3.853   8.171
15104WAT      O45553   0.484   9.802   1.136
15104WAT     H145554   0.489   9.764   1.043
15104WAT     H245555   0.451   9.732   1.199
15105WAT      O45556   2.042   2.042   4.349
15105WAT     H145557   2.128   1.992   4.359
15105WAT     H245558   2.020   2.052   4.252
15106WAT      O45559   6.096   1.445   1.613
15106WAT     H145560   6.170   1.468   1.550
15106WAT     H245561   6.015   1.499   1.592
15107WAT      O45562   1.596   1.214   9.789
15107WAT     H145563   1.502   1.194   9.818
15107WAT     H245564   1.596   1.294   9.729
15108WAT      O45565   9.272   8.777   7.485
15108WAT     H145566   9.329   8.696   7.497
15108WAT     H245567   9.179   8.750   7.458
15109WAT      O45568   7.317   9.301   7.981
15109WAT     H145569   7.409   9.284   7.944
15109WAT     H245570   7.261   9.219   7.969
15110WAT      O45571   9.005   5.755   4.360
15110WAT     H145572   9.090   5.767   4.309
15110WAT     H245573   8.953   5.840   4.359
15111WAT      O45574   1.420   7.137   5.210
15111WAT     H145575   1.483   7.063   5.234
15111WAT     H245576   1.424   7.208   5.279
15112WAT      O45577   5.245   7.634   7.822
15112WAT     H145578   5.186   7.706   7.786
15112WAT     H245579   5.248   7.639   7.921
15113WAT      O45580   3.415   8.535   0.352
15113WAT     H145581   3.379   8.471   0.419
15113WAT     H245582   3.506   8.565   0.381
15114WAT      O45583   0.951   2.174   2.182
15114WAT     H145584   0.901   2.088   2.176
15114WAT     H245585   0.887   2.250   2.184
15115WAT      O45586   9.107   6.763   1.974
15115WAT     H145587   9.070   6.696   1.910
15115WAT     H245588   9.206   6.772   1.961
15116WAT      O45589   8.156   6.627   1.238
15116WAT     H145590   8.132   6.552   1.177
15116WAT     H245591   8.095   6.705   1.221
15117WAT      O45592   0.248   3.569   3.809
15117WAT     H145593   0.313   3.602   3.877
15117WAT     H245594   0.277   3.598   3.718
15118WAT      O45595   7.519   2.368   7.695
15118WAT     H145596   7.497   2.296   7.629
15118WAT     H245597   7.434   2.404   7.734
15119WAT      O45598   4.401   0.898   3.223
15119WAT     H145599   4.414   0.800   3.208
15119WAT     H245600   4.324   0.930   3.168
15120WAT      O45601   2.538   3.607   7.701
15120WAT     H145602   2.499   3.599   7.793
15120WAT     H245603   2.571   3.701   7.688
15121WAT      O45604   9.277   2.869   9.346
15121WAT     H145605   9.306   2.776   9.367
15121WAT     H245606   9.292   2.888   9.249
15122WAT      O45607   9.362   3.978   0.417
15122WAT     H145608   9.368   4.004   0.513
15122WAT     H245609   9.441   4.016   0.368
15123WAT      O45610   0.954   3.544   3.132
15123WAT     H145611   0.993   3.617   3.075
15123WAT     H245612   1.019   3.468   3.137
15124WAT      O45613   1.058   3.701   4.359
15124WAT     H145614   1.006   3.766   4.414
15124WAT     H245615   0.995   3.637   4.315
15125WAT      O45616   2.752   1.337   1.549
15125WAT     H145617   2.672   1.318   1.493
15125WAT     H245618   2.724   1.360   1.642
15126WAT      O45619   1.399   9.030   0.245
15126WAT     H145620   1.386   8.940   0.287
15126WAT     H245621   1.407   9.020   0.146
15127WAT      O45622   8.138   9.650   2.677
15127WAT     H145623   8.147   9.562   2.630
15127WAT     H245624   8.212   9.661   2.743
15128WAT      O45625   8.686   7.871   0.906
15128WAT     H145626   8.723   7.787   0.866
15128WAT     H245627   8.610   7.848   0.967
15129WAT      O45628   6.740   2.208   4.542
15129WAT     H145629   6.645   2.233   4.526
15129WAT     H245630   6.799   2.284   4.516
15130WAT      O45631   3.419   0.160   1.813
15130WAT     H145632   3.355   0.131   1.742
15130WAT     H245633   3.441   0.082   1.872
15131WAT      O45634   9.044   0.087   1.801
15131WAT     H145635   8.975   0.092   1.729
15131WAT     H245636   9.003   0.114   1.888
15132WAT      O45637   4.508   3.878   2.417
15132WAT     H145638   4.579   3.809   2.425
15132WAT     H245639   4.435   3.844   2.358
15133WAT      O45640   5.599   7.825   5.314
15133WAT     H145641   5.579   7.921   5.332
15133WAT     H245642   5.603   7.810   5.216
15134WAT      O45643   9.104   1.488   5.166
15134WAT     H145644   9.138   1.581   5.158
15134WAT     H245645   9.039   1.482   5.241
15135WAT      O45646   5.724   5.499   6.657
15135WAT     H145647   5.717   5.599   6.663
15135WAT     H245648   5.699   5.470   6.564
15136WAT      O45649   3.337   4.710   5.191
15136WAT     H145650   3.393   4.769   5.250
15136WAT     H245651   3.339   4.744   5.097
15137WAT      O45652   1.435   3.373   7.194
15137WAT     H145653   1.355   3.318   7.216
15137WAT     H245654   1.435   3.395   7.096
15138WAT      O45655   4.061   8.140   5.666
15138WAT     H145656   4.112   8.077   5.607
15138WAT     H245657   3.977   8.096   5.697
15139WAT      O45658   0.707   6.572   6.726
15139WAT     H145659   0.612   6.552   6.750
15139WAT     H245660   0.732   6.662   6.763
15140WAT      O45661   7.994   2.382   6.017
15140WAT     H145662   8.047   2.421   6.092
15140WAT     H245663   7.907   2.430   6.009
15141WAT      O45664   3.638   5.556   0.498
15141WAT     H145665   3.683   5.468   0.484
15141WAT     H245666   3.562   5.546   0.561
15142WAT      O45667   7.717   6.346   2.488
15142WAT     H145668   7.773   6.313   2.564
15142WAT     H245669   7.766   6.333   2.402
15143WAT      O45670   5.807   6.812   6.162
15143WAT     H145671   5.841   6.899   6.198
15143WAT     H245672   5.838   6.737   6.220
15144WAT      O45673   4.058   0.487   1.662
15144WAT     H145674   4.039   0.477   1.564
15144WAT     H245675   4.153   0.515   1.675
15145WAT      O45676   5.772   5.429   0.587
15145WAT     H145677   5.775   5.468   0.495
15145WAT     H245678   5.682   5.447   0.628
15146WAT      O45679   3.483   6.894   4.676
15146WAT     H145680   3.438   6.856   4.595
15146WAT     H245681   3.477   6.829   4.751
15147WAT      O45682   8.071   7.656   8.992
15147WAT     H145683   8.032   7.600   8.919
15147WAT     H245684   7.998   7.688   9.052
15148WAT      O45685   8.087   6.338   9.074
15148WAT     H145686   8.007   6.346   9.133
15148WAT     H245687   8.169   6.362   9.125
15149WAT      O45688   8.461   5.534   0.273
15149WAT     H145689   8.374   5.562   0.232
15149WAT     H245690   8.521   5.614   0.281
15150WAT      O45691   2.049   7.138   8.276
15150WAT     H145692   2.063   7.237   8.271
15150WAT     H245693   2.054   7.098   8.184
15151WAT      O45694   4.015   2.092   9.432
15151WAT     H145695   3.963   2.044   9.503
15151WAT     H245696   3.956   2.160   9.388
15152WAT      O45697   3.516   7.555   2.998
15152WAT     H145698   3.580   7.627   2.970
15152WAT     H245699   3.424   7.579   2.966
15153WAT      O45700   7.731   5.127   8.767
15153WAT     H145701   7.772   5.201   8.820
15153WAT     H245702   7.703   5.054   8.828
15154WAT      O45703   3.018   5.426   9.658
15154WAT     H145704   3.081   5.498   9.631
15154WAT     H245705   2.925   5.462   9.662
15155WAT      O45706   8.362   8.467   2.833
15155WAT     H145707   8.403   8.388   2.787
15155WAT     H245708   8.321   8.438   2.919
15156WAT      O45709   1.551   4.569   2.429
15156WAT     H145710   1.506   4.561   2.518
15156WAT     H245711   1.608   4.489   2.413
15157WAT      O45712   3.963   6.773   9.350
15157WAT     H145713   3.977   6.778   9.251
15157WAT     H245714   4.049   6.790   9.397
15158WAT      O45715   7.802   4.549   9.489
15158WAT     H145716   7.900   4.548   9.507
15158WAT     H245717   7.753   4.563   9.575
15159WAT      O45718   1.215   4.482   3.755
15159WAT     H145719   1.150   4.491   3.831
15159WAT     H245720   1.216   4.566   3.702
15160WAT      O45721   6.304   3.791   1.585
15160WAT     H145722   6.232   3.859   1.590
15160WAT     H245723   6.359   3.794   1.669
15161WAT      O45724   0.844   3.341   8.103
15161WAT     H145725   0.926   3.296   8.069
15161WAT     H245726   0.839   3.434   8.068
15162WAT      O45727   8.959   8.575   8.238
15162WAT     H145728   8.907   8.634   8.300
15162WAT     H245729   8.963   8.617   8.148
15163WAT      O45730   5.163   8.022   4.448
15163WAT     H145731   5.224   7.957   4.404
15163WAT     H245732   5.192   8.037   4.542
15164WAT      O45733   9.830   7.297   0.214
15164WAT     H145734   9.853   7.213   0.165
15164WAT     H245735   9.911   7.355   0.220
15165WAT      O45736   5.856   7.648   1.482
15165WAT     H145737   5.762   7.616   1.468
15165WAT     H245738   5.915   7.569   1.499
15166WAT      O45739   3.440   4.255   1.050
15166WAT     H145740   3.340   4.244   1.049
15166WAT     H245741   3.476   4.234   0.959
15167WAT      O45742   8.692   0.998   8.553
15167WAT     H145743   8.610   1.001   8.496
15167WAT     H245744   8.710   0.904   8.581
15168WAT      O45745   3.107   3.987   1.135
15168WAT     H145746   3.184   3.950   1.188
15168WAT     H245747   3.125   4.082   1.111
15169WAT      O45748   0.323   6.919   6.887
15169WAT     H145749   0.400   6.867   6.924
15169WAT     H245750   0.290   6.876   6.803
15170WAT      O45751   7.799   9.320   5.958
15170WAT     H145752   7.763   9.268   5.880
15170WAT     H245753   7.781   9.271   6.042
15171WAT      O45754   0.924   3.428   4.445
15171WAT     H145755   0.887   3.487   4.516
15171WAT     H245756   0.932   3.479   4.360
15172WAT      O45757   1.162   6.582   9.801
15172WAT     H145758   1.205   6.492   9.797
15172WAT     H245759   1.075   6.578   9.751
15173WAT      O45760   0.228   4.397   3.387
15173WAT     H145761   0.256   4.432   3.298
15173WAT     H245762   0.303   4.345   3.427
15174WAT      O45763   5.385   4.131   0.774
15174WAT     H145764   5.410   4.186   0.694
15174WAT     H245765   5.327   4.055   0.746
15175WAT      O45766   9.822   3.720   3.950
15175WAT     H145767   9.847   3.627   3.923
15175WAT     H245768   9.729   3.720   3.987
15176WAT      O45769   4.139   1.223   3.462
15176WAT     H145770   4.178   1.285   3.395
15176WAT     H245771   4.184   1.133   3.454
15177WAT      O45772   1.039   0.379   8.505
15177WAT     H145773   1.094   0.447   8.457
15177WAT     H245774   0.942   0.393   8.482
15178WAT      O45775   7.474   4.238   0.788
15178WAT     H145776   7.541   4.312   0.793
15178WAT     H245777   7.495   4.169   0.857
15179WAT      O45778   7.908   6.015   8.541
15179WAT     H145779   7.924   6.012   8.442
15179WAT     H245780   7.822   6.063   8.559
15180WAT      O45781   9.784   7.715   0.921
15180WAT     H145782   9.866   7.765   0.950
15180WAT     H245783   9.725   7.698   1.000
15181WAT      O45784   8.159   3.924   1.197
15181WAT     H145785   8.228   3.902   1.266
15181WAT     H245786   8.182   3.878   1.111
15182WAT      O45787   4.113   0.626   6.247
15182WAT     H145788   4.055   0.620   6.166
15182WAT     H245789   4.095   0.712   6.294
15183WAT      O45790   2.381   2.014   3.442
15183WAT     H145791   2.287   2.018   3.408
15183WAT     H245792   2.442   2.061   3.378
15184WAT      O45793   1.007   3.000   4.898
15184WAT     H145794   0.953   2.998   4.814
15184WAT     H245795   1.092   2.948   4.885
15185WAT      O45796   0.877   5.550   4.170
15185WAT     H145797   0.812   5.626   4.164
15185WAT     H245798   0.917   5.547   4.261
15186WAT      O45799   4.658   0.979   5.899
15186WAT     H145800   4.581   1.039   5.920
15186WAT     H245801   4.704   1.013   5.817
15187WAT      O45802   9.272   1.299   9.613
15187WAT     H145803   9.253   1.252   9.699
15187WAT     H245804   9.367   1.285   9.587
15188WAT      O45805   2.219   3.350   0.621
15188WAT     H145806   2.257   3.442   0.617
15188WAT     H245807   2.272   3.294   0.685
15189WAT      O45808   9.404   6.994   2.363
15189WAT     H145809   9.345   7.047   2.303
15189WAT     H245810   9.470   7.054   2.408
15190WAT      O45811   0.071   2.572   3.971
15190WAT     H145812   0.152   2.570   3.912
15190WAT     H245813  -0.012   2.565   3.915
15191WAT      O45814   1.159   9.575   3.998
15191WAT     H145815   1.145   9.480   4.026
15191WAT     H245816   1.214   9.577   3.914
15192WAT      O45817   3.430   3.386   6.510
15192WAT     H145818   3.483   3.363   6.592
15192WAT     H245819   3.341   3.339   6.514
15193WAT      O45820   4.856   9.147   1.673
15193WAT     H145821   4.820   9.235   1.644
15193WAT     H245822   4.781   9.086   1.697
15194WAT      O45823   6.453   0.045   9.764
15194WAT     H145824   6.398   0.123   9.793
15194WAT     H245825   6.533   0.036   9.823
15195WAT      O45826   7.114   4.624   6.852
15195WAT     H145827   7.114   4.551   6.920
15195WAT     H245828   7.194   4.613   6.792
15196WAT      O45829   2.673   3.136   5.317
15196WAT     H145830   2.574   3.149   5.318
15196WAT     H245831   2.694   3.046   5.277
15197WAT      O45832   1.925   1.409   6.367
15197WAT     H145833   1.969   1.428   6.455
15197WAT     H245834   1.884   1.493   6.332
15198WAT      O45835   7.423   6.002   6.075
15198WAT     H145836   7.395   5.959   5.989
15198WAT     H245837   7.439   5.931   6.143
15199WAT      O45838   5.879   5.555   7.703
15199WAT     H145839   5.780   5.559   7.687
15199WAT     H245840   5.897   5.536   7.800
15200WAT      O45841   7.285   6.995   3.920
15200WAT     H145842   7.341   6.918   3.951
15200WAT     H245843   7.248   7.042   4.000
15201WAT      O45844   0.306   0.866   4.962
15201WAT     H145845   0.382   0.800   4.956
15201WAT     H245846   0.265   0.877   4.872
15202WAT      O45847   0.865   2.388   3.047
15202WAT     H145848   0.768   2.397   3.072
15202WAT     H245849   0.903   2.307   3.091
15203WAT      O45850   2.267   7.367   2.927
15203WAT     H145851   2.208   7.289   2.910
15203WAT     H245852   2.361   7.343   2.903
15204WAT      O45853   0.507   4.941   1.266
15204WAT     H145854   0.443   5.015   1.287
15204WAT     H245855   0.500   4.869   1.335
15205WAT      O45856   2.169   6.947   8.065
15205WAT     H145857   2.201   7.041   8.077
15205WAT     H245858   2.191   6.894   8.147
15206WAT      O45859   5.376   2.111   0.450
15206WAT     H145860   5.296   2.132   0.393
15206WAT     H245861   5.386   2.012   0.459
15207WAT      O45862   9.138   1.227   5.892
15207WAT     H145863   9.081   1.168   5.836
15207WAT     H245864   9.123   1.323   5.865
15208WAT      O45865   5.223   1.372   8.158
15208WAT     H145866   5.285   1.448   8.180
15208WAT     H245867   5.129   1.401   8.174
15209WAT      O45868   7.377   0.902   6.830
15209WAT     H145869   7.421   0.946   6.751
15209WAT     H245870   7.441   0.901   6.907
15210WAT      O45871   1.269   3.498   4.388
15210WAT     H145872   1.362   3.529   4.407
15210WAT     H245873   1.208   3.577   4.376
15211WAT      O45874   3.190   8.380   2.210
15211WAT     H145875   3.209   8.420   2.299
15211WAT     H245876   3.145   8.291   2.222
15212WAT      O45877   6.102   4.571   3.020
15212WAT     H145878   6.202   4.567   3.024
15212WAT     H245879   6.066   4.586   3.112
15213WAT      O45880   0.446   5.926   5.840
15213WAT     H145881   0.391   5.979   5.776
15213WAT     H245882   0.440   5.829   5.816
15214WAT      O45883   3.766   9.676   3.193
15214WAT     H145884   3.808   9.673   3.102
15214WAT     H245885   3.811   9.610   3.252
15215WAT      O45886   5.006   7.443   2.113
15215WAT     H145887   4.925   7.399   2.153
15215WAT     H245888   4.989   7.460   2.015
15216WAT      O45889   7.918   8.068   9.545
15216WAT     H145890   7.852   8.065   9.470
15216WAT     H245891   7.870   8.089   9.630
15217WAT      O45892   7.230   0.497   7.302
15217WAT     H145893   7.230   0.549   7.388
15217WAT     H245894   7.275   0.551   7.231
15218WAT      O45895   6.616   2.602   2.113
15218WAT     H145896   6.526   2.609   2.156
15218WAT     H245897   6.610   2.542   2.034
15219WAT      O45898   2.779   3.170   1.214
15219WAT     H145899   2.781   3.091   1.275
15219WAT     H245900   2.722   3.242   1.255
15220WAT      O45901   4.505   0.237   2.339
15220WAT     H145902   4.409   0.251   2.314
15220WAT     H245903   4.517   0.256   2.436
15221WAT      O45904   8.202   7.712   4.566
15221WAT     H145905   8.226   7.649   4.641
15221WAT     H245906   8.154   7.791   4.604
15222WAT      O45907   9.850   4.842   7.937
15222WAT     H145908   9.817   4.761   7.985
15222WAT     H245909   9.917   4.815   7.867
15223WAT      O45910   6.464   3.189   4.051
15223WAT     H145911   6.481   3.091   4.037
15223WAT     H245912   6.395   3.201   4.123
15224WAT      O45913   9.858   9.699   1.958
15224WAT     H145914   9.768   9.675   1.920
15224WAT     H245915   9.851   9.707   2.057
15225WAT      O45916   3.650   8.282   8.138
15225WAT     H145917   3.688   8.210   8.196
15225WAT     H245918   3.571   8.246   8.088
15226WAT      O45919   7.118   1.808   1.988
15226WAT     H145920   7.189   1.843   2.049
15226WAT     H245921   7.157   1.785   1.899
15227WAT      O45922   3.866   6.161   4.769
15227WAT     H145923   3.784   6.119   4.729
15227WAT     H245924   3.839   6.221   4.844
15228WAT      O45925   8.307   9.219   4.763
15228WAT     H145926   8.326   9.272   4.680
15228WAT     H245927   8.262   9.277   4.831
15229WAT      O45928   6.321   2.896   2.971
15229WAT     H145929   6.265   2.976   2.952
15229WAT     H245930   6.383   2.915   3.047
15230WAT      O45931   3.304   5.451   3.572
15230WAT     H145932   3.334   5.546   3.584
15230WAT     H245933   3.278   5.413   3.660
15231WAT      O45934   8.826   5.490   2.566
15231WAT     H145935   8.877   5.573   2.587
15231WAT     H245936   8.868   5.444   2.487
15232WAT      O45937   1.602   1.231   8.733
15232WAT     H145938   1.667   1.258   8.663
15232WAT     H245939   1.627   1.142   8.770
15233WAT      O45940   1.879   3.133   3.009
15233WAT     H145941   1.857   3.220   2.964
15233WAT     H245942   1.904   3.065   2.940
15234WAT      O45943   5.604   0.928   8.442
15234WAT     H145944   5.701   0.918   8.419
15234WAT     H245945   5.595   0.952   8.539
15235WAT      O45946   4.807   6.117   0.675
15235WAT     H145947   4.773   6.029   0.709
15235WAT     H245948   4.740   6.156   0.612
15236WAT      O45949   5.348   9.475   1.186
15236WAT     H145950   5.377   9.570   1.170
15236WAT     H245951   5.306   9.439   1.104
15237WAT      O45952   9.025   0.853   6.688
15237WAT     H145953   9.070   0.938   6.714
15237WAT     H245954   9.087   0.776   6.703
15238WAT      O45955   7.170   9.254   1.938
15238WAT     H145956   7.190   9.166   1.895
15238WAT     H245957   7.086   9.291   1.899
15239WAT      O45958   9.341   5.388   8.793
15239WAT     H145959   9.259   5.410   8.846
15239WAT     H245960   9.421   5.430   8.836
15240WAT      O45961   4.963   4.582   6.405
15240WAT     H145962   4.955   4.633   6.319
15240WAT     H245963   5.005   4.640   6.474
15241WAT      O45964   6.929   4.569   7.813
15241WAT     H145965   6.858   4.503   7.835
15241WAT     H245966   6.969   4.606   7.897
15242WAT      O45967   7.838   6.163   2.966
15242WAT     H145968   7.781   6.091   3.007
15242WAT     H245969   7.933   6.132   2.963
15243WAT      O45970   3.772   9.171   2.506
15243WAT     H145971   3.867   9.143   2.513
15243WAT     H245972   3.713   9.098   2.542
15244WAT      O45973   7.896   6.193   7.416
15244WAT     H145974   7.854   6.227   7.500
15244WAT     H245975   7.984   6.238   7.403
15245WAT      O45976   7.646   5.904   8.382
15245WAT     H145977   7.676   5.984   8.330
15245WAT     H245978   7.725   5.847   8.403
15246WAT      O45979   5.385   8.658   3.571
15246WAT     H145980   5.482   8.677   3.584
15246WAT     H245981   5.346   8.620   3.655
15247WAT      O45982   4.967   9.510   7.808
15247WAT     H145983   4.936   9.480   7.718
15247WAT     H245984   5.054   9.558   7.799
15248WAT      O45985   5.812   2.674   9.454
15248WAT     H145986   5.853   2.673   9.545
15248WAT     H245987   5.730   2.617   9.454
15249WAT      O45988   0.521   4.600   6.584
15249WAT     H145989   0.598   4.654   6.549
15249WAT     H245990   0.496   4.530   6.517
15250WAT      O45991   5.666   1.229   5.155
15250WAT     H145992   5.662   1.192   5.062
15250WAT     H245993   5.574   1.252   5.185
15251WAT      O45994   2.740   8.025   8.017
15251WAT     H145995   2.710   8.098   7.957
15251WAT     H245996   2.673   8.012   8.090
15252WAT      O45997   1.122   7.648   1.429
15252WAT     H145998   1.055   7.700   1.480
15252WAT     H245999   1.184   7.710   1.381
15253WAT      O46000   8.967   7.789   0.421
15253WAT     H146001   8.947   7.824   0.512
15253WAT     H246002   9.053   7.828   0.388
15254WAT      O46003   4.754   2.466   9.665
15254WAT     H146004   4.852   2.452   9.659
15254WAT     H246005   4.716   2.481   9.574
15255WAT      O46006   3.558   9.271   4.183
15255WAT     H146007   3.529   9.223   4.266
15255WAT     H246008   3.647   9.236   4.153
15256WAT      O46009   5.285   3.150   7.490
15256WAT     H146010   5.349   3.144   7.413
15256WAT     H246011   5.237   3.238   7.487
15257WAT      O46012   5.869   8.231   4.372
15257WAT     H146013   5.851   8.197   4.464
15257WAT     H246014   5.810   8.310   4.353
15258WAT      O46015   9.661   5.391   0.365
15258WAT     H146016   9.592   5.341   0.418
15258WAT     H246017   9.659   5.488   0.389
15259WAT      O46018   0.802   3.561   3.385
15259WAT     H146019   0.853   3.545   3.300
15259WAT     H246020   0.716   3.510   3.382
15260WAT      O46021   3.387   4.858   6.035
15260WAT     H146022   3.328   4.890   6.109
15260WAT     H246023   3.413   4.763   6.051
15261WAT      O46024   7.896   3.060   7.567
15261WAT     H146025   7.907   3.012   7.654
15261WAT     H246026   7.907   2.995   7.492
15262WAT      O46027   2.278   0.427   8.902
15262WAT     H146028   2.211   0.483   8.854
15262WAT     H246029   2.250   0.331   8.898
15263WAT      O46030   6.515   7.062   1.654
15263WAT     H146031   6.554   6.970   1.662
15263WAT     H246032   6.572   7.127   1.704
15264WAT      O46033   7.718   7.053   5.487
15264WAT     H146034   7.764   6.986   5.429
15264WAT     H246035   7.785   7.101   5.543
15265WAT      O46036   8.179   6.049   8.307
15265WAT     H146037   8.214   6.077   8.397
15265WAT     H246038   8.243   5.986   8.264
15266WAT      O46039   4.279   3.207   8.589
15266WAT     H146040   4.370   3.192   8.550
15266WAT     H246041   4.284   3.202   8.689
15267WAT      O46042   8.922   9.506   2.438
15267WAT     H146043   8.841   9.554   2.470
15267WAT     H246044   8.975   9.566   2.377
15268WAT      O46045   8.123   4.428   1.873
15268WAT     H146046   8.129   4.407   1.775
15268WAT     H246047   8.204   4.392   1.920
15269WAT      O46048   2.184   8.270   0.468
15269WAT     H146049   2.162   8.200   0.536
15269WAT     H246050   2.194   8.227   0.378
15270WAT      O46051   7.947   9.365   9.685
15270WAT     H146052   7.913   9.385   9.777
15270WAT     H246053   7.883   9.304   9.639
15271WAT      O46054   4.009   4.061   3.204
15271WAT     H146055   4.031   4.105   3.291
15271WAT     H246056   3.935   3.995   3.218
15272WAT      O46057   5.878   4.708   8.200
15272WAT     H146058   5.885   4.804   8.175
15272WAT     H246059   5.811   4.663   8.141
15273WAT      O46060   2.557   3.985   5.085
15273WAT     H146061   2.533   4.021   4.995
15273WAT     H246062   2.656   3.979   5.094
15274WAT      O46063   8.394   1.695   2.064
15274WAT     H146064   8.488   1.660   2.070
15274WAT     H246065   8.396   1.789   2.030
15275WAT      O46066   5.165   9.663   3.388
15275WAT     H146067   5.221   9.711   3.455
15275WAT     H246068   5.131   9.729   3.320
15276WAT      O46069   3.613   7.530   8.711
15276WAT     H146070   3.660   7.513   8.624
15276WAT     H246071   3.542   7.599   8.698
15277WAT      O46072   0.708   8.435   2.847
15277WAT     H146073   0.718   8.534   2.841
15277WAT     H246074   0.655   8.402   2.769
15278WAT      O46075   6.497   8.672   2.596
15278WAT     H146076   6.459   8.591   2.641
15278WAT     H246077   6.578   8.647   2.544
15279WAT      O46078   2.634   8.064   9.224
15279WAT     H146079   2.651   8.150   9.272
15279WAT     H246080   2.536   8.047   9.220
15280WAT      O46081   2.346   9.531   5.357
15280WAT     H146082   2.332   9.530   5.258
15280WAT     H246083   2.383   9.620   5.385
15281WAT      O46084   2.869   8.676   9.261
15281WAT     H146085   2.805   8.659   9.186
15281WAT     H246086   2.851   8.767   9.300
15282WAT      O46087   7.082   6.780   1.926
15282WAT     H146088   7.149   6.852   1.906
15282WAT     H246089   6.994   6.822   1.950
15283WAT      O46090   4.159   7.622   3.403
15283WAT     H146091   4.129   7.713   3.376
15283WAT     H246092   4.142   7.609   3.501
15284WAT      O46093   4.049   6.345   8.886
15284WAT     H146094   4.046   6.445   8.893
15284WAT     H246095   3.981   6.314   8.819
15285WAT      O46096   0.492   9.109   1.274
15285WAT     H146097   0.453   9.140   1.187
15285WAT     H246098   0.482   9.181   1.343
15286WAT      O46099   8.451   7.064   6.291
15286WAT     H146100   8.473   6.998   6.364
15286WAT     H246101   8.491   7.152   6.313
15287WAT      O46102   0.030   0.844   5.299
15287WAT     H146103  -0.005   0.750   5.288
15287WAT     H246104  -0.044   0.909   5.280
15288WAT      O46105   9.192   6.683   7.978
15288WAT     H146106   9.175   6.652   7.884
15288WAT     H246107   9.173   6.781   7.984
15289WAT      O46108   2.090   0.483   1.284
15289WAT     H146109   2.160   0.516   1.347
15289WAT     H246110   2.131   0.462   1.195
15290WAT      O46111   8.520   6.920   0.909
15290WAT     H146112   8.579   6.876   0.841
15290WAT     H246113   8.573   6.989   0.959
15291WAT      O46114   8.748   8.328   6.321
15291WAT     H146115   8.792   8.416   6.303
15291WAT     H246116   8.818   8.256   6.321
15292WAT      O46117   8.398   8.964   2.424
15292WAT     H146118   8.392   8.882   2.480
15292WAT     H246119   8.480   8.959   2.367
15293WAT      O46120   1.850   9.174   6.565
15293WAT     H146121   1.821   9.081   6.540
15293WAT     H246122   1.869   9.178   6.663
15294WAT      O46123   3.314   6.913   5.087
15294WAT     H146124   3.402   6.928   5.131
15294WAT     H246125   3.295   6.989   5.024
15295WAT      O46126   5.297   5.901   5.366
15295WAT     H146127   5.377   5.884   5.308
15295WAT     H246128   5.284   5.999   5.377
15296WAT      O46129   1.145   8.281   1.159
15296WAT     H146130   1.200   8.268   1.241
15296WAT     H246131   1.057   8.321   1.184
15297WAT      O46132   1.977   1.692   2.703
15297WAT     H146133   1.930   1.619   2.753
15297WAT     H246134   1.921   1.721   2.626
15298WAT      O46135   5.877   2.340   2.409
15298WAT     H146136   5.857   2.251   2.368
15298WAT     H246137   5.888   2.329   2.508
15299WAT      O46138   6.305   7.476   3.203
15299WAT     H146139   6.243   7.428   3.266
15299WAT     H246140   6.277   7.459   3.109
15300WAT      O46141   3.405   7.578   4.680
15300WAT     H146142   3.424   7.622   4.592
15300WAT     H246143   3.352   7.494   4.665
15301WAT      O46144   3.465   8.645   3.972
15301WAT     H146145   3.490   8.684   3.884
15301WAT     H246146   3.445   8.720   4.037
15302WAT      O46147   7.804   9.540   7.513
15302WAT     H146148   7.792   9.557   7.415
15302WAT     H246149   7.725   9.575   7.563
15303WAT      O46150   6.236   1.763   2.563
15303WAT     H146151   6.158   1.784   2.622
15303WAT     H246152   6.208   1.770   2.467
15304WAT      O46153   4.113   4.173   0.007
15304WAT     H146154   4.132   4.269   0.030
15304WAT     H246155   4.122   4.160  -0.091
15305WAT      O46156   3.686   1.221   8.538
15305WAT     H146157   3.779   1.229   8.574
15305WAT     H246158   3.624   1.277   8.593
15306WAT      O46159   0.330   4.631   1.288
15306WAT     H146160   0.379   4.614   1.373
15306WAT     H246161   0.375   4.582   1.213
15307WAT      O46162   1.986   1.148   7.013
15307WAT     H146163   2.041   1.165   7.095
15307WAT     H246164   1.894   1.186   7.026
15308WAT      O46165   4.862   0.467   6.625
15308WAT     H146166   4.826   0.493   6.714
15308WAT     H246167   4.792   0.484   6.555
15309WAT      O46168   0.534   6.198   8.616
15309WAT     H146169   0.614   6.236   8.570
15309WAT     H246170   0.560   6.167   8.708
15310WAT      O46171   5.861   5.103   2.092
15310WAT     H146172   5.855   5.060   2.182
15310WAT     H246173   5.957   5.117   2.068
15311WAT      O46174   7.406   2.516   9.061
15311WAT     H146175   7.493   2.564   9.072
15311WAT     H246176   7.330   2.577   9.087
15312WAT      O46177   8.640   2.353   8.812
15312WAT     H146178   8.599   2.261   8.811
15312WAT     H246179   8.654   2.381   8.907
15313WAT      O46180   4.871   0.910   3.141
15313WAT     H146181   4.909   0.827   3.182
15313WAT     H246182   4.791   0.939   3.194
15314WAT      O46183   8.125   5.050   6.732
15314WAT     H146184   8.222   5.052   6.755
15314WAT     H246185   8.094   4.955   6.729
15315WAT      O46186   3.883   2.319   6.210
15315WAT     H146187   3.958   2.266   6.250
15315WAT     H246188   3.919   2.402   6.169
15316WAT      O46189   5.144   8.171   0.444
15316WAT     H146190   5.125   8.267   0.423
15316WAT     H246191   5.193   8.129   0.367
15317WAT      O46192   4.304   7.076   3.555
15317WAT     H146193   4.264   7.119   3.636
15317WAT     H246194   4.352   6.993   3.581
15318WAT      O46195   5.661   7.161   7.711
15318WAT     H146196   5.623   7.117   7.792
15318WAT     H246197   5.752   7.198   7.733
15319WAT      O46198   6.292   4.455   8.861
15319WAT     H146199   6.319   4.398   8.937
15319WAT     H246200   6.359   4.447   8.787
15320WAT      O46201   1.912   9.436   6.472
15320WAT     H146202   2.005   9.468   6.494
15320WAT     H246203   1.904   9.340   6.499
15321WAT      O46204   6.940   1.540   0.628
15321WAT     H146205   6.961   1.638   0.627
15321WAT     H246206   6.914   1.513   0.721
15322WAT      O46207   1.241   0.162   0.734
15322WAT     H146208   1.220   0.124   0.644
15322WAT     H246209   1.308   0.236   0.724
15323WAT      O46210   5.076   8.295   2.478
15323WAT     H146211   5.127   8.292   2.564
15323WAT     H246212   4.986   8.336   2.494
15324WAT      O46213   0.710   1.241   5.365
15324WAT     H146214   0.680   1.291   5.284
15324WAT     H246215   0.779   1.295   5.413
15325WAT      O46216   3.499   4.246   2.412
15325WAT     H146217   3.503   4.322   2.347
15325WAT     H246218   3.583   4.192   2.405
15326WAT      O46219   7.631   8.015   2.479
15326WAT     H146220   7.695   8.086   2.449
15326WAT     H246221   7.645   7.995   2.576
15327WAT      O46222   4.327   3.706   0.525
15327WAT     H146223   4.407   3.652   0.500
15327WAT     H246224   4.318   3.708   0.625
15328WAT      O46225   9.562   9.000   1.771
15328WAT     H146226   9.582   8.982   1.867
15328WAT     H246227   9.479   9.056   1.764
15329WAT      O46228   3.172   3.114   4.472
15329WAT     H146229   3.125   3.182   4.528
15329WAT     H246230   3.167   3.141   4.375
15330WAT      O46231   1.859   0.543   2.812
15330WAT     H146232   1.896   0.474   2.751
15330WAT     H246233   1.779   0.586   2.769
15331WAT      O46234   4.098   3.190   3.304
15331WAT     H146235   4.087   3.195   3.205
15331WAT     H246236   4.181   3.139   3.326
15332WAT      O46237   6.948   0.134   8.767
15332WAT     H146238   6.848   0.138   8.774
15332WAT     H246239   6.980   0.208   8.707
15333WAT      O46240   7.571   0.881   4.674
15333WAT     H146241   7.624   0.948   4.622
15333WAT     H246242   7.503   0.840   4.614
15334WAT      O46243   9.074   5.798   9.894
15334WAT     H146244   9.033   5.861   9.828
15334WAT     H246245   9.004   5.735   9.928
15335WAT      O46246   3.579   0.684   4.167
15335WAT     H146247   3.598   0.699   4.264
15335WAT     H246248   3.499   0.738   4.140
15336WAT      O46249   5.985   2.109   9.444
15336WAT     H146250   6.072   2.148   9.414
15336WAT     H246251   5.927   2.181   9.480
15337WAT      O46252   7.634   1.131   8.393
15337WAT     H146253   7.652   1.034   8.382
15337WAT     H246254   7.655   1.180   8.309
15338WAT      O46255   2.418   7.593   1.115
15338WAT     H146256   2.513   7.592   1.145
15338WAT     H246257   2.372   7.509   1.145
15339WAT      O46258   2.270   2.257   4.907
15339WAT     H146259   2.201   2.219   4.968
15339WAT     H246260   2.296   2.189   4.839
15340WAT      O46261   0.458   8.647   1.406
15340WAT     H146262   0.413   8.736   1.402
15340WAT     H246263   0.525   8.639   1.332
15341WAT      O46264   8.141   3.332   2.149
15341WAT     H146265   8.240   3.330   2.161
15341WAT     H246266   8.101   3.400   2.211
15342WAT      O46267   4.653   6.201   1.931
15342WAT     H146268   4.621   6.285   1.886
15342WAT     H246269   4.726   6.161   1.876
15343WAT      O46270   4.359   2.962   2.100
15343WAT     H146271   4.355   3.056   2.066
15343WAT     H246272   4.430   2.912   2.051
15344WAT      O46273   0.980   6.799   9.091
15344WAT     H146274   0.899   6.793   9.149
15344WAT     H246275   0.977   6.883   9.038
15345WAT      O46276   7.231   0.872   4.396
15345WAT     H146277   7.174   0.905   4.472
15345WAT     H246278   7.248   0.947   4.332
15346WAT      O46279   8.005   5.156   8.214
15346WAT     H146280   7.983   5.066   8.251
15346WAT     H246281   8.037   5.215   8.288
15347WAT      O46282   6.370   2.123   3.440
15347WAT     H146283   6.358   2.220   3.417
15347WAT     H246284   6.412   2.076   3.363
15348WAT      O46285   0.252   8.957   2.093
15348WAT     H146286   0.345   8.929   2.115
15348WAT     H246287   0.219   9.021   2.162
15349WAT      O46288   5.270   2.073   8.295
15349WAT     H146289   5.243   2.004   8.227
15349WAT     H246290   5.262   2.035   8.387
15350WAT      O46291   5.295   7.218   5.625
15350WAT     H146292   5.320   7.277   5.702
15350WAT     H246293   5.222   7.261   5.573
15351WAT      O46294   0.653   6.914   5.368
15351WAT     H146295   0.615   6.853   5.438
15351WAT     H246296   0.591   6.917   5.290
15352WAT      O46297   5.670   1.421   5.695
15352WAT     H146298   5.659   1.333   5.742
15352WAT     H246299   5.693   1.492   5.761
15353WAT      O46300   0.327   2.531   6.254
15353WAT     H146301   0.338   2.476   6.337
15353WAT     H246302   0.260   2.488   6.194
15354WAT      O46303   6.293   3.614   4.310
15354WAT     H146304   6.194   3.624   4.321
15354WAT     H246305   6.328   3.551   4.379
15355WAT      O46306   7.549   9.050   1.592
15355WAT     H146307   7.607   9.024   1.515
15355WAT     H246308   7.556   9.149   1.606
15356WAT      O46309   9.115   2.949   1.055
15356WAT     H146310   9.113   2.985   0.961
15356WAT     H246311   9.153   2.857   1.055
15357WAT      O46312   8.611   8.282   5.984
15357WAT     H146313   8.511   8.282   5.982
15357WAT     H246314   8.643   8.287   6.078
15358WAT      O46315   8.241   2.501   2.348
15358WAT     H146316   8.256   2.516   2.446
15358WAT     H246317   8.250   2.588   2.299
15359WAT      O46318   5.007   5.067   9.311
15359WAT     H146319   5.070   5.133   9.269
15359WAT     H246320   5.054   4.979   9.324
15360WAT      O46321   6.308   4.786   1.444
15360WAT     H146322   6.357   4.864   1.405
15360WAT     H246323   6.223   4.771   1.393
15361WAT      O46324   6.753   1.067   5.667
15361WAT     H146325   6.683   1.014   5.620
15361WAT     H246326   6.839   1.060   5.616
15362WAT      O46327   4.929   6.817   7.663
15362WAT     H146328   4.867   6.773   7.728
15362WAT     H246329   4.998   6.751   7.634
15363WAT      O46330   5.201   8.745   6.843
15363WAT     H146331   5.231   8.653   6.868
15363WAT     H246332   5.114   8.739   6.794
15364WAT      O46333   5.164   0.996   1.459
15364WAT     H146334   5.154   0.958   1.551
15364WAT     H246335   5.205   0.928   1.399
15365WAT      O46336   9.524   9.361   7.115
15365WAT     H146337   9.604   9.303   7.100
15365WAT     H246338   9.549   9.438   7.174
15366WAT      O46339   4.382   8.105   6.047
15366WAT     H146340   4.293   8.125   6.004
15366WAT     H246341   4.369   8.039   6.121
15367WAT      O46342   0.760   8.337   5.717
15367WAT     H146343   0.732   8.263   5.655
15367WAT     H246344   0.678   8.379   5.757
15368WAT      O46345   1.929   7.517   5.990
15368WAT     H146346   1.911   7.484   6.082
15368WAT     H246347   1.889   7.454   5.923
15369WAT      O46348   9.393   7.715   1.077
15369WAT     H146349   9.337   7.791   1.112
15369WAT     H246350   9.418   7.735   0.982
15370WAT      O46351   3.096   9.603   2.217
15370WAT     H146352   3.121   9.509   2.241
15370WAT     H246353   3.153   9.633   2.141
15371WAT      O46354   2.567   5.859   4.531
15371WAT     H146355   2.498   5.828   4.466
15371WAT     H246356   2.621   5.781   4.562
15372WAT      O46357   6.203   1.770   9.272
15372WAT     H146358   6.138   1.753   9.198
15372WAT     H246359   6.159   1.825   9.343
15373WAT      O46360   3.740   6.019   1.831
15373WAT     H146361   3.717   6.052   1.739
15373WAT     H246362   3.710   5.923   1.840
15374WAT      O46363   0.186   8.512   6.313
15374WAT     H146364   0.227   8.421   6.303
15374WAT     H246365   0.134   8.534   6.231
15375WAT      O46366   6.721   5.132   8.921
15375WAT     H146367   6.735   5.231   8.922
15375WAT     H246368   6.682   5.105   8.832
15376WAT      O46369   8.604   6.148   5.808
15376WAT     H146370   8.560   6.229   5.846
15376WAT     H246371   8.577   6.068   5.862
15377WAT      O46372   3.035   0.918   9.104
15377WAT     H146373   3.122   0.870   9.094
15377WAT     H246374   2.992   0.891   9.190
15378WAT      O46375   2.200   7.635   4.949
15378WAT     H146376   2.128   7.692   4.908
15378WAT     H246377   2.166   7.542   4.960
15379WAT      O46378   9.325   2.124   9.663
15379WAT     H146379   9.361   2.090   9.750
15379WAT     H246380   9.237   2.080   9.645
15380WAT      O46381   1.719   7.615   3.002
15380WAT     H146382   1.785   7.690   3.012
15380WAT     H246383   1.661   7.631   2.922
15381WAT      O46384   0.800   4.668   3.940
15381WAT     H146385   0.734   4.683   3.866
15381WAT     H246386   0.788   4.576   3.977
15382WAT      O46387   3.994   8.561   0.867
15382WAT     H146388   3.984   8.590   0.962
15382WAT     H246389   4.088   8.535   0.849
15383WAT      O46390   4.322   7.505   8.399
15383WAT     H146391   4.296   7.506   8.302
15383WAT     H246392   4.307   7.596   8.438
15384WAT      O46393   0.476   1.275   5.820
15384WAT     H146394   0.508   1.369   5.817
15384WAT     H246395   0.553   1.213   5.807
15385WAT      O46396   4.893   4.271   9.773
15385WAT     H146397   4.968   4.264   9.840
15385WAT     H246398   4.931   4.272   9.681
15386WAT      O46399   6.877   2.011   0.694
15386WAT     H146400   6.863   2.024   0.792
15386WAT     H246401   6.956   1.952   0.679
15387WAT      O46402   0.626   4.592   1.882
15387WAT     H146403   0.536   4.635   1.883
15387WAT     H246404   0.684   4.637   1.814
15388WAT      O46405   9.473   6.654   0.890
15388WAT     H146406   9.490   6.738   0.837
15388WAT     H246407   9.519   6.661   0.979
15389WAT      O46408   6.720   1.432   9.790
15389WAT     H146409   6.680   1.353   9.836
15389WAT     H246410   6.815   1.444   9.821
15390WAT      O46411   0.812   4.799   7.558
15390WAT     H146412   0.728   4.791   7.504
15390WAT     H246413   0.832   4.896   7.573
15391WAT      O46414   1.263   3.921   5.623
15391WAT     H146415   1.292   3.857   5.551
15391WAT     H246416   1.329   3.916   5.698
15392WAT      O46417   8.940   3.500   3.472
15392WAT     H146418   9.004   3.429   3.500
15392WAT     H246419   8.887   3.530   3.552
15393WAT      O46420   2.982   5.817   1.024
15393WAT     H146421   2.970   5.757   0.945
15393WAT     H246422   2.934   5.904   1.007
15394WAT      O46423   6.672   4.864   4.600
15394WAT     H146424   6.723   4.949   4.616
15394WAT     H246425   6.706   4.821   4.516
15395WAT      O46426   9.388   8.312   7.210
15395WAT     H146427   9.419   8.317   7.115
15395WAT     H246428   9.456   8.265   7.266
15396WAT      O46429   4.634   8.419   4.596
15396WAT     H146430   4.648   8.474   4.679
15396WAT     H246431   4.553   8.362   4.607
15397WAT      O46432   7.342   7.114   7.707
15397WAT     H146433   7.442   7.118   7.706
15397WAT     H246434   7.308   7.169   7.783
15398WAT      O46435   8.752   0.572   5.329
15398WAT     H146436   8.773   0.590   5.233
15398WAT     H246437   8.712   0.654   5.371
15399WAT      O46438   9.819   7.884   1.439
15399WAT     H146439   9.722   7.905   1.451
15399WAT     H246440   9.850   7.921   1.351
15400WAT      O46441   9.872   0.447   2.383
15400WAT     H146442   9.779   0.414   2.366
15400WAT     H246443   9.932   0.369   2.401
15401WAT      O46444   0.159   4.414   2.702
15401WAT     H146445   0.158   4.314   2.694
15401WAT     H246446   0.143   4.455   2.612
15402WAT      O46447   9.615   8.636   0.596
15402WAT     H146448   9.689   8.571   0.584
15402WAT     H246449   9.617   8.704   0.523
15403WAT      O46450   0.675   7.627   5.548
15403WAT     H146451   0.715   7.542   5.514
15403WAT     H246452   0.578   7.612   5.569
15404WAT      O46453   6.799   0.823   4.432
15404WAT     H146454   6.826   0.801   4.339
15404WAT     H246455   6.712   0.871   4.432
15405WAT      O46456   0.029   5.559   8.729
15405WAT     H146457   0.119   5.581   8.691
15405WAT     H246458  -0.016   5.643   8.758
15406WAT      O46459   3.065   7.919   3.168
15406WAT     H146460   3.080   7.956   3.260
15406WAT     H246461   3.092   7.988   3.100
15407WAT      O46462   7.957   7.624   4.273
15407WAT     H146463   8.042   7.571   4.277
15407WAT     H246464   7.926   7.644   4.365
15408WAT      O46465   7.454   5.093   8.212
15408WAT     H146466   7.412   5.008   8.180
15408WAT     H246467   7.554   5.084   8.206
15409WAT      O46468   0.961   2.146   0.518
15409WAT     H146469   0.905   2.163   0.437
15409WAT     H246470   0.905   2.106   0.590
15410WAT      O46471   0.007   3.034   9.470
15410WAT     H146472   0.072   2.997   9.537
15410WAT     H246473  -0.071   2.971   9.462
15411WAT      O46474   6.645   7.734   8.033
15411WAT     H146475   6.658   7.830   8.009
15411WAT     H246476   6.704   7.677   7.975
15412WAT      O46477   3.980   4.804   7.746
15412WAT     H146478   4.079   4.817   7.734
15412WAT     H246479   3.954   4.833   7.838
15413WAT      O46480   6.184   5.142   5.224
15413WAT     H146481   6.169   5.220   5.285
15413WAT     H246482   6.138   5.157   5.137
15414WAT      O46483   1.663   6.629   5.692
15414WAT     H146484   1.733   6.700   5.691
15414WAT     H246485   1.579   6.666   5.732
15415WAT      O46486   9.556   9.404   5.719
15415WAT     H146487   9.646   9.435   5.748
15415WAT     H246488   9.486   9.464   5.757
15416WAT      O46489   0.522   1.276   3.457
15416WAT     H146490   0.564   1.195   3.417
15416WAT     H246491   0.592   1.346   3.472
15417WAT      O46492   8.656   2.774   1.999
15417WAT     H146493   8.692   2.803   2.088
15417WAT     H246494   8.652   2.674   1.996
15418WAT      O46495   0.922   0.912   6.596
15418WAT     H146496   0.897   0.987   6.535
15418WAT     H246497   0.847   0.845   6.599
15419WAT      O46498   1.097   5.821   3.612
15419WAT     H146499   1.105   5.746   3.678
15419WAT     H246500   1.016   5.807   3.556
15420WAT      O46501   7.055   1.410   6.174
15420WAT     H146502   7.103   1.492   6.207
15420WAT     H246503   7.052   1.342   6.246
15421WAT      O46504   7.032   5.678   1.134
15421WAT     H146505   7.076   5.729   1.209
15421WAT     H246506   7.102   5.650   1.068
15422WAT      O46507   3.231   9.575   8.711
15422WAT     H146508   3.209   9.663   8.753
15422WAT     H246509   3.258   9.510   8.782
15423WAT      O46510   2.420   9.369   0.049
15423WAT     H146511   2.358   9.298   0.015
15423WAT     H246512   2.498   9.378  -0.013
15424WAT      O46513   7.192   8.258   9.052
15424WAT     H146514   7.133   8.297   9.122
15424WAT     H246515   7.137   8.231   8.973
15425WAT      O46516   8.281   3.864   5.139
15425WAT     H146517   8.276   3.963   5.147
15425WAT     H246518   8.298   3.839   5.044
15426WAT      O46519   6.883   5.414   2.319
15426WAT     H146520   6.917   5.456   2.235
15426WAT     H246521   6.946   5.341   2.347
15427WAT      O46522   0.283   0.970   3.569
15427WAT     H146523   0.275   1.017   3.657
15427WAT     H246524   0.201   0.989   3.514
15428WAT      O46525   2.992   8.979   5.676
15428WAT     H146526   2.988   9.043   5.753
15428WAT     H246527   3.082   8.938   5.671
15429WAT      O46528   4.256   2.537   4.911
15429WAT     H146529   4.308   2.453   4.894
15429WAT     H246530   4.276   2.603   4.839
15430WAT      O46531   5.584   0.070   6.751
15430WAT     H146532   5.647   0.010   6.701
15430WAT     H246533   5.500   0.082   6.698
15431WAT      O46534   1.691   6.937   4.022
15431WAT     H146535   1.787   6.947   3.997
15431WAT     H246536   1.638   7.013   3.983
15432WAT      O46537   8.270   1.821   4.181
15432WAT     H146538   8.230   1.730   4.168
15432WAT     H246539   8.275   1.841   4.279
15433WAT      O46540   9.738   2.706   8.488
15433WAT     H146541   9.656   2.735   8.440
15433WAT     H246542   9.808   2.778   8.481
15434WAT      O46543   6.661   9.381   4.718
15434WAT     H146544   6.625   9.443   4.788
15434WAT     H246545   6.609   9.295   4.719
15435WAT      O46546   0.125   5.161   8.548
15435WAT     H146547   0.055   5.193   8.612
15435WAT     H246548   0.097   5.182   8.454
15436WAT      O46549   7.248   3.017   7.572
15436WAT     H146550   7.148   3.020   7.564
15436WAT     H246551   7.274   2.939   7.630
15437WAT      O46552   6.861   3.040   6.782
15437WAT     H146553   6.904   3.011   6.697
15437WAT     H246554   6.799   2.969   6.814
15438WAT      O46555   6.161   5.089   7.226
15438WAT     H146556   6.212   5.015   7.270
15438WAT     H246557   6.111   5.051   7.147
15439WAT      O46558   4.094   9.773   7.958
15439WAT     H146559   4.128   9.847   8.015
15439WAT     H246560   4.169   9.733   7.906
15440WAT      O46561   3.899   4.770   2.347
15440WAT     H146562   3.935   4.685   2.310
15440WAT     H246563   3.936   4.786   2.438
15441WAT      O46564   4.234   9.057   7.537
15441WAT     H146565   4.227   9.062   7.438
15441WAT     H246566   4.151   9.094   7.579
15442WAT      O46567   0.891   3.336   9.380
15442WAT     H146568   0.950   3.324   9.301
15442WAT     H246569   0.937   3.392   9.449
15443WAT      O46570   6.481   6.610   7.495
15443WAT     H146571   6.544   6.554   7.442
15443WAT     H246572   6.480   6.578   7.590
15444WAT      O46573   9.600   1.585   4.105
15444WAT     H146574   9.585   1.626   4.195
15444WAT     H246575   9.661   1.643   4.052
15445WAT      O46576   4.586   7.480   2.144
15445WAT     H146577   4.654   7.498   2.072
15445WAT     H246578   4.494   7.492   2.106
15446WAT      O46579   0.705   4.505   1.302
15446WAT     H146580   0.791   4.496   1.354
15446WAT     H246581   0.673   4.600   1.309
15447WAT      O46582   2.878   5.356   5.277
15447WAT     H146583   2.864   5.259   5.296
15447WAT     H246584   2.962   5.387   5.322
15448WAT      O46585   2.999   5.689   4.107
15448WAT     H146586   2.997   5.732   4.017
15448WAT     H246587   2.906   5.689   4.145
15449WAT      O46588   4.174   1.315   9.225
15449WAT     H146589   4.130   1.364   9.150
15449WAT     H246590   4.159   1.216   9.213
15450WAT      O46591   0.608   2.640   7.058
15450WAT     H146592   0.678   2.615   6.991
15450WAT     H246593   0.650   2.647   7.149
15451WAT      O46594   3.913   6.389   1.836
15451WAT     H146595   3.908   6.290   1.842
15451WAT     H246596   3.969   6.416   1.758
15452WAT      O46597   4.789   5.216   6.392
15452WAT     H146598   4.764   5.154   6.318
15452WAT     H246599   4.782   5.310   6.361
15453WAT      O46600   6.004   6.138   4.389
15453WAT     H146601   5.915   6.168   4.423
15453WAT     H246602   6.001   6.041   4.367
15454WAT      O46603   7.536   4.074   2.057
15454WAT     H146604   7.600   4.133   2.008
15454WAT     H246605   7.554   3.978   2.033
15455WAT      O46606   7.904   6.892   4.453
15455WAT     H146607   7.970   6.951   4.407
15455WAT     H246608   7.946   6.804   4.472
15456WAT      O46609   5.632   5.547   7.372
15456WAT     H146610   5.584   5.465   7.342
15456WAT     H246611   5.625   5.618   7.302
15457WAT      O46612   3.037   8.143   2.241
15457WAT     H146613   3.092   8.060   2.240
15457WAT     H246614   2.978   8.143   2.322
15458WAT      O46615   9.189   4.848   5.877
15458WAT     H146616   9.223   4.863   5.970
15458WAT     H246617   9.218   4.758   5.845
15459WAT      O46618   6.553   3.254   1.014
15459WAT     H146619   6.568   3.157   1.033
15459WAT     H246620   6.481   3.289   1.074
15460WAT      O46621   2.461   8.390   8.062
15460WAT     H146622   2.543   8.443   8.040
15460WAT     H246623   2.459   8.308   8.005
15461WAT      O46624   4.475   4.944   3.643
15461WAT     H146625   4.461   5.028   3.694
15461WAT     H246626   4.403   4.933   3.575
15462WAT      O46627   5.551   9.399   7.565
15462WAT     H146628   5.547   9.497   7.588
15462WAT     H246629   5.515   9.385   7.473
15463WAT      O46630   4.766   5.747   3.806
15463WAT     H146631   4.824   5.678   3.765
15463WAT     H246632   4.684   5.704   3.844
15464WAT      O46633   3.927   5.912   6.614
15464WAT     H146634   4.011   5.965   6.603
15464WAT     H246635   3.853   5.957   6.565
15465WAT      O46636   8.560   7.226   8.504
15465WAT     H146637   8.573   7.143   8.559
15465WAT     H246638   8.572   7.306   8.562
15466WAT      O46639   8.927   1.917   3.265
15466WAT     H146640   8.928   2.006   3.310
15466WAT     H246641   9.002   1.912   3.199
15467WAT      O46642   1.802   2.914   7.033
15467WAT     H146643   1.870   2.851   6.996
15467WAT     H246644   1.772   2.977   6.962
15468WAT      O46645   7.763   8.294   6.759
15468WAT     H146646   7.676   8.335   6.730
15468WAT     H246647   7.838   8.353   6.730
15469WAT      O46648   9.212   3.315   7.255
15469WAT     H146649   9.192   3.286   7.348
15469WAT     H246650   9.304   3.285   7.230
15470WAT      O46651   7.864   8.788   9.055
15470WAT     H146652   7.816   8.703   9.077
15470WAT     H246653   7.831   8.824   8.968
15471WAT      O46654   9.337   7.031   3.770
15471WAT     H146655   9.339   7.128   3.746
15471WAT     H246656   9.291   7.021   3.859
15472WAT      O46657   6.071   1.579   3.000
15472WAT     H146658   6.140   1.524   3.047
15472WAT     H246659   5.982   1.567   3.044
15473WAT      O46660   6.177   8.442   8.686
15473WAT     H146661   6.263   8.413   8.646
15473WAT     H246662   6.113   8.469   8.614
15474WAT      O46663   1.713   5.884   2.119
15474WAT     H146664   1.750   5.842   2.037
15474WAT     H246665   1.757   5.973   2.134
15475WAT      O46666   8.186   6.137   0.854
15475WAT     H146667   8.160   6.212   0.794
15475WAT     H246668   8.105   6.081   0.874
15476WAT      O46669   4.859   9.135   8.167
15476WAT     H146670   4.944   9.108   8.213
15476WAT     H246671   4.880   9.198   8.093
15477WAT      O46672   6.520   2.277   5.466
15477WAT     H146673   6.463   2.197   5.485
15477WAT     H246674   6.564   2.265   5.377
15478WAT      O46675   5.315   0.047   6.192
15478WAT     H146676   5.274   0.058   6.102
15478WAT     H246677   5.289   0.123   6.251
15479WAT      O46678   8.762   4.381   1.098
15479WAT     H146679   8.799   4.299   1.142
15479WAT     H246680   8.823   4.409   1.024
15480WAT      O46681   4.121   5.460   5.885
15480WAT     H146682   4.163   5.549   5.899
15480WAT     H246683   4.186   5.388   5.907
15481WAT      O46684   9.175   0.988   7.007
15481WAT     H146685   9.131   1.052   6.944
15481WAT     H246686   9.221   1.040   7.080
15482WAT      O46687   8.759   4.445   8.247
15482WAT     H146688   8.685   4.512   8.243
15482WAT     H246689   8.749   4.378   8.174
15483WAT      O46690   6.611   0.649   5.554
15483WAT     H146691   6.694   0.599   5.580
15483WAT     H246692   6.579   0.617   5.465
15484WAT      O46693   3.343   5.991   2.991
15484WAT     H146694   3.297   5.933   2.925
15484WAT     H246695   3.399   5.934   3.052
15485WAT      O46696   7.477   1.453   4.335
15485WAT     H146697   7.556   1.515   4.341
15485WAT     H246698   7.397   1.498   4.376
15486WAT      O46699   8.785   7.358   8.314
15486WAT     H146700   8.721   7.434   8.302
15486WAT     H246701   8.867   7.390   8.361
15487WAT      O46702   4.961   7.140   1.931
15487WAT     H146703   4.993   7.178   1.844
15487WAT     H246704   4.865   7.166   1.945
15488WAT      O46705   6.187   7.938   6.530
15488WAT     H146706   6.129   7.857   6.528
15488WAT     H246707   6.194   7.972   6.624
15489WAT      O46708   5.935   4.052   5.309
15489WAT     H146709   5.852   3.996   5.314
15489WAT     H246710   5.983   4.049   5.397
15490WAT      O46711   7.676   3.005   6.151
15490WAT     H146712   7.693   3.023   6.248
15490WAT     H246713   7.755   2.958   6.112
15491WAT      O46714   5.828   7.679   7.315
15491WAT     H146715   5.910   7.640   7.275
15491WAT     H246716   5.756   7.686   7.245
15492WAT      O46717   0.815   2.788   8.308
15492WAT     H146718   0.780   2.876   8.341
15492WAT     H246719   0.750   2.748   8.243
15493WAT      O46720   0.022   2.745   4.450
15493WAT     H146721   0.079   2.827   4.453
15493WAT     H246722   0.062   2.679   4.387
15494WAT      O46723   4.863   1.092   9.773
15494WAT     H146724   4.767   1.104   9.799
15494WAT     H246725   4.881   1.141   9.688
15495WAT      O46726   8.220   6.053   4.697
15495WAT     H146727   8.166   6.136   4.687
15495WAT     H246728   8.274   6.037   4.614
15496WAT      O46729   5.130   7.879   7.257
15496WAT     H146730   5.031   7.868   7.258
15496WAT     H246731   5.171   7.806   7.312
15497WAT      O46732   8.673   0.734   1.670
15497WAT     H146733   8.644   0.729   1.574
15497WAT     H246734   8.764   0.694   1.679
15498WAT      O46735   5.746   8.610   0.536
15498WAT     H146736   5.658   8.643   0.567
15498WAT     H246737   5.754   8.623   0.437
15499WAT      O46738   5.375   2.905   5.012
15499WAT     H146739   5.366   2.832   4.944
15499WAT     H246740   5.286   2.947   5.029
15500WAT      O46741   2.071   2.620   7.025
15500WAT     H146742   1.980   2.596   6.992
15500WAT     H246743   2.138   2.601   6.954
15501WAT      O46744   9.622   5.199   8.207
15501WAT     H146745   9.674   5.278   8.238
15501WAT     H246746   9.648   5.177   8.113
15502WAT      O46747   7.907   6.013   8.273
15502WAT     H146748   8.000   6.034   8.246
15502WAT     H246749   7.855   5.982   8.193
15503WAT      O46750   5.052   8.767   0.950
15503WAT     H146751   5.119   8.723   0.891
15503WAT     H246752   5.075   8.750   1.046
15504WAT      O46753   9.579   0.169   0.112
15504WAT     H146754   9.675   0.143   0.119
15504WAT     H246755   9.535   0.161   0.201
15505WAT      O46756   5.498   7.748   3.527
15505WAT     H146757   5.452   7.706   3.449
15505WAT     H246758   5.431   7.766   3.599
15506WAT      O46759   8.970   3.930   9.444
15506WAT     H146760   8.891   3.978   9.482
15506WAT     H246761   8.957   3.831   9.454
15507WAT      O46762   4.019   3.092   0.708
15507WAT     H146763   4.034   2.996   0.731
15507WAT     H246764   3.951   3.097   0.634
15508WAT      O46765   2.806   9.727   6.443
15508WAT     H146766   2.822   9.811   6.494
15508WAT     H246767   2.732   9.742   6.377
15509WAT      O46768   0.309   0.894   1.225
15509WAT     H146769   0.370   0.871   1.149
15509WAT     H246770   0.364   0.932   1.300
15510WAT      O46771   0.656   8.905   6.917
15510WAT     H146772   0.714   8.960   6.977
15510WAT     H246773   0.580   8.961   6.884
15511WAT      O46774   1.496   9.024   7.794
15511WAT     H146775   1.528   8.953   7.732
15511WAT     H246776   1.504   8.992   7.889
15512WAT      O46777   6.356   1.781   0.383
15512WAT     H146778   6.374   1.734   0.297
15512WAT     H246779   6.405   1.735   0.458
15513WAT      O46780   2.903   8.044   5.820
15513WAT     H146781   2.881   8.138   5.796
15513WAT     H246782   2.897   7.986   5.739
15514WAT      O46783   3.341   7.779   8.151
15514WAT     H146784   3.434   7.771   8.113
15514WAT     H246785   3.333   7.863   8.204
15515WAT      O46786   3.329   2.539   2.448
15515WAT     H146787   3.394   2.480   2.497
15515WAT     H246788   3.280   2.486   2.380
15516WAT      O46789   8.446   4.905   3.220
15516WAT     H146790   8.542   4.931   3.234
15516WAT     H246791   8.428   4.894   3.122
15517WAT      O46792   5.500   3.441   8.450
15517WAT     H146793   5.404   3.411   8.452
15517WAT     H246794   5.531   3.449   8.356
15518WAT      O46795   9.432   0.569   7.287
15518WAT     H146796   9.471   0.603   7.202
15518WAT     H246797   9.334   0.588   7.288
15519WAT      O46798   2.829   7.656   7.045
15519WAT     H146799   2.906   7.681   7.103
15519WAT     H246800   2.777   7.583   7.090
15520WAT      O46801   9.218   5.919   7.420
15520WAT     H146802   9.295   5.981   7.439
15520WAT     H246803   9.251   5.841   7.366
15521WAT      O46804   6.276   2.614   9.166
15521WAT     H146805   6.365   2.645   9.200
15521WAT     H246806   6.211   2.608   9.242
15522WAT      O46807   9.472   0.326   4.679
15522WAT     H146808   9.430   0.269   4.608
15522WAT     H246809   9.421   0.412   4.687
15523WAT      O46810   4.036   7.672   6.549
15523WAT     H146811   4.085   7.585   6.536
15523WAT     H246812   4.101   7.748   6.538
15524WAT      O46813   9.286   1.623   7.138
15524WAT     H146814   9.252   1.674   7.059
15524WAT     H246815   9.283   1.525   7.119
15525WAT      O46816   9.022   7.270   5.846
15525WAT     H146817   9.002   7.365   5.823
15525WAT     H246818   8.967   7.243   5.925
15526WAT      O46819   7.944   8.907   2.378
15526WAT     H146820   7.903   8.873   2.293
15526WAT     H246821   7.959   8.831   2.441
15527WAT      O46822   2.797   4.550   4.224
15527WAT     H146823   2.897   4.549   4.222
15527WAT     H246824   2.762   4.482   4.160
15528WAT      O46825   0.444   2.825   8.769
15528WAT     H146826   0.432   2.800   8.673
15528WAT     H246827   0.372   2.889   8.796
15529WAT      O46828   4.167   2.598   9.106
15529WAT     H146829   4.103   2.667   9.140
15529WAT     H246830   4.143   2.509   9.144
15530WAT      O46831   8.069   6.708   9.440
15530WAT     H146832   8.094   6.770   9.515
15530WAT     H246833   8.114   6.620   9.454
15531WAT      O46834   1.429   3.079   6.892
15531WAT     H146835   1.461   3.173   6.904
15531WAT     H246836   1.392   3.069   6.799
15532WAT      O46837   2.263   6.581   3.893
15532WAT     H146838   2.298   6.619   3.979
15532WAT     H246839   2.176   6.534   3.910
15533WAT      O46840   4.552   5.676   2.396
15533WAT     H146841   4.525   5.619   2.318
15533WAT     H246842   4.545   5.623   2.480
15534WAT      O46843   1.949   3.129   5.499
15534WAT     H146844   1.897   3.056   5.454
15534WAT     H246845   1.995   3.092   5.580
15535WAT      O46846   0.139   4.575   6.635
15535WAT     H146847   0.046   4.549   6.659
15535WAT     H246848   0.183   4.500   6.585
15536WAT      O46849   0.467   7.297   2.738
15536WAT     H146850   0.562   7.299   2.707
15536WAT     H246851   0.422   7.382   2.710
15537WAT      O46852   9.833   4.465   9.053
15537WAT     H146853   9.795   4.545   9.005
15537WAT     H246854   9.762   4.424   9.110
15538WAT      O46855   9.159   8.318   9.222
15538WAT     H146856   9.063   8.335   9.200
15538WAT     H246857   9.210   8.403   9.216
15539WAT      O46858   3.024   7.147   3.035
15539WAT     H146859   2.934   7.108   3.050
15539WAT     H246860   3.045   7.147   2.937
15540WAT      O46861   1.140   7.783   6.389
15540WAT     H146862   1.127   7.713   6.320
15540WAT     H246863   1.130   7.743   6.480
15541WAT      O46864   0.275   6.766   9.588
15541WAT     H146865   0.193   6.777   9.532
15541WAT     H246866   0.327   6.851   9.587
15542WAT      O46867   0.627   8.526   6.242
15542WAT     H146868   0.555   8.592   6.264
15542WAT     H246869   0.638   8.461   6.317
15543WAT      O46870   1.783   6.086   6.889
15543WAT     H146871   1.713   6.038   6.942
15543WAT     H246872   1.745   6.114   6.802
15544WAT      O46873   0.291   6.847   8.783
15544WAT     H146874   0.296   6.879   8.688
15544WAT     H246875   0.212   6.889   8.827
15545WAT      O46876   3.819   0.075   3.317
15545WAT     H146877   3.759   0.138   3.267
15545WAT     H246878   3.794  -0.019   3.294
15546WAT      O46879   7.324   8.346   2.434
15546WAT     H146880   7.397   8.326   2.500
15546WAT     H246881   7.261   8.413   2.473
15547WAT      O46882   6.505   9.717   3.777
15547WAT     H146883   6.490   9.626   3.815
15547WAT     H246884   6.483   9.716   3.679
15548WAT      O46885   8.339   2.650   9.216
15548WAT     H146886   8.424   2.640   9.268
15548WAT     H246887   8.301   2.741   9.231
15549WAT      O46888   7.041   5.068   8.187
15549WAT     H146889   7.064   5.148   8.243
15549WAT     H246890   6.966   5.091   8.125
15550WAT      O46891   3.992   0.115   7.268
15550WAT     H146892   3.929   0.050   7.311
15550WAT     H246893   3.972   0.121   7.170
15551WAT      O46894   2.220   4.400   6.271
15551WAT     H146895   2.123   4.390   6.247
15551WAT     H246896   2.228   4.454   6.355
15552WAT      O46897   8.428   4.159   8.629
15552WAT     H146898   8.333   4.149   8.601
15552WAT     H246899   8.487   4.148   8.549
15553WAT      O46900   7.751   8.144   2.979
15553WAT     H146901   7.826   8.210   2.973
15553WAT     H246902   7.739   8.115   3.074
15554WAT      O46903   8.894   8.590   6.300
15554WAT     H146904   8.990   8.585   6.328
15554WAT     H246905   8.886   8.568   6.203
15555WAT      O46906   8.266   2.899   6.345
15555WAT     H146907   8.190   2.882   6.408
15555WAT     H246908   8.257   2.840   6.265
15556WAT      O46909   0.614   5.895   2.276
15556WAT     H146910   0.588   5.912   2.371
15556WAT     H246911   0.547   5.937   2.215
15557WAT      O46912   4.013   3.544   9.397
15557WAT     H146913   4.046   3.461   9.352
15557WAT     H246914   3.947   3.521   9.468
15558WAT      O46915   4.952   5.052   8.301
15558WAT     H146916   4.862   5.068   8.261
15558WAT     H246917   5.021   5.053   8.230
15559WAT      O46918   6.508   8.599   8.340
15559WAT     H146919   6.538   8.677   8.285
15559WAT     H246920   6.416   8.572   8.313
15560WAT      O46921   3.338   7.180   5.779
15560WAT     H146922   3.296   7.200   5.690
15560WAT     H246923   3.433   7.150   5.765
15561WAT      O46924   4.345   8.318   4.656
15561WAT     H146925   4.317   8.241   4.599
15561WAT     H246926   4.305   8.403   4.621
15562WAT      O46927   7.345   2.826   4.858
15562WAT     H146928   7.276   2.820   4.930
15562WAT     H246929   7.412   2.896   4.882
15563WAT      O46930   4.686   8.719   0.878
15563WAT     H146931   4.604   8.685   0.926
15563WAT     H246932   4.767   8.701   0.934
15564WAT      O46933   7.715   5.006   1.585
15564WAT     H146934   7.759   5.095   1.601
15564WAT     H246935   7.770   4.954   1.520
15565WAT      O46936   2.013   5.772   3.175
15565WAT     H146937   2.112   5.782   3.179
15565WAT     H246938   1.977   5.819   3.094
15566WAT      O46939   5.121   9.722   5.946
15566WAT     H146940   5.030   9.705   5.983
15566WAT     H246941   5.130   9.819   5.922
15567WAT      O46942   7.428   2.866   7.369
15567WAT     H146943   7.418   2.965   7.382
15567WAT     H246944   7.406   2.819   7.455
15568WAT      O46945   8.362   3.822   1.364
15568WAT     H146946   8.449   3.856   1.400
15568WAT     H246947   8.302   3.798   1.440
15569WAT      O46948   7.783   0.322   6.650
15569WAT     H146949   7.733   0.362   6.727
15569WAT     H246950   7.852   0.258   6.684
15570WAT      O46951   8.605   5.083   8.034
15570WAT     H146952   8.607   4.990   7.999
15570WAT     H246953   8.521   5.098   8.087
15571WAT      O46954   6.644   0.272   5.644
15571WAT     H146955   6.684   0.184   5.668
15571WAT     H246956   6.664   0.339   5.716
15572WAT      O46957   8.492   8.401   0.504
15572WAT     H146958   8.414   8.402   0.441
15572WAT     H246959   8.573   8.369   0.457
15573WAT      O46960   5.956   8.745   7.724
15573WAT     H146961   5.936   8.659   7.676
15573WAT     H246962   6.045   8.779   7.696
15574WAT      O46963   8.353   2.218   1.120
15574WAT     H146964   8.377   2.308   1.156
15574WAT     H246965   8.344   2.153   1.195
15575WAT      O46966   7.594   3.253   5.556
15575WAT     H146967   7.669   3.318   5.565
15575WAT     H246968   7.507   3.299   5.574
15576WAT      O46969   4.964   3.499   2.440
15576WAT     H146970   5.045   3.469   2.390
15576WAT     H246971   4.918   3.419   2.479
15577WAT      O46972   7.453   7.899   6.417
15577WAT     H146973   7.539   7.848   6.420
15577WAT     H246974   7.472   7.997   6.410
15578WAT      O46975   9.160   4.743   0.970
15578WAT     H146976   9.257   4.752   0.993
15578WAT     H246977   9.116   4.832   0.978
15579WAT      O46978   7.613   0.291   6.881
15579WAT     H146979   7.572   0.381   6.891
15579WAT     H246980   7.557   0.236   6.820
15580WAT      O46981   1.671   8.010   7.494
15580WAT     H146982   1.665   7.969   7.403
15580WAT     H246983   1.760   7.991   7.534
15581WAT      O46984   2.189   6.632   4.242
15581WAT     H146985   2.213   6.600   4.333
15581WAT     H246986   2.271   6.664   4.195
15582WAT      O46987   6.957   7.489   1.716
15582WAT     H146988   6.940   7.570   1.771
15582WAT     H246989   6.983   7.413   1.775
15583WAT      O46990   3.460   5.920   1.755
15583WAT     H146991   3.422   5.898   1.845
15583WAT     H246992   3.507   5.839   1.718
15584WAT      O46993   6.498   6.123   3.833
15584WAT     H146994   6.589   6.164   3.840
15584WAT     H246995   6.479   6.099   3.738
15585WAT      O46996   2.715   8.947   5.269
15585WAT     H146997   2.732   8.935   5.367
15585WAT     H246998   2.760   9.031   5.238
15586WAT      O46999   5.740   3.200   6.167
15586WAT     H147000   5.827   3.159   6.138
15586WAT     H247001   5.682   3.129   6.207
15587WAT      O47002   2.152   1.519   7.136
15587WAT     H147003   2.131   1.438   7.190
15587WAT     H247004   2.068   1.559   7.100
15588WAT      O47005   2.155   0.352   9.686
15588WAT     H147006   2.168   0.320   9.592
15588WAT     H247007   2.099   0.286   9.736
15589WAT      O47008   6.250   2.428   7.916
15589WAT     H147009   6.182   2.354   7.921
15589WAT     H247010   6.277   2.456   8.008
15590WAT      O47011   5.895   3.949   9.213
15590WAT     H147012   5.858   3.929   9.303
15590WAT     H247013   5.847   4.029   9.174
15591WAT      O47014   3.552   7.098   9.837
15591WAT     H147015   3.464   7.145   9.833
15591WAT     H247016   3.539   7.000   9.819
15592WAT      O47017   8.533   7.744   7.634
15592WAT     H147018   8.586   7.724   7.552
15592WAT     H247019   8.576   7.698   7.713
15593WAT      O47020   3.388   2.643   8.040
15593WAT     H147021   3.483   2.621   8.064
15593WAT     H247022   3.334   2.652   8.123
15594WAT      O47023   8.068   4.473   4.687
15594WAT     H147024   8.023   4.523   4.614
15594WAT     H247025   8.013   4.480   4.771
15595WAT      O47026   8.852   8.315   2.155
15595WAT     H147027   8.802   8.342   2.238
15595WAT     H247028   8.930   8.377   2.143
15596WAT      O47029   9.416   8.405   4.036
15596WAT     H147030   9.355   8.350   4.093
15596WAT     H247031   9.430   8.494   4.080
15597WAT      O47032   8.922   6.830   4.522
15597WAT     H147033   8.882   6.806   4.611
15597WAT     H247034   8.849   6.846   4.456
15598WAT      O47035   6.555   8.529   3.652
15598WAT     H147036   6.647   8.566   3.647
15598WAT     H247037   6.494   8.596   3.694
15599WAT      O47038   6.915   6.609   1.159
15599WAT     H147039   6.884   6.701   1.181
15599WAT     H247040   6.851   6.542   1.197
15600WAT      O47041   2.775   2.448   5.689
15600WAT     H147042   2.791   2.402   5.601
15600WAT     H247043   2.823   2.398   5.761
15601WAT      O47044   2.120   1.087   2.169
15601WAT     H147045   2.105   1.168   2.225
15601WAT     H247046   2.135   1.008   2.229
15602WAT      O47047   4.507   8.327   2.479
15602WAT     H147048   4.414   8.304   2.508
15602WAT     H247049   4.508   8.421   2.444
15603WAT      O47050   5.217   4.670   7.615
15603WAT     H147051   5.281   4.667   7.692
15603WAT     H247052   5.229   4.756   7.566
15604WAT      O47053   3.208   9.351   5.852
15604WAT     H147054   3.298   9.359   5.896
15604WAT     H247055   3.144   9.415   5.895
15605WAT      O47056   8.125   9.333   9.110
15605WAT     H147057   8.213   9.375   9.131
15605WAT     H247058   8.089   9.371   9.025
15606WAT      O47059   4.838   1.208   8.900
15606WAT     H147060   4.838   1.197   8.801
15606WAT     H247061   4.931   1.223   8.933
15607WAT      O47062   6.260   7.120   9.249
15607WAT     H147063   6.289   7.026   9.270
15607WAT     H247064   6.287   7.142   9.155
15608WAT      O47065   8.109   7.174   8.070
15608WAT     H147066   8.016   7.203   8.048
15608WAT     H247067   8.144   7.113   7.998
15609WAT      O47068   9.412   5.491   1.224
15609WAT     H147069   9.342   5.557   1.250
15609WAT     H247070   9.497   5.540   1.201
15610WAT      O47071   7.394   6.950   9.163
15610WAT     H147072   7.427   6.872   9.217
15610WAT     H247073   7.327   7.001   9.216
15611WAT      O47074   4.315   4.728   2.011
15611WAT     H147075   4.218   4.720   1.991
15611WAT     H247076   4.363   4.762   1.931
15612WAT      O47077   6.747   6.463   1.797
15612WAT     H147078   6.820   6.532   1.792
15612WAT     H247079   6.679   6.482   1.726
15613WAT      O47080   1.778   0.635   1.896
15613WAT     H147081   1.750   0.634   1.993
15613WAT     H247082   1.791   0.730   1.867
15614WAT      O47083   9.324   4.161   2.934
15614WAT     H147084   9.407   4.133   2.887
15614WAT     H247085   9.342   4.166   3.033
15615WAT      O47086   6.244   6.967   7.324
15615WAT     H147087   6.338   6.989   7.296
15615WAT     H247088   6.183   7.041   7.297
15616WAT      O47089   0.523   1.843   3.861
15616WAT     H147090   0.621   1.860   3.866
15616WAT     H247091   0.492   1.802   3.947
15617WAT      O47092   9.402   8.114   6.306
15617WAT     H147093   9.480   8.100   6.245
15617WAT     H247094   9.426   8.182   6.375
15618WAT      O47095   8.413   3.381   6.292
15618WAT     H147096   8.493   3.397   6.350
15618WAT     H247097   8.438   3.315   6.221
15619WAT      O47098   4.148   4.223   5.410
15619WAT     H147099   4.138   4.132   5.449
15619WAT     H247100   4.058   4.262   5.394
15620WAT      O47101   2.921   9.427   8.435
15620WAT     H147102   2.997   9.395   8.491
15620WAT     H247103   2.912   9.369   8.354
15621WAT      O47104   9.376   5.578   8.312
15621WAT     H147105   9.354   5.658   8.368
15621WAT     H247106   9.430   5.607   8.233
15622WAT      O47107   1.190   4.689   6.615
15622WAT     H147108   1.185   4.762   6.547
15622WAT     H247109   1.238   4.722   6.696
15623WAT      O47110   4.783   6.069   2.376
15623WAT     H147111   4.829   5.997   2.325
15623WAT     H247112   4.818   6.158   2.347
15624WAT      O47113   8.678   1.214   5.409
15624WAT     H147114   8.704   1.133   5.462
15624WAT     H247115   8.677   1.294   5.469
15625WAT      O47116   7.214   8.452   6.241
15625WAT     H147117   7.285   8.418   6.303
15625WAT     H247118   7.174   8.374   6.192
15626WAT      O47119   9.012   3.971   3.340
15626WAT     H147120   9.037   3.878   3.314
15626WAT     H247121   8.949   4.009   3.272
15627WAT      O47122   6.518   0.476   1.118
15627WAT     H147123   6.606   0.519   1.098
15627WAT     H247124   6.444   0.527   1.074
15628WAT      O47125   5.237   8.943   4.832
15628WAT     H147126   5.224   9.000   4.913
15628WAT     H247127   5.150   8.906   4.802
15629WAT      O47128   8.351   0.187   6.452
15629WAT     H147129   8.314   0.226   6.537
15629WAT     H247130   8.289   0.207   6.376
15630WAT      O47131   5.398   7.626   0.868
15630WAT     H147132   5.436   7.715   0.846
15630WAT     H247133   5.311   7.613   0.820
15631WAT      O47134   9.576   6.310   2.913
15631WAT     H147135   9.671   6.290   2.887
15631WAT     H247136   9.550   6.399   2.877
15632WAT      O47137   8.410   5.746   0.955
15632WAT     H147138   8.322   5.711   0.922
15632WAT     H247139   8.449   5.682   1.020
15633WAT      O47140   8.211   3.782   1.613
15633WAT     H147141   8.189   3.689   1.584
15633WAT     H247142   8.262   3.779   1.699
15634WAT      O47143   9.563   7.162   4.635
15634WAT     H147144   9.598   7.207   4.717
15634WAT     H247145   9.485   7.212   4.600
15635WAT      O47146   0.155   6.715   3.299
15635WAT     H147147   0.227   6.694   3.366
15635WAT     H247148   0.191   6.704   3.206
15636WAT      O47149   8.971   8.931   2.656
15636WAT     H147150   8.885   8.919   2.607
15636WAT     H247151   9.040   8.868   2.620
15637WAT      O47152   9.609   7.376   7.323
15637WAT     H147153   9.640   7.428   7.403
15637WAT     H247154   9.635   7.280   7.334
15638WAT      O47155   0.130   0.824   6.846
15638WAT     H147156   0.047   0.878   6.832
15638WAT     H247157   0.106   0.730   6.867
15639WAT      O47158   5.977   4.860   1.618
15639WAT     H147159   5.917   4.916   1.676
15639WAT     H247160   6.062   4.840   1.667
15640WAT      O47161   0.017   0.158   2.102
15640WAT     H147162   0.001   0.065   2.069
15640WAT     H247163  -0.071   0.202   2.119
15641WAT      O47164   6.400   8.976   0.611
15641WAT     H147165   6.448   8.988   0.524
15641WAT     H247166   6.379   9.066   0.650
15642WAT      O47167   4.555   2.078   0.025
15642WAT     H147168   4.597   2.169   0.022
15642WAT     H247169   4.558   2.036  -0.065
15643WAT      O47170   5.890   3.301   9.103
15643WAT     H147171   5.901   3.203   9.087
15643WAT     H247172   5.828   3.315   9.181
15644WAT      O47173   4.157   1.423   6.400
15644WAT     H147174   4.161   1.324   6.414
15644WAT     H247175   4.234   1.466   6.446
15645WAT      O47176   1.434   8.932   9.472
15645WAT     H147177   1.369   8.885   9.532
15645WAT     H247178   1.387   8.962   9.389
15646WAT      O47179   3.369   1.713   3.560
15646WAT     H147180   3.390   1.635   3.501
15646WAT     H247181   3.301   1.771   3.516
15647WAT      O47182   0.844   3.120   7.718
15647WAT     H147183   0.814   3.027   7.699
15647WAT     H247184   0.907   3.150   7.647
15648WAT      O47185   2.539   4.494   7.066
15648WAT     H147186   2.445   4.505   7.033
15648WAT     H247187   2.548   4.404   7.109
15649WAT      O47188   7.628   6.850   9.829
15649WAT     H147189   7.597   6.773   9.884
15649WAT     H247190   7.662   6.922   9.889
15650WAT      O47191   5.028   7.564   6.814
15650WAT     H147192   5.082   7.483   6.794
15650WAT     H247193   4.969   7.585   6.735
15651WAT      O47194   2.404   8.108   3.812
15651WAT     H147195   2.363   8.143   3.728
15651WAT     H247196   2.462   8.179   3.853
15652WAT      O47197   7.185   9.617   7.355
15652WAT     H147198   7.224   9.655   7.439
15652WAT     H247199   7.257   9.570   7.303
15653WAT      O47200   3.351   6.235   3.381
15653WAT     H147201   3.346   6.328   3.418
15653WAT     H247202   3.292   6.175   3.434
15654WAT      O47203   6.027   1.042   0.048
15654WAT     H147204   5.952   0.981   0.023
15654WAT     H247205   6.025   1.059   0.147
15655WAT      O47206   0.381   8.616   1.679
15655WAT     H147207   0.417   8.688   1.740
15655WAT     H247208   0.413   8.632   1.586
15656WAT      O47209   1.173   0.590   7.000
15656WAT     H147210   1.187   0.688   7.009
15656WAT     H247211   1.200   0.544   7.085
15657WAT      O47212   9.625   4.788   6.574
15657WAT     H147213   9.645   4.717   6.506
15657WAT     H247214   9.535   4.770   6.614
15658WAT      O47215   8.684   9.821   4.159
15658WAT     H147216   8.728   9.736   4.189
15658WAT     H247217   8.754   9.884   4.124
15659WAT      O47218   3.812   5.348   1.313
15659WAT     H147219   3.831   5.427   1.257
15659WAT     H247220   3.740   5.370   1.379
15660WAT      O47221   8.713   5.900   1.741
15660WAT     H147222   8.708   5.975   1.675
15660WAT     H247223   8.621   5.864   1.758
15661WAT      O47224   4.984   3.087   0.659
15661WAT     H147225   5.016   2.998   0.692
15661WAT     H247226   4.931   3.132   0.731
15662WAT      O47227   8.193   7.437   8.428
15662WAT     H147228   8.245   7.395   8.355
15662WAT     H247229   8.252   7.501   8.478
15663WAT      O47230   1.362   4.964   8.290
15663WAT     H147231   1.273   4.919   8.299
15663WAT     H247232   1.349   5.057   8.256
15664WAT      O47233   0.064   0.723   4.947
15664WAT     H147234   0.075   0.674   4.860
15664WAT     H247235   0.145   0.779   4.964
15665WAT      O47236   6.868   7.869   9.197
15665WAT     H147237   6.899   7.813   9.120
15665WAT     H247238   6.867   7.965   9.171
15666WAT      O47239   1.445   8.711   9.085
15666WAT     H147240   1.540   8.697   9.114
15666WAT     H247241   1.441   8.720   8.986
15667WAT      O47242   9.421   8.627   2.289
15667WAT     H147243   9.325   8.598   2.286
15667WAT     H247244   9.479   8.555   2.250
15668WAT      O47245   8.723   5.454   1.724
15668WAT     H147246   8.751   5.458   1.820
15668WAT     H247247   8.777   5.519   1.671
15669WAT      O47248   4.212   5.718   4.746
15669WAT     H147249   4.125   5.754   4.781
15669WAT     H247250   4.194   5.648   4.677
15670WAT      O47251   7.335   4.541   8.241
15670WAT     H147252   7.362   4.620   8.295
15670WAT     H247253   7.325   4.568   8.145
15671WAT      O47254   2.133   2.904   8.539
15671WAT     H147255   2.125   2.841   8.461
15671WAT     H247256   2.202   2.974   8.519
15672WAT      O47257   1.838   3.907   5.304
15672WAT     H147258   1.842   3.955   5.391
15672WAT     H247259   1.906   3.834   5.303
15673WAT      O47260   0.676   2.659   1.618
15673WAT     H147261   0.673   2.674   1.519
15673WAT     H247262   0.705   2.565   1.637
15674WAT      O47263   8.096   0.287   1.248
15674WAT     H147264   8.129   0.379   1.269
15674WAT     H247265   8.106   0.228   1.328
15675WAT      O47266   9.378   8.355   3.770
15675WAT     H147267   9.393   8.370   3.868
15675WAT     H247268   9.308   8.419   3.737
15676WAT      O47269   9.543   2.833   7.639
15676WAT     H147270   9.491   2.789   7.566
15676WAT     H247271   9.599   2.906   7.601
15677WAT      O47272   3.733   0.017   8.296
15677WAT     H147273   3.646  -0.027   8.318
15677WAT     H247274   3.796  -0.051   8.259
15678WAT      O47275   7.585   9.627   7.885
15678WAT     H147276   7.490   9.600   7.870
15678WAT     H247277   7.587   9.716   7.931
15679WAT      O47278   5.440   4.766   4.875
15679WAT     H147279   5.363   4.829   4.877
15679WAT     H247280   5.510   4.800   4.811
15680WAT      O47281   5.849   5.845   8.174
15680WAT     H147282   5.909   5.925   8.172
15680WAT     H247283   5.833   5.819   8.269
15681WAT      O47284   7.878   3.935   2.491
15681WAT     H147285   7.808   3.948   2.421
15681WAT     H247286   7.837   3.894   2.572
15682WAT      O47287   1.993   9.110   4.455
15682WAT     H147288   2.019   9.064   4.539
15682WAT     H247289   2.013   9.208   4.462
15683WAT      O47290   2.110   2.215   4.597
15683WAT     H147291   2.164   2.164   4.664
15683WAT     H247292   2.049   2.153   4.548
15684WAT      O47293   3.012   6.815   5.572
15684WAT     H147294   3.082   6.761   5.617
15684WAT     H247295   3.048   6.852   5.486
15685WAT      O47296   1.161   2.997   0.051
15685WAT     H147297   1.080   2.964   0.003
15685WAT     H247298   1.234   2.929   0.044
15686WAT      O47299   1.722   5.686   2.729
15686WAT     H147300   1.623   5.675   2.725
15686WAT     H247301   1.750   5.760   2.667
15687WAT      O47302   7.687   0.598   8.715
15687WAT     H147303   7.674   0.513   8.664
15687WAT     H247304   7.782   0.605   8.746
15688WAT      O47305   2.798   3.701   6.005
15688WAT     H147306   2.839   3.690   6.096
15688WAT     H247307   2.713   3.753   6.014
15689WAT      O47308   4.877   7.660   0.494
15689WAT     H147309   4.903   7.725   0.422
15689WAT     H247310   4.838   7.578   0.451
15690WAT      O47311   4.929   1.868   0.209
15690WAT     H147312   5.011   1.810   0.210
15690WAT     H247313   4.864   1.832   0.143
15691WAT      O47314   5.416   2.264   5.773
15691WAT     H147315   5.362   2.222   5.700
15691WAT     H247316   5.466   2.343   5.736
15692WAT      O47317   9.870   2.835   2.524
15692WAT     H147318   9.822   2.757   2.483
15692WAT     H247319   9.963   2.841   2.487
15693WAT      O47320   0.054   2.946   1.096
15693WAT     H147321   0.094   2.978   1.010
15693WAT     H247322  -0.014   3.012   1.128
15694WAT      O47323   0.071   6.099   3.331
15694WAT     H147324   0.026   6.188   3.322
15694WAT     H247325   0.023   6.032   3.274
15695WAT      O47326   3.163   3.948   7.866
15695WAT     H147327   3.107   3.902   7.935
15695WAT     H247328   3.106   3.973   7.788
15696WAT      O47329   0.319   7.583   7.991
15696WAT     H147330   0.411   7.621   7.995
15696WAT     H247331   0.281   7.577   8.083
15697WAT      O47332   6.122   2.452   8.996
15697WAT     H147333   6.175   2.500   9.066
15697WAT     H247334   6.050   2.512   8.961
15698WAT      O47335   9.303   9.594   9.768
15698WAT     H147336   9.229   9.567   9.830
15698WAT     H247337   9.377   9.635   9.820
15699WAT      O47338   9.476   0.502   6.534
15699WAT     H147339   9.534   0.436   6.582
15699WAT     H247340   9.471   0.586   6.587
15700WAT      O47341   7.635   0.898   3.276
15700WAT     H147342   7.732   0.905   3.257
15700WAT     H247343   7.589   0.983   3.252
15701WAT      O47344   8.180   5.617   1.700
15701WAT     H147345   8.165   5.688   1.769
15701WAT     H247346   8.138   5.531   1.730
15702WAT      O47347   6.143   0.181   3.440
15702WAT     H147348   6.156   0.128   3.524
15702WAT     H247349   6.066   0.143   3.388
15703WAT      O47350   8.481   9.671   0.010
15703WAT     H147351   8.495   9.769   0.021
15703WAT     H247352   8.404   9.642   0.067
15704WAT      O47353   2.180   2.350   3.908
15704WAT     H147354   2.131   2.426   3.952
15704WAT     H247355   2.115   2.283   3.874
15705WAT      O47356   2.526   1.834   4.777
15705WAT     H147357   2.507   1.804   4.871
15705WAT     H247358   2.556   1.929   4.778
15706WAT      O47359   2.158   6.009   0.994
15706WAT     H147360   2.199   6.095   1.024
15706WAT     H247361   2.059   6.018   0.991
15707WAT      O47362   3.500   9.251   9.864
15707WAT     H147363   3.575   9.206   9.913
15707WAT     H247364   3.434   9.183   9.834
15708WAT      O47365   4.022   8.232   5.291
15708WAT     H147366   3.976   8.147   5.263
15708WAT     H247367   4.102   8.210   5.347
15709WAT      O47368   3.998   9.706   1.496
15709WAT     H147369   3.967   9.801   1.502
15709WAT     H247370   4.053   9.693   1.414
15710WAT      O47371   0.931   7.536   5.078
15710WAT     H147372   0.871   7.462   5.110
15710WAT     H247373   0.880   7.623   5.080
15711WAT      O47374   4.077   0.127   3.273
15711WAT     H147375   3.984   0.131   3.312
15711WAT     H247376   4.092   0.037   3.233
15712WAT      O47377   5.930   1.464   0.947
15712WAT     H147378   5.989   1.417   1.013
15712WAT     H247379   5.834   1.457   0.977
15713WAT      O47380   5.044   9.355   5.899
15713WAT     H147381   5.039   9.256   5.890
15713WAT     H247382   5.002   9.398   5.819
15714WAT      O47383   7.670   4.947   7.669
15714WAT     H147384   7.737   4.889   7.716
15714WAT     H247385   7.623   4.893   7.599
15715WAT      O47386   2.478   2.459   8.254
15715WAT     H147387   2.517   2.520   8.185
15715WAT     H247388   2.522   2.369   8.247
15716WAT      O47389   8.393   8.985   3.685
15716WAT     H147390   8.352   8.973   3.594
15716WAT     H247391   8.322   9.012   3.750
15717WAT      O47392   3.125   8.429   6.528
15717WAT     H147393   3.066   8.476   6.593
15717WAT     H247394   3.220   8.458   6.540
15718WAT      O47395   6.736   9.826   5.362
15718WAT     H147396   6.705   9.737   5.395
15718WAT     H247397   6.698   9.898   5.420
15719WAT      O47398   2.542   8.760   0.308
15719WAT     H147399   2.585   8.690   0.250
15719WAT     H247400   2.612   8.825   0.339
15720WAT      O47401   7.519   2.968   4.998
15720WAT     H147402   7.599   2.914   5.023
15720WAT     H247403   7.545   3.065   4.993
15721WAT      O47404   1.562   3.421   9.048
15721WAT     H147405   1.630   3.359   9.086
15721WAT     H247406   1.586   3.515   9.073
15722WAT      O47407   9.766   4.511   5.556
15722WAT     H147408   9.854   4.465   5.548
15722WAT     H247409   9.735   4.539   5.465
15723WAT      O47410   5.486   2.711   2.340
15723WAT     H147411   5.465   2.803   2.373
15723WAT     H247412   5.502   2.713   2.242
15724WAT      O47413   1.397   7.141   0.503
15724WAT     H147414   1.342   7.072   0.551
15724WAT     H247415   1.418   7.217   0.564
15725WAT      O47416   5.322   8.563   2.906
15725WAT     H147417   5.368   8.593   2.989
15725WAT     H247418   5.336   8.465   2.893
15726WAT      O47419   3.096   2.064   0.862
15726WAT     H147420   3.133   1.972   0.847
15726WAT     H247421   3.002   2.067   0.828
15727WAT      O47422   0.768   4.439   4.054
15727WAT     H147423   0.712   4.372   4.004
15727WAT     H247424   0.771   4.415   4.151
15728WAT      O47425   5.902   0.359   7.153
15728WAT     H147426   5.946   0.445   7.179
15728WAT     H247427   5.824   0.341   7.213
15729WAT      O47428   6.414   4.168   9.254
15729WAT     H147429   6.402   4.073   9.282
15729WAT     H247430   6.427   4.225   9.336
15730WAT      O47431   4.705   5.970   5.538
15730WAT     H147432   4.769   6.047   5.544
15730WAT     H247433   4.687   5.949   5.442
15731WAT      O47434   0.060   1.522   4.849
15731WAT     H147435   0.094   1.580   4.775
15731WAT     H247436   0.090   1.558   4.937
15732WAT      O47437   9.656   2.414   4.661
15732WAT     H147438   9.714   2.495   4.659
15732WAT     H247439   9.691   2.349   4.728
15733WAT      O47440   4.557   0.868   7.011
15733WAT     H147441   4.559   0.780   7.057
15733WAT     H247442   4.542   0.941   7.078
15734WAT      O47443   4.640   8.452   0.476
15734WAT     H147444   4.612   8.373   0.530
15734WAT     H247445   4.737   8.446   0.455
15735WAT      O47446   3.697   6.571   8.417
15735WAT     H147447   3.599   6.568   8.435
15735WAT     H247448   3.713   6.614   8.328
15736WAT      O47449   7.923   4.604   2.262
15736WAT     H147450   7.967   4.521   2.295
15736WAT     H247451   7.854   4.581   2.194
15737WAT      O47452   6.640   7.223   8.843
15737WAT     H147453   6.578   7.148   8.823
15737WAT     H247454   6.722   7.214   8.786
15738WAT      O47455   7.110   3.158   4.808
15738WAT     H147456   7.160   3.131   4.726
15738WAT     H247457   7.034   3.094   4.823
15739WAT      O47458   6.100   8.054   6.022
15739WAT     H147459   6.022   8.013   6.069
15739WAT     H247460   6.151   7.983   5.974
15740WAT      O47461   3.351   0.568   4.447
15740WAT     H147462   3.368   0.511   4.527
15740WAT     H247463   3.434   0.573   4.391
15741WAT      O47464   3.111   7.033   6.233
15741WAT     H147465   3.054   7.093   6.290
15741WAT     H247466   3.059   7.005   6.152
15742WAT      O47467   5.522   4.180   7.614
15742WAT     H147468   5.586   4.242   7.659
15742WAT     H247469   5.439   4.230   7.590
15743WAT      O47470   6.700   4.422   0.307
15743WAT     H147471   6.640   4.474   0.368
15743WAT     H247472   6.643   4.366   0.247
15744WAT      O47473   3.623   5.895   2.963
15744WAT     H147474   3.603   5.818   2.903
15744WAT     H247475   3.714   5.884   3.003
15745WAT      O47476   2.103   1.974   0.770
15745WAT     H147477   2.165   1.930   0.705
15745WAT     H247478   2.111   1.930   0.859
15746WAT      O47479   7.797   5.356   8.211
15746WAT     H147480   7.762   5.366   8.304
15746WAT     H247481   7.881   5.302   8.213
15747WAT      O47482   1.418   0.380   0.728
15747WAT     H147483   1.448   0.455   0.786
15747WAT     H247484   1.471   0.380   0.643
15748WAT      O47485   9.457   3.127   3.813
15748WAT     H147486   9.469   3.109   3.715
15748WAT     H247487   9.384   3.068   3.848
15749WAT      O47488   6.202   6.036   3.980
15749WAT     H147489   6.274   6.043   3.911
15749WAT     H247490   6.188   5.939   4.003
15750WAT      O47491   7.260   5.041   7.258
15750WAT     H147492   7.359   5.032   7.243
15750WAT     H247493   7.245   5.101   7.337
15751WAT      O47494   6.664   5.077   8.661
15751WAT     H147495   6.599   5.005   8.634
15751WAT     H247496   6.648   5.158   8.606
15752WAT      O47497   3.916   9.619   3.796
15752WAT     H147498   3.884   9.700   3.844
15752WAT     H247499   3.932   9.545   3.861
15753WAT      O47500   1.487   7.332   2.054
15753WAT     H147501   1.496   7.340   1.955
15753WAT     H247502   1.392   7.313   2.078
15754WAT      O47503   4.456   6.126   9.742
15754WAT     H147504   4.381   6.187   9.716
15754WAT     H247505   4.500   6.162   9.825
15755WAT      O47506   5.395   5.470   3.212
15755WAT     H147507   5.445   5.503   3.132
15755WAT     H247508   5.302   5.506   3.210
15756WAT      O47509   5.209   8.317   4.338
15756WAT     H147510   5.182   8.226   4.368
15756WAT     H247511   5.252   8.312   4.248
15757WAT      O47512   4.275   6.805   6.478
15757WAT     H147513   4.282   6.887   6.422
15757WAT     H247514   4.367   6.776   6.507
15758WAT      O47515   1.706   3.213   1.813
15758WAT     H147516   1.750   3.273   1.880
15758WAT     H247517   1.710   3.257   1.723
15759WAT      O47518   6.323   4.525   7.712
15759WAT     H147519   6.413   4.529   7.754
15759WAT     H247520   6.293   4.617   7.686
15760WAT      O47521   7.545   8.022   0.672
15760WAT     H147522   7.463   7.997   0.723
15760WAT     H247523   7.569   7.949   0.609
15761WAT      O47524   4.642   4.070   6.127
15761WAT     H147525   4.643   3.994   6.192
15761WAT     H247526   4.649   4.035   6.034
15762WAT      O47527   7.067   0.349   8.628
15762WAT     H147528   7.134   0.407   8.673
15762WAT     H247529   7.025   0.399   8.552
15763WAT      O47530   2.307   7.340   1.096
15763WAT     H147531   2.275   7.248   1.117
15763WAT     H247532   2.267   7.371   1.010
15764WAT      O47533   5.040   7.034   1.188
15764WAT     H147534   5.023   7.111   1.249
15764WAT     H247535   5.046   7.067   1.094
15765WAT      O47536   9.036  -0.001   2.462
15765WAT     H147537   8.997  -0.029   2.550
15765WAT     H247538   9.015   0.095   2.445
15766WAT      O47539   9.495   5.792   9.019
15766WAT     H147540   9.486   5.862   9.089
15766WAT     H247541   9.408   5.780   8.972
15767WAT      O47542   1.302   1.412   7.186
15767WAT     H147543   1.236   1.468   7.136
15767WAT     H247544   1.394   1.445   7.168
15768WAT      O47545   2.023   5.667   4.867
15768WAT     H147546   1.977   5.710   4.945
15768WAT     H247547   1.961   5.669   4.788
15769WAT      O47548   3.239   2.070   3.870
15769WAT     H147549   3.288   1.989   3.901
15769WAT     H247550   3.291   2.152   3.893
15770WAT      O47551   7.710   5.172   0.006
15770WAT     H147552   7.624   5.209  -0.028
15770WAT     H247553   7.784   5.236  -0.015
15771WAT      O47554   1.462   8.041   5.208
15771WAT     H147555   1.484   7.963   5.266
15771WAT     H247556   1.532   8.050   5.137
15772WAT      O47557   7.669   3.261   0.247
15772WAT     H147558   7.664   3.359   0.230
15772WAT     H247559   7.590   3.232   0.301
15773WAT      O47560   3.934   0.112   1.531
15773WAT     H147561   3.838   0.086   1.545
15773WAT     H247562   3.983   0.107   1.618
15774WAT      O47563   2.191   2.665   4.971
15774WAT     H147564   2.257   2.717   5.025
15774WAT     H247565   2.216   2.670   4.874
15775WAT      O47566   0.727   2.611   3.341
15775WAT     H147567   0.649   2.661   3.380
15775WAT     H247568   0.698   2.519   3.317
15776WAT      O47569   6.387   8.677   2.146
15776WAT     H147570   6.403   8.589   2.103
15776WAT     H247571   6.411   8.672   2.243
15777WAT      O47572   5.378   1.700   2.776
15777WAT     H147573   5.284   1.734   2.774
15777WAT     H247574   5.439   1.774   2.802
15778WAT      O47575   8.182   6.818   5.785
15778WAT     H147576   8.269   6.796   5.740
15778WAT     H247577   8.196   6.893   5.850
15779WAT      O47578   5.535   5.218   0.528
15779WAT     H147579   5.547   5.208   0.627
15779WAT     H247580   5.623   5.242   0.486
15780WAT      O47581   6.621   6.844   2.494
15780WAT     H147582   6.625   6.764   2.552
15780WAT     H247583   6.550   6.832   2.424
15781WAT      O47584   0.083   4.589   8.008
15781WAT     H147585   0.164   4.606   8.064
15781WAT     H247586   0.097   4.624   7.916
15782WAT      O47587   0.609   5.896   1.561
15782WAT     H147588   0.694   5.858   1.596
15782WAT     H247589   0.623   5.993   1.540
15783WAT      O47590   2.997   7.144   8.336
15783WAT     H147591   3.048   7.230   8.325
15783WAT     H247592   3.044   7.071   8.287
15784WAT      O47593   7.151   9.704   8.010
15784WAT     H147594   7.178   9.754   8.093
15784WAT     H247595   7.076   9.751   7.965
15785WAT      O47596   2.721   9.771   7.305
15785WAT     H147597   2.754   9.701   7.369
15785WAT     H247598   2.694   9.853   7.357
15786WAT      O47599   5.314   9.597   0.772
15786WAT     H147600   5.412   9.574   0.769
15786WAT     H247601   5.270   9.546   0.846
15787WAT      O47602   9.026   5.868   8.894
15787WAT     H147603   8.983   5.896   8.809
15787WAT     H247604   8.961   5.814   8.948
15788WAT      O47605   3.178   5.817   3.440
15788WAT     H147606   3.129   5.737   3.404
15788WAT     H247607   3.261   5.787   3.488
15789WAT      O47608   7.471   8.305   2.210
15789WAT     H147609   7.445   8.210   2.228
15789WAT     H247610   7.422   8.366   2.272
15790WAT      O47611   2.386   8.984   0.341
15790WAT     H147612   2.431   8.896   0.324
15790WAT     H247613   2.310   8.996   0.277
15791WAT      O47614   3.639   2.919   6.253
15791WAT     H147615   3.730   2.884   6.274
15791WAT     H247616   3.584   2.923   6.336
15792WAT      O47617   6.387   6.073   9.859
15792WAT     H147618   6.381   5.995   9.923
15792WAT     H247619   6.451   6.140   9.896
15793WAT      O47620   6.757   1.306   2.126
15793WAT     H147621   6.667   1.327   2.162
15793WAT     H247622   6.780   1.370   2.052
15794WAT      O47623   0.175   3.663   0.288
15794WAT     H147624   0.095   3.711   0.323
15794WAT     H247625   0.257   3.699   0.331
15795WAT      O47626   1.051   7.457   2.900
15795WAT     H147627   1.122   7.524   2.922
15795WAT     H247628   1.093   7.368   2.884
15796WAT      O47629   2.362   6.997   5.616
15796WAT     H147630   2.378   7.068   5.547
15796WAT     H247631   2.415   6.915   5.592
15797WAT      O47632   7.943   9.799   6.533
15797WAT     H147633   8.012   9.734   6.500
15797WAT     H247634   7.958   9.888   6.491
15798WAT      O47635   2.412   6.255   6.833
15798WAT     H147636   2.424   6.168   6.880
15798WAT     H247637   2.430   6.244   6.735
15799WAT      O47638   6.722   7.651   4.043
15799WAT     H147639   6.821   7.664   4.042
15799WAT     H247640   6.699   7.564   3.999
15800WAT      O47641   8.398   6.462   9.645
15800WAT     H147642   8.492   6.468   9.613
15800WAT     H247643   8.397   6.429   9.739
15801WAT      O47644   1.180   9.388   9.294
15801WAT     H147645   1.094   9.418   9.253
15801WAT     H247646   1.181   9.413   9.391
15802WAT      O47647   4.265   0.680   8.946
15802WAT     H147648   4.263   0.633   9.034
15802WAT     H247649   4.360   0.701   8.922
15803WAT      O47650   4.977   0.891   2.289
15803WAT     H147651   5.063   0.916   2.245
15803WAT     H247652   4.987   0.803   2.335
15804WAT      O47653   1.978   2.865   2.497
15804WAT     H147654   1.967   2.948   2.551
15804WAT     H247655   1.900   2.854   2.435
15805WAT      O47656   1.322   0.717   3.884
15805WAT     H147657   1.382   0.797   3.885
15805WAT     H247658   1.339   0.663   3.801
15806WAT      O47659   0.378   7.489   9.182
15806WAT     H147660   0.397   7.410   9.124
15806WAT     H247661   0.439   7.564   9.157
15807WAT      O47662   0.373   5.184   5.221
15807WAT     H147663   0.369   5.158   5.124
15807WAT     H247664   0.419   5.273   5.230
15808WAT      O47665   2.760   3.244   9.512
15808WAT     H147666   2.739   3.238   9.414
15808WAT     H247667   2.702   3.180   9.562
15809WAT      O47668   3.047   3.247   9.519
15809WAT     H147669   2.947   3.242   9.511
15809WAT     H247670   3.088   3.180   9.457
15810WAT      O47671   9.409   8.121   6.780
15810WAT     H147672   9.311   8.099   6.788
15810WAT     H247673   9.424   8.214   6.811
15811WAT      O47674   9.108   5.250   0.449
15811WAT     H147675   9.162   5.301   0.516
15811WAT     H247676   9.051   5.184   0.497
15812WAT      O47677   1.872   6.064   5.878
15812WAT     H147678   1.829   6.040   5.965
15812WAT     H247679   1.827   6.015   5.803
15813WAT      O47680   4.648   1.000   5.456
15813WAT     H147681   4.609   1.070   5.396
15813WAT     H247682   4.703   0.937   5.401
15814WAT      O47683   1.249   3.957   6.519
15814WAT     H147684   1.275   4.036   6.462
15814WAT     H247685   1.291   3.966   6.609
15815WAT      O47686   1.500   4.828   9.352
15815WAT     H147687   1.483   4.811   9.255
15815WAT     H247688   1.591   4.795   9.377
15816WAT      O47689   3.398   8.918   0.922
15816WAT     H147690   3.371   8.822   0.931
15816WAT     H247691   3.402   8.942   0.825
15817WAT      O47692   8.106   2.323   4.789
15817WAT     H147693   8.152   2.318   4.700
15817WAT     H247694   8.007   2.324   4.776
15818WAT      O47695   9.750   6.399   2.535
15818WAT     H147696   9.654   6.384   2.557
15818WAT     H247697   9.761   6.490   2.494
15819WAT      O47698   3.104   5.426   3.353
15819WAT     H147699   3.156   5.366   3.292
15819WAT     H247700   3.163   5.454   3.429
15820WAT      O47701   5.616   4.886   5.569
15820WAT     H147702   5.530   4.936   5.582
15820WAT     H247703   5.596   4.789   5.556
15821WAT      O47704   5.070   4.762   0.493
15821WAT     H147705   5.115   4.673   0.506
15821WAT     H247706   4.976   4.756   0.527
15822WAT      O47707   0.659   3.954   3.124
15822WAT     H147708   0.603   3.872   3.114
15822WAT     H247709   0.599   4.035   3.123
15823WAT      O47710   8.022   3.817   0.885
15823WAT     H147711   8.053   3.911   0.901
15823WAT     H247712   8.036   3.763   0.968
15824WAT      O47713   6.692   2.622   4.497
15824WAT     H147714   6.618   2.615   4.431
15824WAT     H247715   6.729   2.715   4.497
15825WAT      O47716   8.105   4.794   6.662
15825WAT     H147717   8.011   4.761   6.672
15825WAT     H247718   8.167   4.716   6.656
15826WAT      O47719   2.787   7.939   6.056
15826WAT     H147720   2.847   7.978   5.986
15826WAT     H247721   2.828   7.954   6.146
15827WAT      O47722   1.198   2.835   9.279
15827WAT     H147723   1.295   2.838   9.305
15827WAT     H247724   1.175   2.742   9.251
15828WAT      O47725   4.185   2.216   8.982
15828WAT     H147726   4.221   2.123   8.982
15828WAT     H247727   4.250   2.277   8.938
15829WAT      O47728   4.553   2.546   1.779
15829WAT     H147729   4.624   2.612   1.753
15829WAT     H247730   4.579   2.455   1.748
15830WAT      O47731   5.705   8.735   4.025
15830WAT     H147732   5.719   8.643   3.987
15830WAT     H247733   5.748   8.803   3.965
15831WAT      O47734   6.463   7.164   4.526
15831WAT     H147735   6.369   7.132   4.529
15831WAT     H247736   6.479   7.215   4.441
15832WAT      O47737   5.665   0.411   3.702
15832WAT     H147738   5.706   0.493   3.743
15832WAT     H247739   5.626   0.354   3.774
15833WAT      O47740   2.865   8.473   6.086
15833WAT     H147741   2.937   8.501   6.150
15833WAT     H247742   2.898   8.395   6.032
15834WAT      O47743   4.185   8.658   2.307
15834WAT     H147744   4.135   8.589   2.255
15834WAT     H247745   4.124   8.701   2.374
15835WAT      O47746   3.876   9.740   7.055
15835WAT     H147747   3.885   9.676   6.978
15835WAT     H247748   3.860   9.832   7.020
15836WAT      O47749   0.153   0.998   4.365
15836WAT     H147750   0.161   1.087   4.410
15836WAT     H247751   0.056   0.976   4.353
15837WAT      O47752   3.999   2.518   6.448
15837WAT     H147753   4.026   2.535   6.354
15837WAT     H247754   4.061   2.567   6.510
15838WAT      O47755   0.833   8.085   8.177
15838WAT     H147756   0.893   8.117   8.250
15838WAT     H247757   0.738   8.089   8.207
15839WAT      O47758   1.742   4.884   5.340
15839WAT     H147759   1.723   4.800   5.389
15839WAT     H247760   1.738   4.962   5.403
15840WAT      O47761   0.967   3.372   2.177
15840WAT     H147762   0.946   3.469   2.167
15840WAT     H247763   0.956   3.346   2.273
15841WAT      O47764   5.324   9.193   1.551
15841WAT     H147765   5.325   9.111   1.495
15841WAT     H247766   5.345   9.169   1.646
15842WAT      O47767   7.917   3.769   8.345
15842WAT     H147768   7.900   3.846   8.406
15842WAT     H247769   7.870   3.784   8.258
15843WAT      O47770   5.708   2.448   8.168
15843WAT     H147771   5.713   2.546   8.186
15843WAT     H247772   5.799   2.409   8.170
15844WAT      O47773   7.723   8.953   2.938
15844WAT     H147774   7.725   9.030   2.875
15844WAT     H247775   7.777   8.878   2.901
15845WAT      O47776   0.790   6.231   8.871
15845WAT     H147777   0.738   6.317   8.876
15845WAT     H247778   0.885   6.251   8.847
15846WAT      O47779   6.444   5.480   0.765
15846WAT     H147780   6.426   5.385   0.791
15846WAT     H247781   6.429   5.490   0.667
15847WAT      O47782   1.168   0.824   3.282
15847WAT     H147783   1.212   0.886   3.347
15847WAT     H247784   1.223   0.820   3.198
15848WAT      O47785   4.346   6.796   2.934
15848WAT     H147786   4.392   6.758   2.854
15848WAT     H247787   4.408   6.856   2.984
15849WAT      O47788   9.473   4.865   0.105
15849WAT     H147789   9.382   4.830   0.081
15849WAT     H247790   9.543   4.805   0.066
15850WAT      O47791   3.827   4.455   2.637
15850WAT     H147792   3.777   4.423   2.718
15850WAT     H247793   3.921   4.422   2.641
15851WAT      O47794   1.356   8.278   4.420
15851WAT     H147795   1.266   8.235   4.424
15851WAT     H247796   1.351   8.370   4.458
15852WAT      O47797   2.975   5.235   7.489
15852WAT     H147798   3.046   5.173   7.456
15852WAT     H247799   2.990   5.254   7.586
15853WAT      O47800   2.556   2.120   2.217
15853WAT     H147801   2.552   2.020   2.205
15853WAT     H247802   2.647   2.152   2.192
15854WAT      O47803   0.958   4.575   7.205
15854WAT     H147804   0.872   4.626   7.215
15854WAT     H247805   0.954   4.520   7.122
15855WAT      O47806   7.994   3.063   8.343
15855WAT     H147807   8.069   3.036   8.282
15855WAT     H247808   7.915   3.088   8.288
15856WAT      O47809   1.264   7.925   4.270
15856WAT     H147810   1.230   7.952   4.360
15856WAT     H247811   1.342   7.983   4.245
15857WAT      O47812   6.582   9.781   9.291
15857WAT     H147813   6.539   9.795   9.381
15857WAT     H247814   6.648   9.706   9.297
15858WAT      O47815   4.438   1.445   4.832
15858WAT     H147816   4.370   1.421   4.901
15858WAT     H247817   4.521   1.478   4.877
15859WAT      O47818   7.292   8.949   1.047
15859WAT     H147819   7.219   8.916   0.988
15859WAT     H247820   7.282   8.909   1.138
15860WAT      O47821   8.470   9.482   2.619
15860WAT     H147822   8.531   9.433   2.556
15860WAT     H247823   8.375   9.460   2.596
15861WAT      O47824   4.434   6.177   0.824
15861WAT     H147825   4.376   6.169   0.906
15861WAT     H247826   4.529   6.160   0.849
15862WAT      O47827   2.534   5.598   9.654
15862WAT     H147828   2.597   5.567   9.725
15862WAT     H247829   2.585   5.617   9.571
15863WAT      O47830   1.025   2.150   3.133
15863WAT     H147831   1.046   2.079   3.065
15863WAT     H247832   1.106   2.206   3.148
15864WAT      O47833   6.894   2.333   6.445
15864WAT     H147834   6.872   2.236   6.438
15864WAT     H247835   6.953   2.360   6.369
15865WAT      O47836   8.619   6.860   7.679
15865WAT     H147837   8.684   6.790   7.708
15865WAT     H247838   8.557   6.821   7.610
15866WAT      O47839   4.154   7.244   8.129
15866WAT     H147840   4.209   7.229   8.211
15866WAT     H247841   4.097   7.326   8.141
15867WAT      O47842   1.644   7.528   8.602
15867WAT     H147843   1.649   7.554   8.699
15867WAT     H247844   1.680   7.435   8.591
15868WAT      O47845   6.739   1.424   4.111
15868WAT     H147846   6.662   1.470   4.155
15868WAT     H247847   6.821   1.482   4.116
15869WAT      O47848   3.749   9.587   9.084
15869WAT     H147849   3.681   9.643   9.037
15869WAT     H247850   3.784   9.518   9.022
15870WAT      O47851   2.405   5.485   9.124
15870WAT     H147852   2.438   5.424   9.196
15870WAT     H247853   2.382   5.432   9.043
15871WAT      O47854   9.641   7.719   2.548
15871WAT     H147855   9.736   7.697   2.523
15871WAT     H247856   9.625   7.817   2.536
15872WAT      O47857   1.259   0.202   6.781
15872WAT     H147858   1.191   0.274   6.771
15872WAT     H247859   1.258   0.143   6.700
15873WAT      O47860   8.831   9.796   7.229
15873WAT     H147861   8.870   9.706   7.210
15873WAT     H247862   8.903   9.865   7.225
15874WAT      O47863   9.608   8.969   4.760
15874WAT     H147864   9.671   8.950   4.835
15874WAT     H247865   9.572   9.062   4.769
15875WAT      O47866   2.793   4.300   6.013
15875WAT     H147867   2.755   4.286   5.921
15875WAT     H247868   2.806   4.212   6.057
15876WAT      O47869   3.354   1.560   6.417
15876WAT     H147870   3.408   1.576   6.500
15876WAT     H247871   3.409   1.580   6.337
15877WAT      O47872   7.385   1.243   4.692
15877WAT     H147873   7.286   1.230   4.683
15877WAT     H247874   7.428   1.233   4.602
15878WAT      O47875   3.916   3.646   7.189
15878WAT     H147876   3.908   3.735   7.236
15878WAT     H247877   3.836   3.632   7.132
15879WAT      O47878   5.164   1.505   4.677
15879WAT     H147879   5.176   1.546   4.587
15879WAT     H247880   5.106   1.424   4.670
15880WAT      O47881   4.892   0.576   1.888
15880WAT     H147882   4.808   0.602   1.937
15880WAT     H247883   4.972   0.603   1.942
15881WAT      O47884   0.359   7.568   5.268
15881WAT     H147885   0.376   7.645   5.329
15881WAT     H247886   0.287   7.592   5.203
15882WAT      O47887   7.611   0.967   5.962
15882WAT     H147888   7.513   0.959   5.946
15882WAT     H247889   7.632   1.059   5.995
15883WAT      O47890   8.414   3.041   2.855
15883WAT     H147891   8.493   3.089   2.817
15883WAT     H247892   8.401   2.955   2.807
15884WAT      O47893   0.678   7.184   7.464
15884WAT     H147894   0.601   7.141   7.419
15884WAT     H247895   0.738   7.226   7.396
15885WAT      O47896   0.284   7.783   9.885
15885WAT     H147897   0.204   7.842   9.895
15885WAT     H247898   0.305   7.740   9.973
15886WAT      O47899   5.049   0.172   9.579
15886WAT     H147900   5.079   0.200   9.488
15886WAT     H247901   5.007   0.249   9.626
15887WAT      O47902   0.201   8.640   5.719
15887WAT     H147903   0.236   8.554   5.682
15887WAT     H247904   0.248   8.661   5.804
15888WAT      O47905   5.711   0.107   1.817
15888WAT     H147906   5.694   0.184   1.756
15888WAT     H247907   5.747   0.141   1.904
15889WAT      O47908   3.258   6.915   1.962
15889WAT     H147909   3.220   6.891   1.873
15889WAT     H247910   3.357   6.930   1.953
15890WAT      O47911   5.662   5.482   4.865
15890WAT     H147912   5.712   5.569   4.856
15890WAT     H247913   5.666   5.433   4.778
15891WAT      O47914   4.979   8.405   7.989
15891WAT     H147915   4.968   8.330   7.924
15891WAT     H247916   4.889   8.431   8.025
15892WAT      O47917   5.511   0.506   7.217
15892WAT     H147918   5.440   0.546   7.159
15892WAT     H247919   5.510   0.407   7.207
15893WAT      O47920   9.432   0.253   6.756
15893WAT     H147921   9.353   0.312   6.742
15893WAT     H247922   9.411   0.185   6.827
15894WAT      O47923   9.311   1.249   2.629
15894WAT     H147924   9.253   1.329   2.613
15894WAT     H247925   9.271   1.193   2.702
15895WAT      O47926   9.678   7.470   5.423
15895WAT     H147927   9.664   7.551   5.367
15895WAT     H247928   9.719   7.397   5.368
15896WAT      O47929   1.337   8.231   0.366
15896WAT     H147930   1.266   8.291   0.402
15896WAT     H247931   1.338   8.236   0.266
15897WAT      O47932   6.503   4.098   6.499
15897WAT     H147933   6.528   4.150   6.580
15897WAT     H247934   6.405   4.104   6.484
15898WAT      O47935   5.628   3.503   2.643
15898WAT     H147936   5.644   3.602   2.640
15898WAT     H247937   5.607   3.475   2.736
15899WAT      O47938   0.907   0.804   6.982
15899WAT     H147939   0.857   0.719   6.995
15899WAT     H247940   0.944   0.807   6.889
15900WAT      O47941   5.326   1.480   0.405
15900WAT     H147942   5.289   1.570   0.384
15900WAT     H247943   5.321   1.463   0.503
15901WAT      O47944   7.035   0.109   4.335
15901WAT     H147945   7.111   0.124   4.399
15901WAT     H247946   7.032   0.185   4.270
15902WAT      O47947   3.359   4.315   1.840
15902WAT     H147948   3.270   4.288   1.876
15902WAT     H247949   3.429   4.251   1.870
15903WAT      O47950   9.332   6.402   4.053
15903WAT     H147951   9.332   6.304   4.073
15903WAT     H247952   9.426   6.437   4.056
15904WAT      O47953   7.314   0.171   3.166
15904WAT     H147954   7.247   0.105   3.202
15904WAT     H247955   7.342   0.143   3.074
15905WAT      O47956   7.242   7.844   0.608
15905WAT     H147957   7.214   7.928   0.563
15905WAT     H247958   7.318   7.803   0.557
15906WAT      O47959   5.468   5.433   1.121
15906WAT     H147960   5.448   5.361   1.055
15906WAT     H247961   5.466   5.522   1.075
15907WAT      O47962   6.325   7.474   6.845
15907WAT     H147963   6.262   7.416   6.896
15907WAT     H247964   6.418   7.456   6.875
15908WAT      O47965   8.394   5.512   6.436
15908WAT     H147966   8.380   5.419   6.404
15908WAT     H247967   8.465   5.556   6.380
15909WAT      O47968   9.417   9.339   2.053
15909WAT     H147969   9.405   9.389   2.139
15909WAT     H247970   9.335   9.351   1.996
15910WAT      O47971   6.326   7.812   8.534
15910WAT     H147972   6.363   7.804   8.626
15910WAT     H247973   6.350   7.731   8.480
15911WAT      O47974   3.610   6.279   4.313
15911WAT     H147975   3.622   6.325   4.401
15911WAT     H247976   3.612   6.180   4.326
15912WAT      O47977   1.127   8.517   6.813
15912WAT     H147978   1.051   8.455   6.835
15912WAT     H247979   1.158   8.562   6.897
15913WAT      O47980   8.814   8.401   4.976
15913WAT     H147981   8.777   8.493   4.989
15913WAT     H247982   8.889   8.403   4.910
15914WAT      O47983   4.057   0.132   2.918
15914WAT     H147984   4.075   0.170   2.827
15914WAT     H247985   4.141   0.130   2.971
15915WAT      O47986   8.241   7.372   8.782
15915WAT     H147987   8.143   7.362   8.799
15915WAT     H247988   8.258   7.458   8.733
15916WAT      O47989   6.269   0.545   1.976
15916WAT     H147990   6.264   0.466   2.036
15916WAT     H247991   6.297   0.516   1.884
15917WAT      O47992   0.515   2.131   3.886
15917WAT     H147993   0.506   2.039   3.925
15917WAT     H247994   0.587   2.130   3.816
15918WAT      O47995   0.840   7.154   1.125
15918WAT     H147996   0.893   7.238   1.138
15918WAT     H247997   0.890   7.093   1.064
15919WAT      O47998   7.253   0.380   5.132
15919WAT     H147999   7.241   0.331   5.046
15919WAT     H248000   7.241   0.317   5.209
15920WAT      O48001   4.743   0.044   1.892
15920WAT     H148002   4.774  -0.008   1.972
15920WAT     H248003   4.822   0.078   1.841
15921WAT      O48004   3.445   0.093   3.051
15921WAT     H148005   3.479  -0.000   3.040
15921WAT     H248006   3.513   0.148   3.098
15922WAT      O48007   5.081   9.472   9.003
15922WAT     H148008   5.139   9.414   8.945
15922WAT     H248009   4.994   9.487   8.958
15923WAT      O48010   6.853   5.799   0.333
15923WAT     H148011   6.778   5.740   0.364
15923WAT     H248012   6.931   5.788   0.395
15924WAT      O48013   9.120   1.465   9.865
15924WAT     H148014   9.204   1.413   9.877
15924WAT     H248015   9.047   1.404   9.836
15925WAT      O48016   7.074   0.376   7.640
15925WAT     H148017   6.983   0.413   7.623
15925WAT     H248018   7.139   0.451   7.653
15926WAT      O48019   6.054   8.705   2.613
15926WAT     H148020   5.958   8.677   2.616
15926WAT     H248021   6.094   8.680   2.525
15927WAT      O48022   0.876   6.170   7.641
15927WAT     H148023   0.835   6.132   7.724
15927WAT     H248024   0.871   6.103   7.567
15928WAT      O48025   5.421   8.726   4.318
15928WAT     H148026   5.353   8.666   4.361
15928WAT     H248027   5.410   8.819   4.354
15929WAT      O48028   9.623   0.644   6.751
15929WAT     H148029   9.716   0.626   6.718
15929WAT     H248030   9.614   0.740   6.776
15930WAT      O48031   1.814   8.642   0.123
15930WAT     H148032   1.851   8.550   0.133
15930WAT     H248033   1.886   8.703   0.091
15931WAT      O48034   8.161   9.327   7.564
15931WAT     H148035   8.137   9.281   7.650
15931WAT     H248036   8.218   9.407   7.583
15932WAT      O48037   7.316   1.942   4.271
15932WAT     H148038   7.329   1.891   4.186
15932WAT     H248039   7.300   2.039   4.250
15933WAT      O48040   2.052   8.136   8.291
15933WAT     H148041   2.022   8.126   8.197
15933WAT     H248042   1.974   8.126   8.353
15934WAT      O48043   1.263   5.604   4.633
15934WAT     H148044   1.236   5.572   4.543
15934WAT     H248045   1.337   5.547   4.668
15935WAT      O48046   6.711   8.638   9.699
15935WAT     H148047   6.651   8.605   9.626
15935WAT     H248048   6.658   8.693   9.763
15936WAT      O48049   4.211   2.301   3.688
15936WAT     H148050   4.157   2.369   3.737
15936WAT     H248051   4.219   2.327   3.592
15937WAT      O48052   3.694   7.108   0.265
15937WAT     H148053   3.622   7.075   0.204
15937WAT     H248054   3.693   7.054   0.349
15938WAT      O48055   4.100   9.381   1.133
15938WAT     H148056   4.058   9.368   1.223
15938WAT     H248057   4.029   9.382   1.063
15939WAT      O48058   3.649   8.707   2.689
15939WAT     H148059   3.584   8.709   2.764
15939WAT     H248060   3.615   8.645   2.617
15940WAT      O48061   6.274   1.697   6.381
15940WAT     H148062   6.293   1.794   6.394
15940WAT     H248063   6.358   1.645   6.392
15941WAT      O48064   2.190   0.183   8.838
15941WAT     H148065   2.264   0.151   8.897
15941WAT     H248066   2.138   0.104   8.805
15942WAT      O48067   8.782   2.264   1.217
15942WAT     H148068   8.742   2.340   1.268
15942WAT     H248069   8.871   2.240   1.255
15943WAT      O48070   2.051   9.490   3.381
15943WAT     H148071   2.080   9.555   3.311
15943WAT     H248072   1.972   9.527   3.430
15944WAT      O48073   0.516   2.559   6.505
15944WAT     H148074   0.457   2.639   6.510
15944WAT     H248075   0.461   2.478   6.486
15945WAT      O48076   2.296   5.109   8.983
15945WAT     H148077   2.281   5.019   9.023
15945WAT     H248078   2.226   5.172   9.016
15946WAT      O48079   0.585   7.131   1.167
15946WAT     H148080   0.678   7.155   1.140
15946WAT     H248081   0.534   7.215   1.187
15947WAT      O48082   1.390   8.362   8.418
15947WAT     H148083   1.323   8.317   8.359
15947WAT     H248084   1.480   8.319   8.405
15948WAT      O48085   0.237   5.512   0.549
15948WAT     H148086   0.221   5.462   0.464
15948WAT     H248087   0.239   5.610   0.531
15949WAT      O48088   7.426   5.645   1.451
15949WAT     H148089   7.434   5.548   1.427
15949WAT     H248090   7.507   5.694   1.419
15950WAT      O48091   3.254   2.662   7.010
15950WAT     H148092   3.327   2.701   7.065
15950WAT     H248093   3.206   2.735   6.960
15951WAT      O48094   2.697   2.859   9.851
15951WAT     H148095   2.654   2.771   9.832
15951WAT     H248096   2.714   2.868   9.949
15952WAT      O48097   4.856   8.160   0.636
15952WAT     H148098   4.760   8.174   0.662
15952WAT     H248099   4.891   8.077   0.679
15953WAT      O48100   8.661   8.659   3.433
15953WAT     H148101   8.622   8.612   3.512
15953WAT     H248102   8.594   8.724   3.397
15954WAT      O48103   1.884   2.202   8.522
15954WAT     H148104   1.867   2.300   8.535
15954WAT     H248105   1.927   2.164   8.604
15955WAT      O48106   0.422   4.561   7.241
15955WAT     H148107   0.368   4.482   7.271
15955WAT     H248108   0.426   4.562   7.141
15956WAT      O48109   2.466   2.195   7.613
15956WAT     H148110   2.379   2.180   7.566
15956WAT     H248111   2.493   2.111   7.660
15957WAT      O48112   4.288   2.122   3.252
15957WAT     H148113   4.233   2.069   3.317
15957WAT     H248114   4.374   2.149   3.296
15958WAT      O48115   8.313   7.252   7.126
15958WAT     H148116   8.332   7.263   7.224
15958WAT     H248117   8.291   7.342   7.087
15959WAT      O48118   4.894   8.984   5.529
15959WAT     H148119   4.833   9.026   5.462
15959WAT     H248120   4.955   9.053   5.567
15960WAT      O48121   9.257   5.330   0.662
15960WAT     H148122   9.227   5.422   0.687
15960WAT     H248123   9.259   5.273   0.744
15961WAT      O48124   1.783   6.162   4.986
15961WAT     H148125   1.770   6.071   4.948
15961WAT     H248126   1.717   6.225   4.946
15962WAT      O48127   2.875   1.093   1.558
15962WAT     H148128   2.837   1.185   1.556
15962WAT     H248129   2.801   1.026   1.556
15963WAT      O48130   6.960   0.663   3.531
15963WAT     H148131   6.902   0.736   3.493
15963WAT     H248132   7.037   0.647   3.469
15964WAT      O48133   0.768   3.814   1.974
15964WAT     H148134   0.821   3.899   1.985
15964WAT     H248135   0.809   3.759   1.901
15965WAT      O48136   3.482   1.515   0.738
15965WAT     H148137   3.487   1.418   0.762
15965WAT     H248138   3.416   1.561   0.797
15966WAT      O48139   5.846   0.603   9.227
15966WAT     H148140   5.844   0.605   9.127
15966WAT     H248141   5.765   0.649   9.263
15967WAT      O48142   5.401   3.521   7.674
15967WAT     H148143   5.408   3.422   7.686
15967WAT     H248144   5.474   3.552   7.613
15968WAT      O48145   4.675   9.399   6.210
15968WAT     H148146   4.579   9.390   6.186
15968WAT     H248147   4.685   9.466   6.284
15969WAT      O48148   7.624   4.771   1.247
15969WAT     H148149   7.596   4.829   1.171
15969WAT     H248150   7.555   4.701   1.263
15970WAT      O48151   0.827   6.813   3.369
15970WAT     H148152   0.913   6.766   3.389
15970WAT     H248153   0.771   6.816   3.451
15971WAT      O48154   1.668   0.864   1.515
15971WAT     H148155   1.599   0.861   1.443
15971WAT     H248156   1.624   0.873   1.604
15972WAT      O48157   6.204   4.276   3.375
15972WAT     H148158   6.118   4.273   3.324
15972WAT     H248159   6.252   4.361   3.354
15973WAT      O48160   8.300   8.229   1.209
15973WAT     H148161   8.203   8.229   1.233
15973WAT     H248162   8.323   8.316   1.164
15974WAT      O48163   8.454   3.955   7.749
15974WAT     H148164   8.450   3.962   7.849
15974WAT     H248165   8.373   3.996   7.709
15975WAT      O48166   7.327   1.471   1.659
15975WAT     H148167   7.382   1.503   1.581
15975WAT     H248168   7.309   1.374   1.649
15976WAT      O48169   0.393   3.067   4.786
15976WAT     H148170   0.435   3.143   4.737
15976WAT     H248171   0.369   3.096   4.879
15977WAT      O48172   7.961  -0.000   7.292
15977WAT     H148173   7.866   0.023   7.271
15977WAT     H248174   7.991   0.053   7.371
15978WAT      O48175   0.121   7.625   8.232
15978WAT     H148176   0.102   7.650   8.327
15978WAT     H248177   0.078   7.536   8.213
15979WAT      O48178   1.857   2.562   6.843
15979WAT     H148179   1.851   2.475   6.794
15979WAT     H248180   1.871   2.637   6.778
15980WAT      O48181   2.171   7.620   8.443
15980WAT     H148182   2.108   7.678   8.391
15980WAT     H248183   2.246   7.676   8.479
15981WAT      O48184   5.092   4.374   0.914
15981WAT     H148185   5.067   4.346   0.822
15981WAT     H248186   5.107   4.473   0.917
15982WAT      O48187   5.577   9.582   3.708
15982WAT     H148188   5.664   9.546   3.674
15982WAT     H248189   5.577   9.682   3.700
15983WAT      O48190   3.134   0.420   4.066
15983WAT     H148191   3.068   0.356   4.028
15983WAT     H248192   3.150   0.494   4.000
15984WAT      O48193   0.331   2.458   0.596
15984WAT     H148194   0.276   2.520   0.540
15984WAT     H248195   0.357   2.378   0.543
15985WAT      O48196   9.510   7.575   5.233
15985WAT     H148197   9.571   7.583   5.154
15985WAT     H248198   9.428   7.630   5.217
15986WAT      O48199   0.706   3.099   8.007
15986WAT     H148200   0.764   3.166   8.054
15986WAT     H248201   0.641   3.147   7.949
15987WAT      O48202   6.368   7.634   6.634
15987WAT     H148203   6.366   7.586   6.723
15987WAT     H248204   6.390   7.730   6.649
15988WAT      O48205   4.880   4.605   2.570
15988WAT     H148206   4.783   4.626   2.584
15988WAT     H248207   4.928   4.686   2.536
15989WAT      O48208   5.247   6.034   4.889
15989WAT     H148209   5.266   6.103   4.959
15989WAT     H248210   5.292   5.948   4.915
15990WAT      O48211   3.158   6.895   9.809
15990WAT     H148212   3.189   6.990   9.814
15990WAT     H248213   3.133   6.874   9.714
15991WAT      O48214   3.883   6.178   7.299
15991WAT     H148215   3.872   6.234   7.217
15991WAT     H248216   3.864   6.082   7.277
15992WAT      O48217   7.090   2.233   5.326
15992WAT     H148218   7.144   2.164   5.278
15992WAT     H248219   7.146   2.278   5.396
15993WAT      O48220   5.194   6.545   0.560
15993WAT     H148221   5.245   6.474   0.608
15993WAT     H248222   5.246   6.630   0.561
15994WAT      O48223   7.448   1.173   0.958
15994WAT     H148224   7.514   1.222   1.015
15994WAT     H248225   7.395   1.239   0.904
15995WAT      O48226   4.247   8.544   2.650
15995WAT     H148227   4.327   8.604   2.659
15995WAT     H248228   4.186   8.581   2.580
15996WAT      O48229   0.446   9.799   7.762
15996WAT     H148230   0.512   9.795   7.687
15996WAT     H248231   0.354   9.780   7.727
15997WAT      O48232   6.710   5.510   4.832
15997WAT     H148233   6.649   5.479   4.760
15997WAT     H248234   6.798   5.538   4.792
15998WAT      O48235   4.392   7.334   0.802
15998WAT     H148236   4.315   7.397   0.808
15998WAT     H248237   4.360   7.244   0.771
15999WAT      O48238   4.580   1.612   1.445
15999WAT     H148239   4.678   1.593   1.458
15999WAT     H248240   4.538   1.539   1.392
16000WAT      O48241   0.398   6.555   1.938
16000WAT     H148242   0.304   6.579   1.913
16000WAT     H248243   0.424   6.603   2.022
16001WAT      O48244   5.064   0.377   6.458
16001WAT     H148245   5.080   0.443   6.385
16001WAT     H248246   5.003   0.416   6.526
16002WAT      O48247   5.120   9.597   6.557
16002WAT     H148248   5.095   9.650   6.476
16002WAT     H248249   5.103   9.651   6.639
16003WAT      O48250   7.950   2.538   1.937
16003WAT     H148251   8.012   2.615   1.922
16003WAT     H248252   7.952   2.512   2.034
16004WAT      O48253   6.477   3.013   6.565
16004WAT     H148254   6.546   3.022   6.637
16004WAT     H248255   6.458   2.916   6.549
16005WAT      O48256   7.476   3.734   1.679
16005WAT     H148257   7.465   3.758   1.582
16005WAT     H248258   7.477   3.818   1.734
16006WAT      O48259   5.178   8.752   0.128
16006WAT     H148260   5.092   8.755   0.078
16006WAT     H248261   5.253   8.778   0.066
16007WAT      O48262   6.309   2.406   2.939
16007WAT     H148263   6.262   2.494   2.950
16007WAT     H248264   6.383   2.399   3.006
16008WAT      O48265   6.659   0.005   6.675
16008WAT     H148266   6.630  -0.063   6.609
16008WAT     H248267   6.727   0.066   6.633
16009WAT      O48268   2.430   6.782   9.662
16009WAT     H148269   2.405   6.783   9.758
16009WAT     H248270   2.400   6.868   9.619
16010WAT      O48271   8.262   9.433   0.137
16010WAT     H148272   8.202   9.353   0.129
16010WAT     H248273   8.208   9.517   0.130
16011WAT      O48274   6.921   1.373   3.904
16011WAT     H148275   6.955   1.278   3.905
16011WAT     H248276   6.844   1.381   3.966
16012WAT      O48277   0.927   1.616   6.076
16012WAT     H148278   0.999   1.549   6.098
16012WAT     H248279   0.953   1.667   5.994
16013WAT      O48280   6.835   8.926   5.707
16013WAT     H148281   6.742   8.960   5.691
16013WAT     H248282   6.896   9.003   5.726
16014WAT      O48283   6.571   3.392   1.938
16014WAT     H148284   6.629   3.321   1.899
16014WAT     H248285   6.522   3.356   2.017
16015WAT      O48286   2.844   4.818   6.995
16015WAT     H148287   2.752   4.854   7.015
16015WAT     H248288   2.911   4.865   7.052
16016WAT      O48289   2.793   1.575   4.499
16016WAT     H148290   2.856   1.507   4.536
16016WAT     H248291   2.700   1.538   4.499
16017WAT      O48292   1.585   7.988   0.782
16017WAT     H148293   1.519   8.032   0.722
16017WAT     H248294   1.557   7.999   0.877
16018WAT      O48295   6.401   8.973   1.986
16018WAT     H148296   6.400   8.999   2.083
16018WAT     H248297   6.387   8.875   1.978
16019WAT      O48298   3.926   2.650   5.416
16019WAT     H148299   3.923   2.655   5.516
16019WAT     H248300   3.839   2.681   5.378
16020WAT      O48301   9.492   4.646   5.874
16020WAT     H148302   9.553   4.575   5.841
16020WAT     H248303   9.399   4.627   5.843
16021WAT      O48304   5.369   8.840   9.839
16021WAT     H148305   5.408   8.927   9.870
16021WAT     H248306   5.374   8.835   9.739
16022WAT      O48307   2.416   8.395   8.336
16022WAT     H148308   2.449   8.378   8.243
16022WAT     H248309   2.465   8.473   8.375
16023WAT      O48310   6.249   3.706   3.898
16023WAT     H148311   6.262   3.740   3.805
16023WAT     H248312   6.254   3.782   3.962
16024WAT      O48313   1.775   2.765   4.922
16024WAT     H148314   1.749   2.821   4.843
16024WAT     H248315   1.753   2.814   5.006
16025WAT      O48316   9.541   1.599   9.542
16025WAT     H148317   9.577   1.564   9.628
16025WAT     H248318   9.603   1.668   9.505
16026WAT      O48319   5.422   7.767   1.608
16026WAT     H148320   5.466   7.819   1.682
16026WAT     H248321   5.326   7.751   1.631
16027WAT      O48322   0.673   1.687   5.996
16027WAT     H148323   0.703   1.695   6.091
16027WAT     H248324   0.745   1.645   5.942
16028WAT      O48325   4.149   6.238   3.312
16028WAT     H148326   4.180   6.319   3.263
16028WAT     H248327   4.217   6.214   3.382
16029WAT      O48328   0.616   0.474   5.962
16029WAT     H148329   0.540   0.533   5.936
16029WAT     H248330   0.582   0.396   6.014
16030WAT      O48331   6.184   6.955   4.114
16030WAT     H148332   6.273   6.913   4.127
16030WAT     H248333   6.115   6.884   4.099
16031WAT      O48334   2.879   8.144   7.065
16031WAT     H148335   2.864   8.045   7.066
16031WAT     H248336   2.791   8.191   7.064
16032WAT      O48337   3.929   5.822   6.278
16032WAT     H148338   3.839   5.849   6.243
16032WAT     H248339   3.917   5.767   6.361
16033WAT      O48340   5.880   4.817   4.966
16033WAT     H148341   5.832   4.749   5.022
16033WAT     H248342   5.852   4.909   4.993
16034WAT      O48343   4.496   8.754   5.391
16034WAT     H148344   4.421   8.776   5.329
16034WAT     H248345   4.460   8.713   5.475
16035WAT      O48346   1.099   5.853   4.268
16035WAT     H148347   1.135   5.945   4.282
16035WAT     H248348   1.021   5.839   4.329
16036WAT      O48349   1.219   3.995   1.215
16036WAT     H148350   1.191   3.906   1.179
16036WAT     H248351   1.319   3.995   1.229
16037WAT      O48352   2.164   0.892   2.341
16037WAT     H148353   2.262   0.884   2.361
16037WAT     H248354   2.114   0.908   2.426
16038WAT      O48355   6.464   7.091   3.313
16038WAT     H148356   6.489   7.185   3.293
16038WAT     H248357   6.424   7.085   3.404
16039WAT      O48358   9.647   7.458   4.218
16039WAT     H148359   9.639   7.558   4.217
16039WAT     H248360   9.742   7.432   4.202
16040WAT      O48361   1.828   9.383   9.537
16040WAT     H148362   1.750   9.384   9.475
16040WAT     H248363   1.903   9.435   9.496
16041WAT      O48364   2.689   6.801   7.867
16041WAT     H148365   2.752   6.845   7.931
16041WAT     H248366   2.732   6.719   7.830
16042WAT      O48367   2.948   2.344   6.820
16042WAT     H148368   2.957   2.394   6.906
16042WAT     H248369   2.999   2.259   6.824
16043WAT      O48370   1.832   3.958   2.915
16043WAT     H148371   1.905   4.009   2.870
16043WAT     H248372   1.792   4.014   2.988
16044WAT      O48373   6.610   4.497   6.411
16044WAT     H148374   6.635   4.401   6.426
16044WAT     H248375   6.680   4.556   6.450
16045WAT      O48376   3.749   4.607   0.630
16045WAT     H148377   3.829   4.548   0.639
16045WAT     H248378   3.742   4.638   0.535
16046WAT      O48379   3.002   9.437   6.300
16046WAT     H148380   2.923   9.442   6.361
16046WAT     H248381   3.002   9.349   6.253
16047WAT      O48382   8.557   4.222   6.162
16047WAT     H148383   8.501   4.300   6.133
16047WAT     H248384   8.610   4.247   6.243
16048WAT      O48385   7.369   9.483   1.902
16048WAT     H148386   7.310   9.403   1.911
16048WAT     H248387   7.355   9.525   1.813
16049WAT      O48388   5.376   8.965   7.382
16049WAT     H148389   5.430   9.021   7.445
16049WAT     H248390   5.310   9.023   7.335
16050WAT      O48391   0.406   6.033   0.983
16050WAT     H148392   0.310   6.042   1.009
16050WAT     H248393   0.418   5.951   0.926
16051WAT      O48394   4.213   5.790   3.785
16051WAT     H148395   4.197   5.888   3.797
16051WAT     H248396   4.197   5.765   3.689
16052WAT      O48397   7.526   6.766   5.636
16052WAT     H148398   7.460   6.720   5.695
16052WAT     H248399   7.510   6.739   5.541
16053WAT      O48400   4.328   6.330   1.622
16053WAT     H148401   4.348   6.234   1.603
16053WAT     H248402   4.343   6.385   1.540
16054WAT      O48403   4.304   1.820   1.513
16054WAT     H148404   4.246   1.848   1.589
16054WAT     H248405   4.311   1.720   1.510
16055WAT      O48406   9.072   2.410   4.546
16055WAT     H148407   9.078   2.508   4.529
16055WAT     H248408   9.154   2.380   4.596
16056WAT      O48409   5.268   4.424   2.759
16056WAT     H148410   5.183   4.380   2.728
16056WAT     H248411   5.304   4.480   2.685
16057WAT      O48412   4.174   2.802   1.696
16057WAT     H148413   4.193   2.896   1.724
16057WAT     H248414   4.102   2.802   1.626
16058WAT      O48415   1.539   9.846   7.469
16058WAT     H148416   1.621   9.839   7.413
16058WAT     H248417   1.492   9.758   7.471
16059WAT      O48418   7.324   5.959   5.806
16059WAT     H148419   7.250   6.013   5.848
16059WAT     H248420   7.385   6.020   5.756
16060WAT      O48421   8.954   6.502   7.502
16060WAT     H148422   8.878   6.510   7.566
16060WAT     H248423   8.953   6.411   7.460
16061WAT      O48424   2.945   6.487   8.342
16061WAT     H148425   3.036   6.445   8.348
16061WAT     H248426   2.889   6.454   8.418
16062WAT      O48427   9.058   2.681   4.577
16062WAT     H148428   9.104   2.716   4.495
16062WAT     H248429   9.103   2.717   4.658
16063WAT      O48430   0.642   9.016   5.679
16063WAT     H148431   0.669   9.039   5.585
16063WAT     H248432   0.635   9.100   5.733
16064WAT      O48433   9.576   4.668   6.144
16064WAT     H148434   9.511   4.632   6.210
16064WAT     H248435   9.562   4.623   6.055
16065WAT      O48436   0.145   9.302   3.486
16065WAT     H148437   0.117   9.376   3.547
16065WAT     H248438   0.094   9.309   3.400
16066WAT      O48439   1.286   1.694   5.362
16066WAT     H148440   1.270   1.785   5.323
16066WAT     H248441   1.240   1.626   5.305
16067WAT      O48442   6.960   4.378   0.576
16067WAT     H148443   6.901   4.297   0.566
16067WAT     H248444   6.993   4.407   0.486
16068WAT      O48445   9.842   1.273   3.795
16068WAT     H148446   9.816   1.305   3.887
16068WAT     H248447   9.893   1.345   3.748
16069WAT      O48448   0.780   6.632   4.126
16069WAT     H148449   0.802   6.542   4.088
16069WAT     H248450   0.748   6.621   4.220
16070WAT      O48451   8.382   6.311   4.126
16070WAT     H148452   8.399   6.398   4.172
16070WAT     H248453   8.468   6.274   4.090
16071WAT      O48454   0.590   9.472   4.056
16071WAT     H148455   0.508   9.457   4.113
16071WAT     H248456   0.563   9.476   3.960
16072WAT      O48457   2.357   2.949   1.615
16072WAT     H148458   2.306   2.966   1.530
16072WAT     H248459   2.447   2.991   1.609
16073WAT      O48460   1.767   1.375   8.083
16073WAT     H148461   1.834   1.304   8.057
16073WAT     H248462   1.684   1.364   8.028
16074WAT      O48463   7.472   6.555   1.219
16074WAT     H148464   7.455   6.457   1.227
16074WAT     H248465   7.407   6.595   1.154
16075WAT      O48466   3.483   2.991   3.313
16075WAT     H148467   3.409   2.970   3.249
16075WAT     H248468   3.474   3.085   3.345
16076WAT      O48469   2.651   2.477   6.261
16076WAT     H148470   2.641   2.463   6.359
16076WAT     H248471   2.712   2.407   6.223
16077WAT      O48472   5.373   3.487   8.979
16077WAT     H148473   5.323   3.527   8.902
16077WAT     H248474   5.427   3.558   9.024
16078WAT      O48475   5.796   9.707   8.491
16078WAT     H148476   5.779   9.686   8.588
16078WAT     H248477   5.846   9.631   8.449
16079WAT      O48478   1.463   0.318   7.628
16079WAT     H148479   1.492   0.384   7.558
16079WAT     H248480   1.462   0.363   7.717
16080WAT      O48481   9.032   7.032   2.791
16080WAT     H148482   9.063   6.977   2.869
16080WAT     H248483   9.017   6.972   2.712
16081WAT      O48484   9.239   4.464   3.225
16081WAT     H148485   9.218   4.372   3.259
16081WAT     H248486   9.175   4.530   3.265
16082WAT      O48487   1.507   6.314   1.692
16082WAT     H148488   1.601   6.313   1.659
16082WAT     H248489   1.445   6.335   1.617
16083WAT      O48490   1.997   4.327   5.160
16083WAT     H148491   1.947   4.330   5.074
16083WAT     H248492   1.985   4.413   5.209
16084WAT      O48493   6.188   0.474   8.286
16084WAT     H148494   6.123   0.398   8.289
16084WAT     H248495   6.204   0.508   8.378
16085WAT      O48496   5.262   7.964   0.071
16085WAT     H148497   5.320   7.953  -0.009
16085WAT     H248498   5.314   8.008   0.144
16086WAT      O48499   7.117   5.308   8.297
16086WAT     H148500   7.071   5.366   8.364
16086WAT     H248501   7.207   5.283   8.331
16087WAT      O48502   1.296   9.259   9.765
16087WAT     H148503   1.360   9.289   9.836
16087WAT     H248504   1.205   9.297   9.784
16088WAT      O48505   3.188   2.034   4.859
16088WAT     H148506   3.267   2.094   4.871
16088WAT     H248507   3.207   1.944   4.897
16089WAT      O48508   7.455   5.554   9.395
16089WAT     H148509   7.407   5.640   9.414
16089WAT     H248510   7.517   5.567   9.318
16090WAT      O48511   1.106   0.419   8.775
16090WAT     H148512   1.055   0.354   8.831
16090WAT     H248513   1.123   0.379   8.685
16091WAT      O48514   5.137   6.579   0.307
16091WAT     H148515   5.130   6.573   0.407
16091WAT     H248516   5.190   6.502   0.272
16092WAT      O48517   8.329   2.897   7.363
16092WAT     H148518   8.405   2.941   7.410
16092WAT     H248519   8.295   2.820   7.418
16093WAT      O48520   6.271   3.134   9.065
16093WAT     H148521   6.200   3.065   9.050
16093WAT     H248522   6.231   3.225   9.058
16094WAT      O48523   0.086   6.725   0.910
16094WAT     H148524   0.078   6.638   0.861
16094WAT     H248525   0.181   6.756   0.906
16095WAT      O48526   3.746   2.272   4.379
16095WAT     H148527   3.764   2.351   4.439
16095WAT     H248528   3.826   2.211   4.380
16096WAT      O48529   4.768   9.454   0.250
16096WAT     H148530   4.821   9.370   0.235
16096WAT     H248531   4.671   9.434   0.243
16097WAT      O48532   0.433   8.894   6.056
16097WAT     H148533   0.407   8.921   5.963
16097WAT     H248534   0.451   8.975   6.111
16098WAT      O48535   2.864   4.801   3.401
16098WAT     H148536   2.775   4.808   3.357
16098WAT     H248537   2.866   4.857   3.483
16099WAT      O48538   9.705   0.134   4.219
16099WAT     H148539   9.667   0.201   4.155
16099WAT     H248540   9.796   0.165   4.248
16100WAT      O48541   3.604   5.550   8.114
16100WAT     H148542   3.594   5.610   8.035
16100WAT     H248543   3.666   5.475   8.091
16101WAT      O48544   2.117   7.414   8.225
16101WAT     H148545   2.022   7.418   8.255
16101WAT     H248546   2.176   7.450   8.297
16102WAT      O48547   8.159   0.117   9.894
16102WAT     H148548   8.060   0.119   9.910
16102WAT     H248549   8.182   0.037   9.839
16103WAT      O48550   8.089   1.998   2.833
16103WAT     H148551   8.022   2.066   2.864
16103WAT     H248552   8.042   1.911   2.815
16104WAT      O48553   3.495   6.208   8.530
16104WAT     H148554   3.529   6.264   8.455
16104WAT     H248555   3.402   6.177   8.510
16105WAT      O48556   5.390   6.906   8.100
16105WAT     H148557   5.459   6.895   8.028
16105WAT     H248558   5.405   6.993   8.147
16106WAT      O48559   2.333   9.252   3.913
16106WAT     H148560   2.243   9.216   3.937
16106WAT     H248561   2.353   9.229   3.817
16107WAT      O48562   5.961   2.354   8.185
16107WAT     H148563   5.991   2.259   8.180
16107WAT     H248564   6.020   2.411   8.127
16108WAT      O48565   7.725   2.718   7.095
16108WAT     H148566   7.641   2.694   7.046
16108WAT     H248567   7.702   2.737   7.191
16109WAT      O48568   9.291   5.131   8.661
16109WAT     H148569   9.325   5.219   8.693
16109WAT     H248570   9.367   5.068   8.648
16110WAT      O48571   0.560   6.821   4.520
16110WAT     H148572   0.494   6.874   4.466
16110WAT     H248573   0.513   6.775   4.595
16111WAT      O48574   8.645   6.802   0.691
16111WAT     H148575   8.602   6.744   0.622
16111WAT     H248576   8.732   6.837   0.655
16112WAT      O48577   8.324   7.620   6.375
16112WAT     H148578   8.285   7.544   6.324
16112WAT     H248579   8.423   7.607   6.384
16113WAT      O48580   8.632   7.080   9.561
16113WAT     H148581   8.553   7.141   9.549
16113WAT     H248582   8.601   6.985   9.558
16114WAT      O48583   3.859   7.157   8.786
16114WAT     H148584   3.936   7.184   8.728
16114WAT     H248585   3.850   7.221   8.862
16115WAT      O48586   6.342   8.935   7.478
16115WAT     H148587   6.302   9.004   7.416
16115WAT     H248588   6.409   8.881   7.428
16116WAT      O48589   3.525   2.621   4.688
16116WAT     H148590   3.443   2.572   4.717
16116WAT     H248591   3.499   2.710   4.650
16117WAT      O48592   4.648   3.494   3.899
16117WAT     H148593   4.610   3.549   3.825
16117WAT     H248594   4.589   3.500   3.979
16118WAT      O48595   1.466   8.115   9.283
16118WAT     H148596   1.447   8.060   9.202
16118WAT     H248597   1.387   8.173   9.303
16119WAT      O48598   1.781   7.256   8.563
16119WAT     H148599   1.834   7.226   8.642
16119WAT     H248600   1.710   7.188   8.544
16120WAT      O48601   5.256   4.448   1.307
16120WAT     H148602   5.206   4.500   1.238
16120WAT     H248603   5.315   4.510   1.358
16121WAT      O48604   1.281   1.017   0.997
16121WAT     H148605   1.288   1.065   0.910
16121WAT     H248606   1.287   0.919   0.982
16122WAT      O48607   2.892   6.614   0.980
16122WAT     H148608   2.886   6.669   0.896
16122WAT     H248609   2.977   6.561   0.978
16123WAT      O48610   2.057   6.551   9.679
16123WAT     H148611   2.141   6.500   9.695
16123WAT     H248612   2.075   6.649   9.685
16124WAT      O48613   5.880   0.939   8.348
16124WAT     H148614   5.928   0.863   8.303
16124WAT     H248615   5.945   0.991   8.403
16125WAT      O48616   0.252   6.758   7.624
16125WAT     H148617   0.204   6.821   7.563
16125WAT     H248618   0.195   6.738   7.703
16126WAT      O48619   6.797   6.163   8.261
16126WAT     H148620   6.757   6.230   8.324
16126WAT     H248621   6.887   6.135   8.294
16127WAT      O48622   4.884   8.857   3.979
16127WAT     H148623   4.943   8.889   3.906
16127WAT     H248624   4.919   8.771   4.016
16128WAT      O48625   5.892   6.184   0.621
16128WAT     H148626   5.816   6.236   0.660
16128WAT     H248627   5.970   6.244   0.609
16129WAT      O48628   6.399   5.922   5.655
16129WAT     H148629   6.315   5.872   5.634
16129WAT     H248630   6.389   6.017   5.624
16130WAT      O48631   5.587   7.108   9.498
16130WAT     H148632   5.501   7.064   9.523
16130WAT     H248633   5.661   7.041   9.502
16131WAT      O48634   1.458   7.644   1.148
16131WAT     H148635   1.408   7.602   1.072
16131WAT     H248636   1.449   7.743   1.143
16132WAT      O48637   0.510   4.278   3.408
16132WAT     H148638   0.518   4.336   3.327
16132WAT     H248639   0.600   4.240   3.431
16133WAT      O48640   0.474   6.453   2.250
16133WAT     H148641   0.375   6.464   2.243
16133WAT     H248642   0.505   6.384   2.184
16134WAT      O48643   0.048   5.050   8.064
16134WAT     H148644   0.148   5.052   8.066
16134WAT     H248645   0.017   4.968   8.018
16135WAT      O48646   8.638   8.280   3.358
16135WAT     H148647   8.709   8.337   3.397
16135WAT     H248648   8.631   8.194   3.409
16136WAT      O48649   6.098   9.027   4.011
16136WAT     H148650   6.071   8.933   4.031
16136WAT     H248651   6.019   9.087   4.022
16137WAT      O48652   8.851   6.790   2.425
16137WAT     H148653   8.853   6.720   2.497
16137WAT     H248654   8.762   6.791   2.381
16138WAT      O48655   3.500   5.670   1.635
16138WAT     H148656   3.588   5.702   1.601
16138WAT     H248657   3.430   5.683   1.565
16139WAT      O48658   1.119   8.336   2.771
16139WAT     H148659   1.100   8.290   2.684
16139WAT     H248660   1.206   8.303   2.807
16140WAT      O48661   8.771   7.636   6.600
16140WAT     H148662   8.794   7.541   6.620
16140WAT     H248663   8.854   7.692   6.602
16141WAT      O48664   6.125   6.401   1.018
16141WAT     H148665   6.121   6.482   0.961
16141WAT     H248666   6.205   6.346   0.992
16142WAT      O48667   8.267   2.876   9.750
16142WAT     H148668   8.257   2.811   9.825
16142WAT     H248669   8.241   2.968   9.782
16143WAT      O48670   5.746   9.022   3.634
16143WAT     H148671   5.833   9.059   3.601
16143WAT     H248672   5.714   8.951   3.572
16144WAT      O48673   0.247   3.144   7.172
16144WAT     H148674   0.313   3.075   7.200
16144WAT     H248675   0.241   3.146   7.072
16145WAT      O48676   8.322   1.887   4.715
16145WAT     H148677   8.260   1.953   4.756
16145WAT     H248678   8.367   1.833   4.787
16146WAT      O48679   7.011   7.199   8.122
16146WAT     H148680   6.945   7.149   8.066
16146WAT     H248681   7.018   7.156   8.212
16147WAT      O48682   6.387   3.211   5.603
16147WAT     H148683   6.300   3.163   5.587
16147WAT     H248684   6.396   3.286   5.537
16148WAT      O48685   8.898   4.744   8.444
16148WAT     H148686   8.942   4.770   8.357
16148WAT     H248687   8.905   4.820   8.509
16149WAT      O48688   2.869   9.648   6.161
16149WAT     H148689   2.892   9.743   6.178
16149WAT     H248690   2.891   9.593   6.241
16150WAT      O48691   5.013   8.927   7.662
16150WAT     H148692   4.915   8.932   7.684
16150WAT     H248693   5.048   8.837   7.686
16151WAT      O48694   5.958   8.538   9.475
16151WAT     H148695   5.966   8.440   9.454
16151WAT     H248696   6.039   8.568   9.525
16152WAT      O48697   8.272   8.469   9.048
16152WAT     H148698   8.253   8.518   8.963
16152WAT     H248699   8.304   8.376   9.027
16153WAT      O48700   9.047   5.556   7.470
16153WAT     H148701   9.008   5.468   7.442
16153WAT     H248702   9.142   5.562   7.440
16154WAT      O48703   7.354   2.271   7.207
16154WAT     H148704   7.424   2.200   7.205
16154WAT     H248705   7.271   2.234   7.248
16155WAT      O48706   0.918   2.714   4.574
16155WAT     H148707   0.912   2.812   4.592
16155WAT     H248708   1.005   2.679   4.611
16156WAT      O48709   6.548   4.303   4.026
16156WAT     H148710   6.467   4.295   3.967
16156WAT     H248711   6.610   4.371   3.987
16157WAT      O48712   2.939   3.944   3.191
16157WAT     H148713   2.984   3.855   3.193
16157WAT     H248714   2.916   3.972   3.284
16158WAT      O48715   0.916   7.076   6.699
16158WAT     H148716   0.824   7.114   6.704
16158WAT     H248717   0.975   7.136   6.645
16159WAT      O48718   7.590   8.319   7.522
16159WAT     H148719   7.625   8.285   7.610
16159WAT     H248720   7.580   8.243   7.459
16160WAT      O48721   9.346   5.353   1.913
16160WAT     H148722   9.282   5.411   1.863
16160WAT     H248723   9.301   5.268   1.939
16161WAT      O48724   2.870   6.067   6.994
16161WAT     H148725   2.954   6.121   6.994
16161WAT     H248726   2.809   6.099   7.066
16162WAT      O48727   9.280   7.232   1.619
16162WAT     H148728   9.284   7.321   1.664
16162WAT     H248729   9.298   7.244   1.521
16163WAT      O48730   8.735   8.286   7.265
16163WAT     H148731   8.659   8.257   7.323
16163WAT     H248732   8.807   8.325   7.322
16164WAT      O48733   2.942   0.561   0.362
16164WAT     H148734   2.989   0.518   0.440
16164WAT     H248735   2.886   0.636   0.396
16165WAT      O48736   4.579   8.601   7.039
16165WAT     H148737   4.631   8.651   6.968
16165WAT     H248738   4.488   8.579   7.004
16166WAT      O48739   5.642   5.175   7.101
16166WAT     H148740   5.677   5.268   7.112
16166WAT     H248741   5.587   5.150   7.180
16167WAT      O48742   7.839   5.048   8.010
16167WAT     H148743   7.889   5.097   8.081
16167WAT     H248744   7.740   5.058   8.027
16168WAT      O48745   3.820   1.407   5.227
16168WAT     H148746   3.852   1.472   5.157
16168WAT     H248747   3.722   1.391   5.216
16169WAT      O48748   3.827   1.111   6.984
16169WAT     H148749   3.786   1.192   6.943
16169WAT     H248750   3.787   1.029   6.943
16170WAT      O48751   0.489   4.036   4.989
16170WAT     H148752   0.439   4.076   5.066
16170WAT     H248753   0.536   4.108   4.939
16171WAT      O48754   8.700   3.083   3.690
16171WAT     H148755   8.635   3.010   3.710
16171WAT     H248756   8.782   3.072   3.747
16172WAT      O48757   8.304   8.894   5.136
16172WAT     H148758   8.252   8.957   5.078
16172WAT     H248759   8.265   8.892   5.228
16173WAT      O48760   8.400   0.757   2.042
16173WAT     H148761   8.388   0.768   1.944
16173WAT     H248762   8.435   0.843   2.081
16174WAT      O48763   4.777   1.782   9.882
16174WAT     H148764   4.718   1.794   9.962
16174WAT     H248765   4.734   1.824   9.802
16175WAT      O48766   0.551   3.087   6.244
16175WAT     H148767   0.622   3.088   6.314
16175WAT     H248768   0.517   2.994   6.233
16176WAT      O48769   8.166   3.186   8.909
16176WAT     H148770   8.171   3.212   9.005
16176WAT     H248771   8.236   3.236   8.857
16177WAT      O48772   2.663   0.698   8.404
16177WAT     H148773   2.602   0.629   8.443
16177WAT     H248774   2.624   0.732   8.318
16178WAT      O48775   7.393   0.540   4.123
16178WAT     H148776   7.369   0.527   4.219
16178WAT     H248777   7.488   0.512   4.109
16179WAT      O48778   7.324   4.325   5.072
16179WAT     H148779   7.242   4.270   5.059
16179WAT     H248780   7.308   4.418   5.039
16180WAT      O48781   5.713   4.644   2.935
16180WAT     H148782   5.730   4.550   2.966
16180WAT     H248783   5.766   4.707   2.992
16181WAT      O48784   0.276   5.152   3.562
16181WAT     H148785   0.240   5.062   3.541
16181WAT     H248786   0.201   5.219   3.562
16182WAT      O48787   2.980   8.074   0.220
16182WAT     H148788   2.890   8.032   0.212
16182WAT     H248789   2.988   8.122   0.307
16183WAT      O48790   0.319   0.583   5.449
16183WAT     H148791   0.248   0.650   5.471
16183WAT     H248792   0.286   0.491   5.473
16184WAT      O48793   6.587   3.562   7.680
16184WAT     H148794   6.687   3.565   7.674
16184WAT     H248795   6.548   3.632   7.620
16185WAT      O48796   8.358   4.834   5.960
16185WAT     H148797   8.411   4.899   5.907
16185WAT     H248798   8.361   4.859   6.057
16186WAT      O48799   3.158   6.929   3.249
16186WAT     H148800   3.143   6.940   3.347
16186WAT     H248801   3.190   7.016   3.211
16187WAT      O48802   2.396   1.933   6.774
16187WAT     H148803   2.417   2.010   6.835
16187WAT     H248804   2.474   1.870   6.772
16188WAT      O48805   6.906   8.730   8.895
16188WAT     H148806   6.837   8.799   8.873
16188WAT     H248807   6.929   8.678   8.812
16189WAT      O48808   1.954   3.115   5.978
16189WAT     H148809   1.904   3.151   6.057
16189WAT     H248810   1.982   3.021   5.996
16190WAT      O48811   4.474   0.183   4.741
16190WAT     H148812   4.475   0.182   4.641
16190WAT     H248813   4.384   0.157   4.774
16191WAT      O48814   0.285   8.764   7.603
16191WAT     H148815   0.264   8.687   7.542
16191WAT     H248816   0.365   8.813   7.570
16192WAT      O48817   6.250   6.107   6.458
16192WAT     H148818   6.180   6.178   6.460
16192WAT     H248819   6.333   6.144   6.415
16193WAT      O48820   7.365   3.883   4.177
16193WAT     H148821   7.300   3.808   4.163
16193WAT     H248822   7.331   3.943   4.250
16194WAT      O48823   8.284   7.563   7.511
16194WAT     H148824   8.351   7.636   7.528
16194WAT     H248825   8.224   7.591   7.435
16195WAT      O48826   3.194   8.400   2.466
16195WAT     H148827   3.196   8.328   2.535
16195WAT     H248828   3.129   8.471   2.495
16196WAT      O48829   7.316   0.979   0.657
16196WAT     H148830   7.222   0.950   0.642
16196WAT     H248831   7.347   0.948   0.747
16197WAT      O48832   2.167   1.467   4.673
16197WAT     H148833   2.091   1.438   4.732
16197WAT     H248834   2.131   1.499   4.585
16198WAT      O48835   7.484   6.800   2.508
16198WAT     H148836   7.438   6.713   2.523
16198WAT     H248837   7.485   6.822   2.411
16199WAT      O48838   2.887   4.238   1.223
16199WAT     H148839   2.806   4.283   1.260
16199WAT     H248840   2.969   4.281   1.260
16200WAT      O48841   3.529   6.830   8.331
16200WAT     H148842   3.615   6.808   8.285
16200WAT     H248843   3.465   6.753   8.320
16201WAT      O48844   5.910   7.965   4.784
16201WAT     H148845   5.994   7.920   4.755
16201WAT     H248846   5.831   7.912   4.755
16202WAT      O48847   5.770   8.084   3.425
16202WAT     H148848   5.865   8.118   3.427
16202WAT     H248849   5.751   8.048   3.334
16203WAT      O48850   1.283   2.568   2.907
16203WAT     H148851   1.317   2.527   2.822
16203WAT     H248852   1.290   2.501   2.981
16204WAT      O48853   7.224   2.775   6.652
16204WAT     H148854   7.128   2.750   6.636
16204WAT     H248855   7.259   2.825   6.573
16205WAT      O48856   8.159   1.866   2.028
16205WAT     H148857   8.059   1.866   2.018
16205WAT     H248858   8.182   1.848   2.124
16206WAT      O48859   1.632   9.493   1.428
16206WAT     H148860   1.714   9.537   1.391
16206WAT     H248861   1.551   9.546   1.401
16207WAT      O48862   9.094   2.462   8.241
16207WAT     H148863   9.158   2.418   8.178
16207WAT     H248864   9.075   2.555   8.209
16208WAT      O48865   1.131   3.602   8.334
16208WAT     H148866   1.149   3.571   8.241
16208WAT     H248867   1.095   3.696   8.332
16209WAT      O48868   6.749   3.321   3.303
16209WAT     H148869   6.698   3.283   3.225
16209WAT     H248870   6.689   3.380   3.356
16210WAT      O48871   0.346   6.135   4.910
16210WAT     H148872   0.349   6.063   4.841
16210WAT     H248873   0.293   6.213   4.876
16211WAT      O48874   2.163   4.903   3.293
16211WAT     H148875   2.064   4.894   3.284
16211WAT     H248876   2.197   4.964   3.221
16212WAT      O48877   6.669   9.044   2.277
16212WAT     H148878   6.722   8.993   2.345
16212WAT     H248879   6.724   9.055   2.194
16213WAT      O48880   7.712   9.156   2.763
16213WAT     H148881   7.762   9.190   2.684
16213WAT     H248882   7.618   9.132   2.737
16214WAT      O48883   2.269   2.263   6.459
16214WAT     H148884   2.244   2.244   6.364
16214WAT     H248885   2.328   2.190   6.493
16215WAT      O48886   7.986   7.491   0.056
16215WAT     H148887   7.979   7.512   0.154
16215WAT     H248888   8.042   7.561   0.011
16216WAT      O48889   0.642   7.091   6.699
16216WAT     H148890   0.653   7.058   6.605
16216WAT     H248891   0.599   7.182   6.697
16217WAT      O48892   7.635   0.921   9.520
16217WAT     H148893   7.686   1.003   9.494
16217WAT     H248894   7.563   0.903   9.453
16218WAT      O48895   4.926   2.677   3.244
16218WAT     H148896   4.963   2.620   3.170
16218WAT     H248897   4.841   2.719   3.215
16219WAT      O48898   4.202   8.806   8.839
16219WAT     H148899   4.268   8.842   8.905
16219WAT     H248900   4.221   8.709   8.822
16220WAT      O48901   4.037   4.386   8.228
16220WAT     H148902   3.967   4.409   8.296
16220WAT     H248903   4.102   4.461   8.222
16221WAT      O48904   6.542   4.189   3.084
16221WAT     H148905   6.500   4.240   3.009
16221WAT     H248906   6.523   4.235   3.170
16222WAT      O48907   2.548   5.941   7.205
16222WAT     H148908   2.605   5.862   7.182
16222WAT     H248909   2.501   5.924   7.291
16223WAT      O48910   9.486   6.400   7.159
16223WAT     H148911   9.418   6.472   7.167
16223WAT     H248912   9.525   6.400   7.067
16224WAT      O48913   0.724   4.867   5.690
16224WAT     H148914   0.681   4.777   5.695
16224WAT     H248915   0.720   4.902   5.596
16225WAT      O48916   7.038   6.094   2.171
16225WAT     H148917   7.070   6.146   2.091
16225WAT     H248918   6.967   6.030   2.143
16226WAT      O48919   9.124   6.445   3.584
16226WAT     H148920   9.132   6.544   3.575
16226WAT     H248921   9.167   6.415   3.668
16227WAT      O48922   9.393   2.647   9.463
16227WAT     H148923   9.358   2.560   9.498
16227WAT     H248924   9.460   2.630   9.391
16228WAT      O48925   1.270   1.963   9.429
16228WAT     H148926   1.333   1.923   9.496
16228WAT     H248927   1.308   2.050   9.396
16229WAT      O48928   1.743   3.331   5.493
16229WAT     H148929   1.796   3.247   5.505
16229WAT     H248930   1.729   3.347   5.396
16230WAT      O48931   8.227   5.135   7.344
16230WAT     H148932   8.244   5.100   7.251
16230WAT     H248933   8.179   5.065   7.396
16231WAT      O48934   8.697   8.611   0.549
16231WAT     H148935   8.602   8.582   0.536
16231WAT     H248936   8.726   8.586   0.642
16232WAT      O48937   4.419   9.435   5.166
16232WAT     H148938   4.483   9.420   5.241
16232WAT     H248939   4.344   9.369   5.173
16233WAT      O48940   7.110   1.013   7.208
16233WAT     H148941   7.129   1.087   7.143
16233WAT     H248942   7.048   0.946   7.165
16234WAT      O48943   2.775   1.992   4.866
16234WAT     H148944   2.841   2.043   4.921
16234WAT     H248945   2.809   1.900   4.850
16235WAT      O48946   8.757   0.768   0.895
16235WAT     H148947   8.848   0.747   0.861
16235WAT     H248948   8.749   0.866   0.910
16236WAT      O48949   4.914   3.596   6.201
16236WAT     H148950   4.996   3.539   6.206
16236WAT     H248951   4.938   3.691   6.222
16237WAT      O48952   5.910   3.362   1.397
16237WAT     H148953   5.893   3.442   1.456
16237WAT     H248954   5.855   3.285   1.429
16238WAT      O48955   8.250   8.111   3.371
16238WAT     H148956   8.275   8.092   3.466
16238WAT     H248957   8.195   8.195   3.368
16239WAT      O48958   5.788   2.036   1.572
16239WAT     H148959   5.791   1.943   1.608
16239WAT     H248960   5.878   2.079   1.586
16240WAT      O48961   6.094   0.632   3.557
16240WAT     H148962   6.134   0.560   3.501
16240WAT     H248963   5.995   0.635   3.542
16241WAT      O48964   7.439   3.781   3.731
16241WAT     H148965   7.509   3.816   3.793
16241WAT     H248966   7.455   3.683   3.715
16242WAT      O48967   1.892   8.819   8.766
16242WAT     H148968   1.991   8.803   8.776
16242WAT     H248969   1.876   8.898   8.708
16243WAT      O48970   2.201   9.140   2.733
16243WAT     H148971   2.276   9.101   2.786
16243WAT     H248972   2.184   9.234   2.761
16244WAT      O48973   9.646   7.761   6.679
16244WAT     H148974   9.615   7.851   6.648
16244WAT     H248975   9.715   7.772   6.750
16245WAT      O48976   6.135   5.691   3.746
16245WAT     H148977   6.153   5.592   3.745
16245WAT     H248978   6.040   5.707   3.771
16246WAT      O48979   7.593   7.153   7.250
16246WAT     H148980   7.593   7.143   7.150
16246WAT     H248981   7.680   7.120   7.287
16247WAT      O48982   9.428   7.400   8.132
16247WAT     H148983   9.512   7.392   8.079
16247WAT     H248984   9.366   7.464   8.087
16248WAT      O48985   8.040   0.763   8.462
16248WAT     H148986   8.102   0.719   8.397
16248WAT     H248987   8.072   0.745   8.555
16249WAT      O48988   7.480   2.685   6.976
16249WAT     H148989   7.411   2.614   6.961
16249WAT     H248990   7.512   2.719   6.887
16250WAT      O48991   3.339   4.373   4.690
16250WAT     H148992   3.429   4.338   4.713
16250WAT     H248993   3.271   4.335   4.754
16251WAT      O48994   7.209   5.564   8.189
16251WAT     H148995   7.308   5.568   8.175
16251WAT     H248996   7.185   5.479   8.235
16252WAT      O48997   2.811   2.553   6.715
16252WAT     H148998   2.823   2.636   6.770
16252WAT     H248999   2.863   2.478   6.755
16253WAT      O49000   0.459   9.146   2.369
16253WAT     H149001   0.374   9.094   2.370
16253WAT     H249002   0.501   9.143   2.460
16254WAT      O49003   6.183   5.092   1.751
16254WAT     H149004   6.093   5.104   1.710
16254WAT     H249005   6.212   4.997   1.740
16255WAT      O49006   4.947   6.999   2.295
16255WAT     H149007   4.853   6.973   2.276
16255WAT     H249008   4.985   7.046   2.216
16256WAT      O49009   3.698   4.106   6.384
16256WAT     H149010   3.671   4.190   6.338
16256WAT     H249011   3.753   4.129   6.464
16257WAT      O49012   3.371   3.068   5.922
16257WAT     H149013   3.328   2.991   5.968
16257WAT     H249014   3.301   3.130   5.887
16258WAT      O49015   8.200   8.513   6.869
16258WAT     H149016   8.121   8.489   6.812
16258WAT     H249017   8.193   8.608   6.897
16259WAT      O49018   2.207   9.106   7.672
16259WAT     H149019   2.273   9.148   7.734
16259WAT     H249020   2.216   9.148   7.581
16260WAT      O49021   2.446   7.397   1.725
16260WAT     H149022   2.428   7.303   1.697
16260WAT     H249023   2.445   7.457   1.645
16261WAT      O49024   1.698   7.656   4.281
16261WAT     H149025   1.645   7.656   4.196
16261WAT     H249026   1.656   7.594   4.346
16262WAT      O49027   9.594   5.218   9.393
16262WAT     H149028   9.624   5.308   9.424
16262WAT     H249029   9.555   5.226   9.301
16263WAT      O49030   8.299   4.097   0.660
16263WAT     H149031   8.371   4.028   0.653
16263WAT     H249032   8.339   4.188   0.654
16264WAT      O49033   7.586   6.710   8.107
16264WAT     H149034   7.622   6.654   8.182
16264WAT     H249035   7.661   6.764   8.067
16265WAT      O49036   3.468   1.040   6.360
16265WAT     H149037   3.376   1.028   6.396
16265WAT     H249038   3.472   1.123   6.304
16266WAT      O49039   7.483   4.102   2.829
16266WAT     H149040   7.390   4.068   2.836
16266WAT     H249041   7.517   4.091   2.735
16267WAT      O49042   3.154   4.926   2.407
16267WAT     H149043   3.202   4.852   2.359
16267WAT     H249044   3.163   4.914   2.505
16268WAT      O49045   3.750   0.853   5.861
16268WAT     H149046   3.824   0.894   5.807
16268WAT     H249047   3.714   0.920   5.925
16269WAT      O49048   5.898   1.538   7.193
16269WAT     H149049   5.951   1.465   7.149
16269WAT     H249050   5.801   1.521   7.179
16270WAT      O49051   4.443   6.248   6.766
16270WAT     H149052   4.452   6.203   6.677
16270WAT     H249053   4.395   6.188   6.829
16271WAT      O49054   1.493   4.289   2.921
16271WAT     H149055   1.407   4.306   2.873
16271WAT     H249056   1.569   4.299   2.857
16272WAT      O49057   0.011   8.790   3.139
16272WAT     H149058   0.072   8.731   3.086
16272WAT     H249059  -0.079   8.746   3.147
16273WAT      O49060   8.797   8.710   9.495
16273WAT     H149061   8.709   8.735   9.536
16273WAT     H249062   8.857   8.790   9.494
16274WAT      O49063   7.654   7.124   6.453
16274WAT     H149064   7.655   7.025   6.466
16274WAT     H249065   7.592   7.147   6.378
16275WAT      O49066   7.176   9.296   9.874
16275WAT     H149067   7.242   9.270   9.944
16275WAT     H249068   7.119   9.217   9.852
16276WAT      O49069   5.951   8.659   2.116
16276WAT     H149070   6.031   8.622   2.068
16276WAT     H249071   5.870   8.606   2.091
16277WAT      O49072   4.094   4.402   7.281
16277WAT     H149073   4.148   4.425   7.200
16277WAT     H249074   4.004   4.445   7.275
16278WAT      O49075   9.064   5.586   5.262
16278WAT     H149076   9.157   5.580   5.227
16278WAT     H249077   9.064   5.632   5.350
16279WAT      O49078   0.673   3.769   6.660
16279WAT     H149079   0.708   3.690   6.611
16279WAT     H249080   0.745   3.807   6.718
16280WAT      O49081   3.223   4.639   4.713
16280WAT     H149082   3.260   4.549   4.692
16280WAT     H249083   3.169   4.672   4.636
16281WAT      O49084   6.197   6.614   3.615
16281WAT     H149085   6.186   6.623   3.714
16281WAT     H249086   6.120   6.562   3.578
16282WAT      O49087   3.107   7.683   4.883
16282WAT     H149088   3.193   7.730   4.865
16282WAT     H249089   3.036   7.750   4.904
16283WAT      O49090   1.107   9.637   0.523
16283WAT     H149091   1.109   9.561   0.458
16283WAT     H249092   1.148   9.717   0.481
16284WAT      O49093   4.574   5.747   9.474
16284WAT     H149094   4.602   5.689   9.397
16284WAT     H249095   4.606   5.707   9.560
16285WAT      O49096   1.551   2.586   4.804
16285WAT     H149097   1.616   2.649   4.847
16285WAT     H249098   1.600   2.507   4.768
16286WAT      O49099   3.223   1.518   5.958
16286WAT     H149100   3.141   1.510   6.015
16286WAT     H249101   3.212   1.462   5.876
16287WAT      O49102   1.808   6.636   1.026
16287WAT     H149103   1.845   6.649   1.117
16287WAT     H249104   1.871   6.674   0.958
16288WAT      O49105   8.164   6.069   1.949
16288WAT     H149106   8.210   6.154   1.922
16288WAT     H249107   8.142   6.073   2.046
16289WAT      O49108   4.947   5.032   4.568
16289WAT     H149109   4.848   5.033   4.582
16289WAT     H249110   4.977   4.938   4.551
16290WAT      O49111   8.833   8.784   3.652
16290WAT     H149112   8.818   8.731   3.568
16290WAT     H249113   8.874   8.872   3.629
16291WAT      O49114   7.279   1.418   5.616
16291WAT     H149115   7.328   1.393   5.700
16291WAT     H249116   7.293   1.515   5.598
16292WAT      O49117   7.338   1.626   5.994
16292WAT     H149118   7.290   1.706   5.960
16292WAT     H249119   7.345   1.558   5.921
16293WAT      O49120   2.761   9.269   1.719
16293WAT     H149121   2.690   9.338   1.734
16293WAT     H249122   2.849   9.305   1.752
16294WAT      O49123   7.146   3.874   9.661
16294WAT     H149124   7.112   3.894   9.752
16294WAT     H249125   7.167   3.777   9.654
16295WAT      O49126   6.406   7.539   0.323
16295WAT     H149127   6.333   7.521   0.257
16295WAT     H249128   6.366   7.551   0.414
16296WAT      O49129   9.370   1.595   8.019
16296WAT     H149130   9.274   1.585   8.045
16296WAT     H249131   9.386   1.686   7.981
16297WAT      O49132   7.946   7.811   3.405
16297WAT     H149133   8.031   7.799   3.353
16297WAT     H249134   7.952   7.897   3.457
16298WAT      O49135   8.166   0.975   1.161
16298WAT     H149136   8.095   1.037   1.131
16298WAT     H249137   8.159   0.961   1.260
16299WAT      O49138   9.805   9.814   7.631
16299WAT     H149139   9.874   9.862   7.577
16299WAT     H249140   9.827   9.823   7.729
16300WAT      O49141   3.499   7.432   3.698
16300WAT     H149142   3.479   7.468   3.607
16300WAT     H249143   3.598   7.426   3.710
16301WAT      O49144   3.734   0.736   1.808
16301WAT     H149145   3.781   0.701   1.889
16301WAT     H249146   3.667   0.669   1.776
16302WAT      O49147   1.587   7.295   1.812
16302WAT     H149148   1.628   7.300   1.721
16302WAT     H249149   1.535   7.210   1.821
16303WAT      O49150   2.597   4.083   7.847
16303WAT     H149151   2.645   4.008   7.800
16303WAT     H249152   2.656   4.120   7.918
16304WAT      O49153   7.565   9.212   7.835
16304WAT     H149154   7.532   9.118   7.832
16304WAT     H249155   7.586   9.243   7.742
16305WAT      O49156   4.331   1.171   7.404
16305WAT     H149157   4.377   1.203   7.487
16305WAT     H249158   4.397   1.164   7.329
16306WAT      O49159   6.541   1.159   8.777
16306WAT     H149160   6.557   1.079   8.835
16306WAT     H249161   6.509   1.129   8.687
16307WAT      O49162   6.743   3.561   2.764
16307WAT     H149163   6.772   3.509   2.683
16307WAT     H249164   6.786   3.522   2.845
16308WAT      O49165   7.850   7.613   4.612
16308WAT     H149166   7.755   7.643   4.602
16308WAT     H249167   7.897   7.673   4.677
16309WAT      O49168   9.476   6.739   9.122
16309WAT     H149169   9.451   6.828   9.084
16309WAT     H249170   9.444   6.733   9.216
16310WAT      O49171   9.400   6.593   4.461
16310WAT     H149172   9.364   6.686   4.473
16310WAT     H249173   9.462   6.591   4.383
16311WAT      O49174   6.028   4.289   0.502
16311WAT     H149175   6.053   4.367   0.560
16311WAT     H249176   5.987   4.321   0.418
16312WAT      O49177   4.024   8.568   5.602
16312WAT     H149178   3.974   8.568   5.688
16312WAT     H249179   3.963   8.595   5.528
16313WAT      O49180   5.615   9.578   3.278
16313WAT     H149181   5.554   9.655   3.293
16313WAT     H249182   5.710   9.607   3.293
16314WAT      O49183   3.632   6.961   7.552
16314WAT     H149184   3.644   7.054   7.585
16314WAT     H249185   3.667   6.953   7.459
16315WAT      O49186   5.239   2.124   5.574
16315WAT     H149187   5.211   2.032   5.605
16315WAT     H249188   5.161   2.169   5.530
16316WAT      O49189   1.035   7.777   3.660
16316WAT     H149190   1.128   7.739   3.666
16316WAT     H249191   0.979   7.720   3.600
16317WAT      O49192   7.238   5.602   0.705
16317WAT     H149193   7.277   5.691   0.681
16317WAT     H249194   7.298   5.529   0.671
16318WAT      O49195   5.536   5.009   2.130
16318WAT     H149196   5.631   4.989   2.107
16318WAT     H249197   5.503   4.944   2.198
16319WAT      O49198   3.538   9.696   3.060
16319WAT     H149199   3.558   9.671   2.966
16319WAT     H249200   3.623   9.694   3.114
16320WAT      O49201   7.017   7.930   8.123
16320WAT     H149202   7.055   7.994   8.055
16320WAT     H249203   7.052   7.838   8.104
16321WAT      O49204   4.811   3.762   4.175
16321WAT     H149205   4.846   3.696   4.109
16321WAT     H249206   4.854   3.851   4.159
16322WAT      O49207   7.399   0.562   1.420
16322WAT     H149208   7.349   0.491   1.470
16322WAT     H249209   7.373   0.560   1.324
16323WAT      O49210   3.023   0.959   8.458
16323WAT     H149211   3.025   1.003   8.548
16323WAT     H249212   3.108   0.980   8.409
16324WAT      O49213   4.837   8.756   8.209
16324WAT     H149214   4.773   8.750   8.132
16324WAT     H249215   4.786   8.754   8.295
16325WAT      O49216   7.061   0.237   2.799
16325WAT     H149217   7.027   0.281   2.716
16325WAT     H249218   7.149   0.277   2.825
16326WAT      O49219   9.029   4.051   9.747
16326WAT     H149220   9.074   3.988   9.810
16326WAT     H249221   8.930   4.042   9.755
16327WAT      O49222   0.197   6.753   4.887
16327WAT     H149223   0.242   6.678   4.936
16327WAT     H249224   0.128   6.715   4.826
16328WAT      O49225   5.406   3.015   6.918
16328WAT     H149226   5.388   2.917   6.906
16328WAT     H249227   5.420   3.057   6.828
16329WAT      O49228   4.551   7.895   2.616
16329WAT     H149229   4.603   7.815   2.588
16329WAT     H249230   4.614   7.965   2.651
16330WAT      O49231   3.318   6.900   8.084
16330WAT     H149232   3.409   6.941   8.093
16330WAT     H249233   3.324   6.819   8.026
16331WAT      O49234   0.555   7.681   6.896
16331WAT     H149235   0.650   7.707   6.881
16331WAT     H249236   0.549   7.582   6.907
16332WAT      O49237   8.636   7.251   4.031
16332WAT     H149238   8.602   7.338   3.996
16332WAT     H249239   8.733   7.242   4.009
16333WAT      O49240   3.785   5.948   7.122
16333WAT     H149241   3.693   5.959   7.084
16333WAT     H249242   3.849   5.926   7.049
16334WAT      O49243   1.562   0.664   6.156
16334WAT     H149244   1.508   0.600   6.101
16334WAT     H249245   1.515   0.679   6.243
16335WAT      O49246   2.218   2.727   2.180
16335WAT     H149247   2.168   2.691   2.102
16335WAT     H249248   2.189   2.680   2.263
16336WAT      O49249   4.913   9.495   8.503
16336WAT     H149250   4.928   9.499   8.404
16336WAT     H249251   4.817   9.512   8.523
16337WAT      O49252   5.030   2.884   1.195
16337WAT     H149253   5.007   2.889   1.292
16337WAT     H249254   5.068   2.793   1.175
16338WAT      O49255   1.480   9.519   6.205
16338WAT     H149256   1.576   9.493   6.214
16338WAT     H249257   1.432   9.501   6.291
16339WAT      O49258   9.600   2.319   6.657
16339WAT     H149259   9.535   2.389   6.629
16339WAT     H249260   9.669   2.307   6.585
16340WAT      O49261   1.729   7.117   3.255
16340WAT     H149262   1.794   7.139   3.328
16340WAT     H249263   1.771   7.139   3.166
16341WAT      O49264   4.765   6.230   8.866
16341WAT     H149265   4.772   6.255   8.963
16341WAT     H249266   4.670   6.203   8.847
16342WAT      O49267   6.304   0.646   3.726
16342WAT     H149268   6.379   0.706   3.698
16342WAT     H249269   6.230   0.653   3.659
16343WAT      O49270   7.305   5.868   0.677
16343WAT     H149271   7.347   5.955   0.652
16343WAT     H249272   7.234   5.884   0.745
16344WAT      O49273   0.836   3.779   4.938
16344WAT     H149274   0.914   3.830   4.976
16344WAT     H249275   0.859   3.681   4.935
16345WAT      O49276   7.172   8.153   9.843
16345WAT     H149277   7.141   8.085   9.776
16345WAT     H249278   7.109   8.230   9.844
16346WAT      O49279   7.260   2.230   7.531
16346WAT     H149280   7.347   2.184   7.542
16346WAT     H249281   7.268   2.325   7.559
16347WAT      O49282   8.055   6.981   3.141
16347WAT     H149283   8.031   6.884   3.129
16347WAT     H249284   8.103   6.993   3.228
16348WAT      O49285   3.129   7.175   1.470
16348WAT     H149286   3.114   7.119   1.552
16348WAT     H249287   3.075   7.259   1.478
16349WAT      O49288   8.214   0.247   8.329
16349WAT     H149289   8.154   0.167   8.339
16349WAT     H249290   8.219   0.295   8.417
16350WAT      O49291   6.491   1.430   2.263
16350WAT     H149292   6.550   1.451   2.340
16350WAT     H249293   6.466   1.515   2.216
16351WAT      O49294   9.618   4.283   2.392
16351WAT     H149295   9.643   4.345   2.467
16351WAT     H249296   9.689   4.286   2.321
16352WAT      O49297   1.030   2.498   1.513
16352WAT     H149298   1.102   2.486   1.444
16352WAT     H249299   1.064   2.468   1.602
16353WAT      O49300   2.250   0.247   5.653
16353WAT     H149301   2.324   0.273   5.716
16353WAT     H249302   2.171   0.218   5.706
16354WAT      O49303   2.211   6.041   2.035
16354WAT     H149304   2.167   6.004   2.117
16354WAT     H249305   2.146   6.100   1.986
16355WAT      O49306   2.587   7.656   9.218
16355WAT     H149307   2.593   7.617   9.311
16355WAT     H249308   2.630   7.593   9.153
16356WAT      O49309   9.583   8.784   8.608
16356WAT     H149310   9.523   8.755   8.683
16356WAT     H249311   9.529   8.799   8.525
16357WAT      O49312   0.319   7.829   6.406
16357WAT     H149313   0.346   7.824   6.502
16357WAT     H249314   0.283   7.741   6.376
16358WAT      O49315   0.541   5.411   4.664
16358WAT     H149316   0.485   5.494   4.661
16358WAT     H249317   0.635   5.435   4.689
16359WAT      O49318   2.022   2.108   7.011
16359WAT     H149319   1.983   2.020   6.982
16359WAT     H249320   2.115   2.093   7.045
16360WAT      O49321   8.452   8.670   5.055
16360WAT     H149322   8.406   8.641   4.971
16360WAT     H249323   8.412   8.755   5.088
16361WAT      O49324   2.467   1.115   7.390
16361WAT     H149325   2.493   1.088   7.483
16361WAT     H249326   2.437   1.211   7.390
16362WAT      O49327   2.066   6.678   3.527
16362WAT     H149328   2.149   6.712   3.572
16362WAT     H249329   2.042   6.740   3.452
16363WAT      O49330   2.503   5.472   0.566
16363WAT     H149331   2.572   5.537   0.534
16363WAT     H249332   2.547   5.386   0.592
16364WAT      O49333   7.146   0.548   3.379
16364WAT     H149334   7.238   0.560   3.342
16364WAT     H249335   7.134   0.454   3.411
16365WAT      O49336   5.038   8.068   9.456
16365WAT     H149337   4.963   8.057   9.391
16365WAT     H249338   5.015   8.140   9.521
16366WAT      O49339   5.474   1.090   8.273
16366WAT     H149340   5.437   1.169   8.322
16366WAT     H249341   5.516   1.027   8.338
16367WAT      O49342   9.347   9.328   0.267
16367WAT     H149343   9.348   9.258   0.195
16367WAT     H249344   9.259   9.324   0.315
16368WAT      O49345   6.408   2.128   2.428
16368WAT     H149346   6.424   2.038   2.387
16368WAT     H249347   6.481   2.190   2.402
16369WAT      O49348   2.742   8.152   1.419
16369WAT     H149349   2.778   8.074   1.469
16369WAT     H249350   2.736   8.231   1.480
16370WAT      O49351   5.697   7.109   4.331
16370WAT     H149352   5.612   7.159   4.349
16370WAT     H249353   5.761   7.168   4.283
16371WAT      O49354   8.898   4.213   5.771
16371WAT     H149355   8.981   4.177   5.814
16371WAT     H249356   8.833   4.139   5.755
16372WAT      O49357   4.134   7.908   4.890
16372WAT     H149358   4.091   7.866   4.970
16372WAT     H249359   4.134   8.007   4.901
16373WAT      O49360   1.486   9.596   4.204
16373WAT     H149361   1.394   9.631   4.215
16373WAT     H249362   1.552   9.665   4.234
16374WAT      O49363   1.629   7.697   9.490
16374WAT     H149364   1.551   7.747   9.451
16374WAT     H249365   1.681   7.654   9.416
16375WAT      O49366   8.918   0.995   9.351
16375WAT     H149367   8.962   0.952   9.272
16375WAT     H249368   8.968   1.077   9.378
16376WAT      O49369   1.476   9.794   9.736
16376WAT     H149370   1.387   9.811   9.780
16376WAT     H249371   1.466   9.806   9.637
16377WAT      O49372   0.981   2.091   4.356
16377WAT     H149373   0.981   1.995   4.329
16377WAT     H249374   0.957   2.148   4.277
16378WAT      O49375   8.052   6.038   9.631
16378WAT     H149376   8.143   6.006   9.658
16378WAT     H249377   7.985   5.964   9.642
16379WAT      O49378   1.830   0.122   4.176
16379WAT     H149379   1.749   0.179   4.183
16379WAT     H249380   1.911   0.177   4.196
16380WAT      O49381   4.425   8.343   1.282
16380WAT     H149382   4.417   8.341   1.381
16380WAT     H249383   4.488   8.416   1.255
16381WAT      O49384   8.735   0.582   2.392
16381WAT     H149385   8.697   0.531   2.469
16381WAT     H249386   8.693   0.550   2.307
16382WAT      O49387   5.654   1.143   3.053
16382WAT     H149388   5.594   1.154   3.132
16382WAT     H249389   5.603   1.099   2.978
16383WAT      O49390   9.225   1.127   2.358
16383WAT     H149391   9.265   1.118   2.450
16383WAT     H249392   9.224   1.223   2.332
16384WAT      O49393   8.517   8.859   4.629
16384WAT     H149394   8.472   8.770   4.628
16384WAT     H249395   8.482   8.915   4.553
16385WAT      O49396   6.849   7.694   5.054
16385WAT     H149397   6.901   7.613   5.080
16385WAT     H249398   6.777   7.711   5.121
16386WAT      O49399   6.969   2.451   5.835
16386WAT     H149400   6.937   2.417   5.746
16386WAT     H249401   6.983   2.374   5.897
16387WAT      O49402   9.725   0.153   1.213
16387WAT     H149403   9.758   0.147   1.307
16387WAT     H249404   9.789   0.106   1.153
16388WAT      O49405   7.898   1.367   6.292
16388WAT     H149406   7.947   1.372   6.205
16388WAT     H249407   7.801   1.350   6.276
16389WAT      O49408   4.403   9.452   2.135
16389WAT     H149409   4.388   9.547   2.164
16389WAT     H249410   4.332   9.424   2.071
16390WAT      O49411   0.369   0.028   3.608
16390WAT     H149412   0.320   0.076   3.535
16390WAT     H249413   0.442   0.086   3.644
16391WAT      O49414   8.374   4.798   0.088
16391WAT     H149415   8.326   4.750   0.014
16391WAT     H249416   8.472   4.780   0.080
16392WAT      O49417   7.769   8.243   2.551
16392WAT     H149418   7.739   8.275   2.461
16392WAT     H249419   7.866   8.220   2.548
16393WAT      O49420   9.594   2.098   1.410
16393WAT     H149421   9.546   2.025   1.457
16393WAT     H249422   9.665   2.058   1.351
16394WAT      O49423   4.539   1.417   9.805
16394WAT     H149424   4.522   1.443   9.901
16394WAT     H249425   4.531   1.318   9.796
16395WAT      O49426   5.170   9.513   6.986
16395WAT     H149427   5.170   9.586   7.055
16395WAT     H249428   5.095   9.450   7.005
16396WAT      O49429   7.086   5.632   6.309
16396WAT     H149430   7.177   5.597   6.331
16396WAT     H249431   7.085   5.732   6.321
16397WAT      O49432   4.926   4.530   5.037
16397WAT     H149433   5.020   4.497   5.043
16397WAT     H249434   4.926   4.628   5.018
16398WAT      O49435   0.787   7.763   5.088
16398WAT     H149436   0.706   7.752   5.145
16398WAT     H249437   0.760   7.795   4.997
16399WAT      O49438   1.349   0.335   6.259
16399WAT     H149439   1.294   0.419   6.255
16399WAT     H249440   1.293   0.260   6.293
16400WAT      O49441   3.912   0.037   8.699
16400WAT     H149442   4.002   0.051   8.739
16400WAT     H249443   3.921  -0.010   8.611
16401WAT      O49444   1.818   7.015   1.473
16401WAT     H149445   1.725   7.015   1.435
16401WAT     H249446   1.829   6.937   1.535
16402WAT      O49447   1.264   2.575   0.414
16402WAT     H149448   1.255   2.541   0.320
16402WAT     H249449   1.179   2.560   0.463
16403WAT      O49450   4.403   7.124   6.008
16403WAT     H149451   4.373   7.031   5.985
16403WAT     H249452   4.474   7.119   6.078
16404WAT      O49453   4.002   2.010   9.872
16404WAT     H149454   3.942   1.977   9.799
16404WAT     H249455   3.987   2.108   9.886
16405WAT      O49456   2.785   2.848   8.534
16405WAT     H149457   2.743   2.938   8.522
16405WAT     H249458   2.715   2.783   8.566
16406WAT      O49459   7.449   0.371   1.763
16406WAT     H149460   7.512   0.440   1.800
16406WAT     H249461   7.402   0.326   1.839
16407WAT      O49462   6.865   9.841   3.588
16407WAT     H149463   6.964   9.848   3.588
16407WAT     H249464   6.838   9.750   3.557
16408WAT      O49465   4.669   2.024   9.488
16408WAT     H149466   4.762   2.046   9.517
16408WAT     H249467   4.637   2.092   9.422
16409WAT      O49468   8.806   3.384   8.482
16409WAT     H149469   8.712   3.410   8.507
16409WAT     H249470   8.831   3.300   8.530
16410WAT      O49471   6.638   7.764   4.304
16410WAT     H149472   6.658   7.718   4.218
16410WAT     H249473   6.563   7.718   4.351
16411WAT      O49474   3.116   0.683   2.768
16411WAT     H149475   3.187   0.724   2.710
16411WAT     H249476   3.051   0.634   2.711
16412WAT      O49477   1.884   5.385   4.944
16412WAT     H149478   1.970   5.432   4.963
16412WAT     H249479   1.879   5.362   4.847
16413WAT      O49480   7.984   2.263   5.518
16413WAT     H149481   7.936   2.340   5.559
16413WAT     H249482   8.079   2.263   5.547
16414WAT      O49483   0.647   8.891   0.460
16414WAT     H149484   0.685   8.809   0.417
16414WAT     H249485   0.668   8.971   0.404
16415WAT      O49486   6.301   1.107   7.013
16415WAT     H149487   6.239   1.144   7.082
16415WAT     H249488   6.249   1.090   6.928
16416WAT      O49489   9.609   9.656   1.282
16416WAT     H149490   9.602   9.610   1.194
16416WAT     H249491   9.517   9.675   1.318
16417WAT      O49492   3.134   1.796   0.854
16417WAT     H149493   3.139   1.751   0.943
16417WAT     H249494   3.049   1.771   0.809
16418WAT      O49495   3.224   4.381   2.442
16418WAT     H149496   3.243   4.419   2.533
16418WAT     H249497   3.310   4.364   2.395
16419WAT      O49498   5.324   7.865   0.649
16419WAT     H149499   5.291   7.957   0.666
16419WAT     H249500   5.334   7.851   0.550
16420WAT      O49501   1.191   7.437   7.390
16420WAT     H149502   1.248   7.393   7.321
16420WAT     H249503   1.123   7.371   7.424
16421WAT      O49504   3.117   1.650   2.264
16421WAT     H149505   3.066   1.600   2.335
16421WAT     H249506   3.100   1.607   2.175
16422WAT      O49507   6.389   4.418   0.382
16422WAT     H149508   6.318   4.449   0.320
16422WAT     H249509   6.383   4.319   0.394
16423WAT      O49510   1.673   7.233   8.119
16423WAT     H149511   1.590   7.227   8.063
16423WAT     H249512   1.674   7.320   8.168
16424WAT      O49513   6.253   1.266   2.483
16424WAT     H149514   6.197   1.297   2.407
16424WAT     H249515   6.206   1.193   2.532
16425WAT      O49516   2.138   9.745   0.562
16425WAT     H149517   2.130   9.646   0.550
16425WAT     H249518   2.174   9.787   0.478
16426WAT      O49519   2.198   8.349   4.044
16426WAT     H149520   2.139   8.271   4.026
16426WAT     H249521   2.235   8.342   4.137
16427WAT      O49522   6.918   2.723   5.771
16427WAT     H149523   6.846   2.729   5.702
16427WAT     H249524   6.957   2.631   5.770
16428WAT      O49525   6.585   6.064   7.084
16428WAT     H149526   6.555   5.993   7.019
16428WAT     H249527   6.585   6.153   7.038
16429WAT      O49528   2.540   4.548   6.634
16429WAT     H149529   2.501   4.613   6.700
16429WAT     H249530   2.638   4.564   6.625
16430WAT      O49531   3.083   6.468   7.221
16430WAT     H149532   3.031   6.544   7.182
16430WAT     H249533   3.180   6.493   7.226
16431WAT      O49534   2.145   2.564   7.808
16431WAT     H149535   2.106   2.533   7.895
16431WAT     H249536   2.204   2.643   7.824
16432WAT      O49537   7.282   6.314   6.781
16432WAT     H149538   7.187   6.342   6.766
16432WAT     H249539   7.296   6.222   6.744
16433WAT      O49540   7.729   6.908   2.347
16433WAT     H149541   7.755   6.815   2.374
16433WAT     H249542   7.640   6.905   2.301
16434WAT      O49543   2.024   4.313   6.950
16434WAT     H149544   1.946   4.344   7.004
16434WAT     H249545   2.030   4.369   6.867
16435WAT      O49546   9.682   7.235   1.585
16435WAT     H149547   9.666   7.219   1.488
16435WAT     H249548   9.628   7.170   1.639
16436WAT      O49549   6.630   6.279   4.352
16436WAT     H149550   6.572   6.200   4.372
16436WAT     H249551   6.652   6.327   4.437
16437WAT      O49552   5.137   1.285   1.455
16437WAT     H149553   5.143   1.315   1.550
16437WAT     H249554   5.175   1.193   1.446
16438WAT      O49555   2.695   5.276   1.103
16438WAT     H149556   2.691   5.326   1.016
16438WAT     H249557   2.656   5.333   1.176
16439WAT      O49558   8.711   8.254   8.908
16439WAT     H149559   8.683   8.247   8.812
16439WAT     H249560   8.768   8.176   8.932
16440WAT      O49561   2.692   7.444   9.061
16440WAT     H149562   2.770   7.481   9.112
16440WAT     H249563   2.677   7.349   9.087
16441WAT      O49564   8.850   6.448   2.202
16441WAT     H149565   8.793   6.397   2.138
16441WAT     H249566   8.840   6.546   2.186
16442WAT      O49567   7.495   6.799   7.137
16442WAT     H149568   7.583   6.767   7.175
16442WAT     H249569   7.444   6.846   7.208
16443WAT      O49570   8.112   0.673   1.740
16443WAT     H149571   8.091   0.648   1.646
16443WAT     H249572   8.201   0.719   1.743
16444WAT      O49573   0.152   2.479   2.539
16444WAT     H149574   0.088   2.444   2.607
16444WAT     H249575   0.118   2.458   2.447
16445WAT      O49576   5.630   3.931   8.973
16445WAT     H149577   5.695   3.859   8.998
16445WAT     H249578   5.640   3.952   8.876
16446WAT      O49579   3.074   8.141   6.591
16446WAT     H149580   3.079   8.231   6.548
16446WAT     H249581   2.980   8.109   6.590
16447WAT      O49582   8.945   2.782   8.813
16447WAT     H149583   8.950   2.688   8.847
16447WAT     H249584   8.856   2.797   8.769
16448WAT      O49585   2.998   3.937   2.739
16448WAT     H149586   3.033   4.029   2.721
16448WAT     H249587   3.060   3.889   2.802
16449WAT      O49588   5.953   4.315   9.850
16449WAT     H149589   5.886   4.367   9.797
16449WAT     H249590   6.042   4.359   9.844
16450WAT      O49591   4.997   9.045   4.421
16450WAT     H149592   4.936   8.991   4.479
16450WAT     H249593   5.060   9.097   4.479
16451WAT      O49594   4.212   8.816   5.526
16451WAT     H149595   4.193   8.844   5.432
16451WAT     H249596   4.205   8.717   5.533
16452WAT      O49597   7.434   6.568   1.813
16452WAT     H149598   7.501   6.493   1.811
16452WAT     H249599   7.398   6.583   1.721
16453WAT      O49600   3.035   5.939   3.923
16453WAT     H149601   3.044   6.028   3.969
16453WAT     H249602   3.123   5.914   3.883
16454WAT      O49603   2.351   9.384   4.533
16454WAT     H149604   2.382   9.479   4.542
16454WAT     H249605   2.251   9.382   4.524
16455WAT      O49606   6.323   3.538   7.412
16455WAT     H149607   6.297   3.499   7.324
16455WAT     H249608   6.319   3.467   7.483
16456WAT      O49609   8.180   3.855   8.477
16456WAT     H149610   8.257   3.817   8.529
16456WAT     H249611   8.095   3.842   8.528
16457WAT      O49612   6.263   5.791   0.975
16457WAT     H149613   6.349   5.765   1.018
16457WAT     H249614   6.218   5.710   0.937
16458WAT      O49615   4.112   1.900   1.018
16458WAT     H149616   4.063   1.884   1.103
16458WAT     H249617   4.211   1.894   1.034
16459WAT      O49618   9.236   3.801   7.809
16459WAT     H149619   9.318   3.756   7.775
16459WAT     H249620   9.249   3.901   7.805
16460WAT      O49621   3.711   9.306   7.716
16460WAT     H149622   3.741   9.237   7.649
16460WAT     H249623   3.633   9.357   7.679
16461WAT      O49624   5.289   0.128   0.321
16461WAT     H149625   5.221   0.111   0.392
16461WAT     H249626   5.258   0.088   0.235
16462WAT      O49627   4.174   0.468   0.499
16462WAT     H149628   4.211   0.555   0.530
16462WAT     H249629   4.243   0.396   0.512
16463WAT      O49630   8.700   2.750   8.007
16463WAT     H149631   8.799   2.751   8.023
16463WAT     H249632   8.673   2.833   7.958
16464WAT      O49633   4.475   2.093   7.947
16464WAT     H149634   4.548   2.057   7.889
16464WAT     H249635   4.411   2.147   7.892
16465WAT      O49636   3.111   7.994   8.530
16465WAT     H149637   3.070   7.917   8.578
16465WAT     H249638   3.083   8.080   8.573
16466WAT      O49639   0.036   6.492   0.484
16466WAT     H149640   0.105   6.420   0.474
16466WAT     H249641  -0.033   6.482   0.413
16467WAT      O49642   3.888   7.737   0.733
16467WAT     H149643   3.959   7.694   0.790
16467WAT     H249644   3.827   7.790   0.791
16468WAT      O49645   8.456   2.673   5.303
16468WAT     H149646   8.384   2.648   5.368
16468WAT     H249647   8.526   2.728   5.349
16469WAT      O49648   2.475   5.924   7.763
16469WAT     H149649   2.547   5.993   7.771
16469WAT     H249650   2.515   5.839   7.730
16470WAT      O49651   0.235   4.290   1.826
16470WAT     H149652   0.220   4.277   1.924
16470WAT     H249653   0.333   4.301   1.808
16471WAT      O49654   7.037   4.284   3.729
16471WAT     H149655   7.068   4.379   3.720
16471WAT     H249656   6.949   4.273   3.682
16472WAT      O49657   1.217   6.991   1.159
16472WAT     H149658   1.243   7.065   1.096
16472WAT     H249659   1.217   7.025   1.253
16473WAT      O49660   7.139   7.464   5.647
16473WAT     H149661   7.183   7.430   5.730
16473WAT     H249662   7.056   7.514   5.672
16474WAT      O49663   5.956   6.118   8.752
16474WAT     H149664   5.975   6.214   8.732
16474WAT     H249665   5.993   6.061   8.679
16475WAT      O49666   0.533   4.699   9.437
16475WAT     H149667   0.458   4.746   9.390
16475WAT     H249668   0.558   4.751   9.519
16476WAT      O49669   1.728   1.200   2.794
16476WAT     H149670   1.704   1.242   2.707
16476WAT     H249671   1.721   1.100   2.786
16477WAT      O49672   8.116   6.050   1.575
16477WAT     H149673   8.146   6.143   1.555
16477WAT     H249674   8.064   6.049   1.660
16478WAT      O49675   1.730   4.029   7.850
16478WAT     H149676   1.752   4.115   7.895
16478WAT     H249677   1.754   4.034   7.754
16479WAT      O49678   8.021   3.546   6.978
16479WAT     H149679   7.947   3.526   7.042
16479WAT     H249680   8.103   3.493   7.004
16480WAT      O49681   3.180   0.343   8.498
16480WAT     H149682   3.247   0.400   8.450
16480WAT     H249683   3.098   0.397   8.517
16481WAT      O49684   1.285   4.788   6.845
16481WAT     H149685   1.289   4.776   6.944
16481WAT     H249686   1.378   4.802   6.809
16482WAT      O49687   6.099   3.286   1.205
16482WAT     H149688   6.132   3.363   1.150
16482WAT     H249689   6.033   3.321   1.273
16483WAT      O49690   9.389   6.951   3.349
16483WAT     H149691   9.358   6.856   3.345
16483WAT     H249692   9.489   6.954   3.346
16484WAT      O49693   8.292   0.284   9.631
16484WAT     H149694   8.343   0.363   9.599
16484WAT     H249695   8.197   0.310   9.646
16485WAT      O49696   3.410   5.108   8.542
16485WAT     H149697   3.388   5.177   8.472
16485WAT     H249698   3.500   5.071   8.524
16486WAT      O49699   6.904   1.083   1.302
16486WAT     H149700   6.886   1.163   1.245
16486WAT     H249701   6.819   1.031   1.315
16487WAT      O49702   2.163   7.864   7.345
16487WAT     H149703   2.214   7.778   7.337
16487WAT     H249704   2.206   7.933   7.287
16488WAT      O49705   6.205   2.049   9.794
16488WAT     H149706   6.299   2.076   9.772
16488WAT     H249707   6.171   2.106   9.868
16489WAT      O49708   7.623   5.216   5.564
16489WAT     H149709   7.526   5.240   5.576
16489WAT     H249710   7.634   5.117   5.569
16490WAT      O49711   0.013   9.155   3.718
16490WAT     H149712   0.052   9.213   3.647
16490WAT     H249713  -0.083   9.178   3.732
16491WAT      O49714   4.265   4.542   7.095
16491WAT     H149715   4.340   4.606   7.108
16491WAT     H249716   4.259   4.518   6.998
16492WAT      O49717   3.694   1.866   5.470
16492WAT     H149718   3.627   1.802   5.507
16492WAT     H249719   3.786   1.832   5.489
16493WAT      O49720   3.381   0.333   2.652
16493WAT     H149721   3.409   0.335   2.747
16493WAT     H249722   3.461   0.321   2.593
16494WAT      O49723   0.414   2.578   3.070
16494WAT     H149724   0.389   2.636   2.992
16494WAT     H249725   0.372   2.615   3.153
16495WAT      O49726   4.398   1.075   2.795
16495WAT     H149727   4.359   1.071   2.703
16495WAT     H249728   4.394   0.985   2.837
16496WAT      O49729   4.754   8.675   5.282
16496WAT     H149730   4.683   8.735   5.319
16496WAT     H249731   4.738   8.662   5.184
16497WAT      O49732   4.463   9.651   6.955
16497WAT     H149733   4.427   9.609   7.038
16497WAT     H249734   4.482   9.748   6.972
16498WAT      O49735   0.474   0.533   3.085
16498WAT     H149736   0.513   0.487   3.005
16498WAT     H249737   0.539   0.601   3.119
16499WAT      O49738   4.138   3.149   5.339
16499WAT     H149739   4.046   3.183   5.319
16499WAT     H249740   4.140   3.050   5.325
16500WAT      O49741   2.605   6.781   1.739
16500WAT     H149742   2.532   6.728   1.781
16500WAT     H249743   2.594   6.878   1.762
16501WAT      O49744   2.145   8.061   0.625
16501WAT     H149745   2.141   7.994   0.551
16501WAT     H249746   2.198   8.023   0.701
16502WAT      O49747   2.320   3.865   0.630
16502WAT     H149748   2.340   3.904   0.720
16502WAT     H249749   2.345   3.930   0.559
16503WAT      O49750   8.004   3.699   4.439
16503WAT     H149751   7.974   3.605   4.454
16503WAT     H249752   8.047   3.734   4.522
16504WAT      O49753   2.063   2.641   1.991
16504WAT     H149754   2.081   2.585   1.910
16504WAT     H249755   2.022   2.728   1.962
16505WAT      O49756   8.895   7.220   3.738
16505WAT     H149757   8.881   7.137   3.684
16505WAT     H249758   8.945   7.197   3.821
16506WAT      O49759   7.138   9.186   3.520
16506WAT     H149760   7.109   9.190   3.424
16506WAT     H249761   7.172   9.095   3.540
16507WAT      O49762   8.484   5.939   6.790
16507WAT     H149763   8.574   5.896   6.777
16507WAT     H249764   8.473   5.964   6.886
16508WAT      O49765   1.494   2.344   2.268
16508WAT     H149766   1.462   2.437   2.290
16508WAT     H249767   1.560   2.316   2.337
16509WAT      O49768   1.881   4.606   7.127
16509WAT     H149769   1.795   4.566   7.097
16509WAT     H249770   1.942   4.619   7.048
16510WAT      O49771   8.673   7.284   3.261
16510WAT     H149772   8.650   7.376   3.230
16510WAT     H249773   8.763   7.258   3.228
16511WAT      O49774   6.086   2.468   5.394
16511WAT     H149775   6.081   2.482   5.493
16511WAT     H249776   6.064   2.373   5.373
16512WAT      O49777   7.762   5.619   5.755
16512WAT     H149778   7.770   5.529   5.711
16512WAT     H249779   7.675   5.662   5.727
16513WAT      O49780   9.257   2.142   1.487
16513WAT     H149781   9.197   2.149   1.567
16513WAT     H249782   9.205   2.108   1.409
16514WAT      O49783   6.395   6.502   0.805
16514WAT     H149784   6.370   6.410   0.835
16514WAT     H249785   6.492   6.505   0.782
16515WAT      O49786   5.947   9.143   5.936
16515WAT     H149787   6.005   9.196   5.874
16515WAT     H249788   5.885   9.086   5.883
16516WAT      O49789   6.132   5.614   4.315
16516WAT     H149790   6.126   5.555   4.234
16516WAT     H249791   6.153   5.559   4.395
16517WAT      O49792   7.056   4.007   3.837
16517WAT     H149793   7.047   4.105   3.821
16517WAT     H249794   6.979   3.974   3.892
16518WAT      O49795   3.131   0.323   9.097
16518WAT     H149796   3.106   0.226   9.095
16518WAT     H249797   3.051   0.378   9.121
16519WAT      O49798   3.734   3.356   2.714
16519WAT     H149799   3.734   3.279   2.650
16519WAT     H249800   3.709   3.324   2.805
16520WAT      O49801   1.926   3.253   7.009
16520WAT     H149802   1.870   3.335   7.006
16520WAT     H249803   1.889   3.185   6.945
16521WAT      O49804   6.487   7.194   5.179
16521WAT     H149805   6.579   7.207   5.142
16521WAT     H249806   6.419   7.209   5.107
16522WAT      O49807   6.878   2.008   6.691
16522WAT     H149808   6.873   2.017   6.591
16522WAT     H249809   6.930   2.085   6.728
16523WAT      O49810   1.914   7.113   7.007
16523WAT     H149811   1.823   7.074   7.017
16523WAT     H249812   1.933   7.174   7.084
16524WAT      O49813   9.522   4.954   8.944
16524WAT     H149814   9.463   4.898   8.886
16524WAT     H249815   9.574   5.018   8.886
16525WAT      O49816   9.873   7.627   0.036
16525WAT     H149817   9.915   7.610   0.125
16525WAT     H249818   9.894   7.721   0.007
16526WAT      O49819   9.767   7.767   3.808
16526WAT     H149820   9.862   7.763   3.837
16526WAT     H249821   9.755   7.842   3.743
16527WAT      O49822   5.327   5.290   6.913
16527WAT     H149823   5.398   5.286   6.843
16527WAT     H249824   5.330   5.206   6.968
16528WAT      O49825   3.015   1.157   4.241
16528WAT     H149826   3.071   1.165   4.159
16528WAT     H249827   2.919   1.143   4.216
16529WAT      O49828   1.151   5.014   5.550
16529WAT     H149829   1.218   5.086   5.567
16529WAT     H249830   1.149   4.992   5.452
16530WAT      O49831   8.566   1.456   4.774
16530WAT     H149832   8.616   1.444   4.689
16530WAT     H249833   8.630   1.450   4.851
16531WAT      O49834   9.351   8.608   2.730
16531WAT     H149835   9.444   8.571   2.737
16531WAT     H249836   9.288   8.534   2.703
16532WAT      O49837   0.241   4.295   7.654
16532WAT     H149838   0.300   4.368   7.689
16532WAT     H249839   0.158   4.336   7.615
16533WAT      O49840   0.944   8.541   5.647
16533WAT     H149841   0.881   8.612   5.679
16533WAT     H249842   0.901   8.452   5.657
16534WAT      O49843   6.662   2.224   1.972
16534WAT     H149844   6.707   2.203   2.059
16534WAT     H249845   6.725   2.276   1.914
16535WAT      O49846   9.848   5.217   0.635
16535WAT     H149847   9.855   5.308   0.674
16535WAT     H249848   9.906   5.212   0.553
16536WAT      O49849   8.617   5.635   3.883
16536WAT     H149850   8.588   5.724   3.920
16536WAT     H249851   8.693   5.600   3.939
16537WAT      O49852   6.891   6.705   4.458
16537WAT     H149853   6.844   6.684   4.372
16537WAT     H249854   6.843   6.663   4.534
16538WAT      O49855   3.002   3.527   1.972
16538WAT     H149856   3.046   3.558   2.056
16538WAT     H249857   2.907   3.558   1.971
16539WAT      O49858   3.477   2.124   3.537
16539WAT     H149859   3.537   2.157   3.610
16539WAT     H249860   3.385   2.110   3.573
16540WAT      O49861   0.776   6.146   0.671
16540WAT     H149862   0.773   6.050   0.699
16540WAT     H249863   0.742   6.204   0.745
16541WAT      O49864   3.592   7.563   6.534
16541WAT     H149865   3.671   7.503   6.547
16541WAT     H249866   3.623   7.651   6.497
16542WAT      O49867   3.581   2.077   4.107
16542WAT     H149868   3.658   2.137   4.085
16542WAT     H249869   3.570   2.009   4.034
16543WAT      O49870   5.265   7.933   2.632
16543WAT     H149871   5.246   7.928   2.534
16543WAT     H249872   5.331   7.863   2.658
16544WAT      O49873   0.630   2.484   6.738
16544WAT     H149874   0.588   2.519   6.654
16544WAT     H249875   0.692   2.553   6.776
16545WAT      O49876   2.734   7.486   8.773
16545WAT     H149877   2.733   7.395   8.732
16545WAT     H249878   2.713   7.479   8.871
16546WAT      O49879   0.898   4.198   4.660
16546WAT     H149880   0.903   4.211   4.561
16546WAT     H249881   0.939   4.277   4.706
16547WAT      O49882   8.317   5.859   6.150
16547WAT     H149883   8.243   5.830   6.089
16547WAT     H249884   8.278   5.894   6.235
16548WAT      O49885   6.584   8.358   4.295
16548WAT     H149886   6.575   8.368   4.394
16548WAT     H249887   6.581   8.261   4.270
16549WAT      O49888   3.865   3.285   8.892
16549WAT     H149889   3.933   3.220   8.927
16549WAT     H249890   3.777   3.240   8.883
16550WAT      O49891   1.396   7.770   4.568
16550WAT     H149892   1.475   7.827   4.589
16550WAT     H249893   1.314   7.826   4.560
16551WAT      O49894   6.029   7.595   0.808
16551WAT     H149895   5.974   7.573   0.889
16551WAT     H249896   6.075   7.512   0.776
16552WAT      O49897   5.779   2.628   0.667
16552WAT     H149898   5.870   2.597   0.693
16552WAT     H249899   5.765   2.723   0.695
16553WAT      O49900   7.925   1.522   0.510
16553WAT     H149901   7.908   1.515   0.411
16553WAT     H249902   7.955   1.614   0.532
16554WAT      O49903   2.931   6.468   4.960
16554WAT     H149904   2.920   6.433   5.053
16554WAT     H249905   2.842   6.476   4.917
16555WAT      O49906   3.745   6.079   3.190
16555WAT     H149907   3.803   6.090   3.109
16555WAT     H249908   3.738   5.982   3.213
16556WAT      O49909   9.351   5.518   9.079
16556WAT     H149910   9.287   5.592   9.060
16556WAT     H249911   9.445   5.550   9.066
16557WAT      O49912   1.846   6.328   5.816
16557WAT     H149913   1.870   6.235   5.841
16557WAT     H249914   1.756   6.329   5.772
16558WAT      O49915   0.229   1.932   4.900
16558WAT     H149916   0.165   1.872   4.851
16558WAT     H249917   0.245   2.015   4.846
16559WAT      O49918   7.948   5.167   0.687
16559WAT     H149919   7.878   5.095   0.686
16559WAT     H249920   7.952   5.208   0.778
16560WAT      O49921   3.059   7.431   7.263
16560WAT     H149922   3.038   7.437   7.361
16560WAT     H249923   3.055   7.523   7.223
16561WAT      O49924   9.572   5.622   4.350
16561WAT     H149925   9.575   5.567   4.266
16561WAT     H249926   9.501   5.692   4.341
16562WAT      O49927   8.648   8.559   1.770
16562WAT     H149928   8.689   8.478   1.812
16562WAT     H249929   8.647   8.634   1.836
16563WAT      O49930   4.498   6.479   3.859
16563WAT     H149931   4.569   6.494   3.928
16563WAT     H249932   4.541   6.461   3.771
16564WAT      O49933   8.300   2.202   6.155
16564WAT     H149934   8.273   2.188   6.060
16564WAT     H249935   8.240   2.269   6.197
16565WAT      O49936   2.259   6.427   9.135
16565WAT     H149937   2.275   6.509   9.079
16565WAT     H249938   2.264   6.346   9.076
16566WAT      O49939   2.219   5.774   7.141
16566WAT     H149940   2.165   5.858   7.146
16566WAT     H249941   2.253   5.761   7.048
16567WAT      O49942   7.956   5.392   4.696
16567WAT     H149943   7.871   5.445   4.693
16567WAT     H249944   8.007   5.405   4.611
16568WAT      O49945   4.821   5.239   9.200
16568WAT     H149946   4.742   5.181   9.179
16568WAT     H249947   4.888   5.186   9.252
16569WAT      O49948   7.921   0.974   9.680
16569WAT     H149949   7.900   0.880   9.656
16569WAT     H249950   7.837   1.021   9.708
16570WAT      O49951   7.458   4.121   6.173
16570WAT     H149952   7.422   4.167   6.254
16570WAT     H249953   7.520   4.048   6.200
16571WAT      O49954   2.318   4.692   3.180
16571WAT     H149955   2.276   4.741   3.257
16571WAT     H249956   2.323   4.594   3.201
16572WAT      O49957   4.328   3.858   3.339
16572WAT     H149958   4.339   3.947   3.296
16572WAT     H249959   4.254   3.862   3.406
16573WAT      O49960   2.313   2.002   6.287
16573WAT     H149961   2.284   2.090   6.250
16573WAT     H249962   2.350   2.014   6.379
16574WAT      O49963   0.088   1.798   1.905
16574WAT     H149964   0.134   1.728   1.850
16574WAT     H249965   0.048   1.866   1.844
16575WAT      O49966   8.869   8.443   3.341
16575WAT     H149967   8.819   8.527   3.315
16575WAT     H249968   8.963   8.467   3.366
16576WAT      O49969   7.934   5.856   3.002
16576WAT     H149970   7.930   5.795   2.923
16576WAT     H249971   7.989   5.936   2.980
16577WAT      O49972   7.306   4.232   1.979
16577WAT     H149973   7.361   4.190   2.051
16577WAT     H249974   7.365   4.285   1.919
16578WAT      O49975   5.865   8.480   8.166
16578WAT     H149976   5.861   8.477   8.066
16578WAT     H249977   5.960   8.469   8.196
16579WAT      O49978   9.515   1.341   2.924
16579WAT     H149979   9.471   1.287   2.996
16579WAT     H249980   9.594   1.389   2.961
16580WAT      O49981   5.795   7.791   6.653
16580WAT     H149982   5.871   7.787   6.588
16580WAT     H249983   5.806   7.871   6.712
16581WAT      O49984   7.314   7.783   7.972
16581WAT     H149985   7.381   7.810   7.902
16581WAT     H249986   7.355   7.793   8.063
16582WAT      O49987   3.817   3.926   3.014
16582WAT     H149988   3.809   3.902   2.917
16582WAT     H249989   3.864   4.014   3.022
16583WAT      O49990   1.537   2.963   5.077
16583WAT     H149991   1.608   3.021   5.037
16583WAT     H249992   1.449   3.009   5.074
16584WAT      O49993   8.764   6.946   5.385
16584WAT     H149994   8.825   6.914   5.313
16584WAT     H249995   8.815   7.003   5.449
16585WAT      O49996   0.262   2.695   6.563
16585WAT     H149997   0.259   2.613   6.621
16585WAT     H249998   0.205   2.681   6.482
16586WAT      O49999   5.345   4.540   2.543
16586WAT     H150000   5.316   4.489   2.461
16586WAT     H250001   5.445   4.538   2.549
16587WAT      O50002   8.439   9.154   3.956
16587WAT     H150003   8.376   9.091   3.911
16587WAT     H250004   8.469   9.223   3.890
16588WAT      O50005   3.044   6.055   9.411
16588WAT     H150006   3.135   6.028   9.380
16588WAT     H250007   3.023   6.147   9.379
16589WAT      O50008   9.700   2.171   1.647
16589WAT     H150009   9.765   2.244   1.624
16589WAT     H250010   9.640   2.154   1.569
16590WAT      O50011   8.062   0.197   8.944
16590WAT     H150012   8.144   0.239   8.904
16590WAT     H250013   8.088   0.122   9.004
16591WAT      O50014   8.414   7.870   8.517
16591WAT     H150015   8.452   7.887   8.608
16591WAT     H250016   8.428   7.951   8.460
16592WAT      O50017   2.907   7.477   0.821
16592WAT     H150018   2.885   7.559   0.874
16592WAT     H250019   2.892   7.396   0.877
16593WAT      O50020   9.125   8.203   3.336
16593WAT     H150021   9.063   8.208   3.258
16593WAT     H250022   9.107   8.120   3.389
16594WAT      O50023   8.875   6.779   8.710
16594WAT     H150024   8.930   6.698   8.731
16594WAT     H250025   8.879   6.842   8.788
16595WAT      O50026   1.823   4.718   7.564
16595WAT     H150027   1.817   4.813   7.535
16595WAT     H250028   1.877   4.712   7.648
16596WAT      O50029   1.254   6.710   3.160
16596WAT     H150030   1.175   6.655   3.135
16596WAT     H250031   1.336   6.652   3.159
16597WAT      O50032   2.318   0.500   3.337
16597WAT     H150033   2.347   0.527   3.428
16597WAT     H250034   2.229   0.540   3.316
16598WAT      O50035   0.042   9.283   5.191
16598WAT     H150036  -0.052   9.306   5.168
16598WAT     H250037   0.048   9.185   5.209
16599WAT      O50038   4.888   3.962   0.200
16599WAT     H150039   4.928   3.874   0.175
16599WAT     H250040   4.957   4.019   0.244
16600WAT      O50041   4.081   6.118   9.410
16600WAT     H150042   4.099   6.201   9.462
16600WAT     H250043   4.103   6.038   9.466
16601WAT      O50044   7.503   3.363   6.899
16601WAT     H150045   7.580   3.420   6.872
16601WAT     H250046   7.420   3.419   6.902
16602WAT      O50047   5.084   2.906   9.438
16602WAT     H150048   5.170   2.882   9.391
16602WAT     H250049   5.072   3.005   9.436
16603WAT      O50050   5.413   8.095   5.859
16603WAT     H150051   5.428   8.018   5.796
16603WAT     H250052   5.374   8.172   5.810
16604WAT      O50053   4.894   3.190   6.527
16604WAT     H150054   4.992   3.209   6.518
16604WAT     H250055   4.854   3.176   6.437
16605WAT      O50056   8.014   1.858   6.392
16605WAT     H150057   8.056   1.920   6.326
16605WAT     H250058   8.076   1.844   6.469
16606WAT      O50059   1.893   6.059   9.049
16606WAT     H150060   1.843   6.067   9.135
16606WAT     H250061   1.944   5.973   9.048
16607WAT      O50062   7.644   5.434   2.522
16607WAT     H150063   7.677   5.443   2.616
16607WAT     H250064   7.689   5.502   2.465
16608WAT      O50065   9.031   7.864   4.519
16608WAT     H150066   9.020   7.907   4.430
16608WAT     H250067   9.032   7.764   4.508
16609WAT      O50068   9.425   5.240   4.836
16609WAT     H150069   9.403   5.336   4.854
16609WAT     H250070   9.363   5.204   4.767
16610WAT      O50071   1.849   2.781   6.673
16610WAT     H150072   1.863   2.829   6.587
16610WAT     H250073   1.886   2.836   6.748
16611WAT      O50074   3.749   3.503   2.402
16611WAT     H150075   3.671   3.539   2.453
16611WAT     H250076   3.784   3.574   2.341
16612WAT      O50077   2.738   8.794   3.563
16612WAT     H150078   2.696   8.868   3.510
16612WAT     H250079   2.668   8.725   3.585
16613WAT      O50080   7.585   5.553   3.527
16613WAT     H150081   7.585   5.625   3.596
16613WAT     H250082   7.491   5.522   3.512
16614WAT      O50083   9.875   7.821   1.787
16614WAT     H150084   9.798   7.762   1.765
16614WAT     H250085   9.914   7.794   1.875
16615WAT      O50086   1.758   1.376   5.585
16615WAT     H150087   1.730   1.420   5.670
16615WAT     H250088   1.821   1.436   5.535
16616WAT      O50089   9.624   3.615   5.691
16616WAT     H150090   9.688   3.542   5.665
16616WAT     H250091   9.599   3.668   5.611
16617WAT      O50092   8.216   2.458   2.798
16617WAT     H150093   8.276   2.435   2.721
16617WAT     H250094   8.258   2.532   2.851
16618WAT      O50095   3.536   2.324   4.676
16618WAT     H150096   3.554   2.421   4.659
16618WAT     H250097   3.468   2.315   4.749
16619WAT      O50098   7.354   3.546   3.365
16619WAT     H150099   7.366   3.632   3.415
16619WAT     H250100   7.311   3.478   3.424
16620WAT      O50101   8.773   7.733   2.933
16620WAT     H150102   8.793   7.694   2.843
16620WAT     H250103   8.842   7.801   2.957
16621WAT      O50104   7.819   3.854   4.286
16621WAT     H150105   7.728   3.820   4.308
16621WAT     H250106   7.886   3.811   4.347
16622WAT      O50107   1.991   2.414   2.132
16622WAT     H150108   1.899   2.394   2.100
16622WAT     H250109   2.008   2.513   2.127
16623WAT      O50110   8.192   5.375   3.746
16623WAT     H150111   8.098   5.376   3.711
16623WAT     H250112   8.239   5.294   3.711
16624WAT      O50113   9.851   1.097   4.671
16624WAT     H150114   9.791   1.017   4.669
16624WAT     H250115   9.812   1.166   4.732
16625WAT      O50116   2.027   5.149   4.351
16625WAT     H150117   2.091   5.101   4.292
16625WAT     H250118   1.959   5.197   4.295
16626WAT      O50119   2.681   6.667   5.130
16626WAT     H150120   2.586   6.672   5.097
16626WAT     H250121   2.742   6.704   5.060
16627WAT      O50122   1.615   8.181   8.943
16627WAT     H150123   1.523   8.166   8.907
16627WAT     H250124   1.670   8.229   8.874
16628WAT      O50125   8.152   7.056   1.264
16628WAT     H150126   8.100   7.036   1.347
16628WAT     H250127   8.141   6.980   1.199
16629WAT      O50128   5.783   7.305   9.438
16629WAT     H150129   5.699   7.251   9.434
16629WAT     H250130   5.812   7.328   9.345
16630WAT      O50131   3.294   0.566   5.730
16630WAT     H150132   3.238   0.563   5.647
16630WAT     H250133   3.334   0.476   5.746
16631WAT      O50134   1.284   8.834   3.975
16631WAT     H150135   1.252   8.742   3.954
16631WAT     H250136   1.372   8.850   3.931
16632WAT      O50137   8.395   1.997   7.693
16632WAT     H150138   8.424   1.971   7.785
16632WAT     H250139   8.316   1.942   7.666
16633WAT      O50140   5.537   8.111   1.550
16633WAT     H150141   5.620   8.056   1.543
16633WAT     H250142   5.560   8.202   1.585
16634WAT      O50143   8.974   0.065   9.864
16634WAT     H150144   9.029   0.149   9.863
16634WAT     H250145   8.980   0.020   9.775
16635WAT      O50146   2.398   8.738   2.804
16635WAT     H150147   2.389   8.738   2.704
16635WAT     H250148   2.482   8.785   2.830
16636WAT      O50149   1.601   7.843   3.117
16636WAT     H150150   1.619   7.746   3.103
16636WAT     H250151   1.513   7.855   3.163
16637WAT      O50152   2.941   6.640   6.099
16637WAT     H150153   2.945   6.667   6.195
16637WAT     H250154   3.023   6.672   6.051
16638WAT      O50155   3.852   3.713   8.819
16638WAT     H150156   3.940   3.738   8.779
16638WAT     H250157   3.847   3.748   8.912
16639WAT      O50158   0.677   6.024   9.488
16639WAT     H150159   0.639   6.032   9.580
16639WAT     H250160   0.704   6.115   9.456
16640WAT      O50161   1.956   9.190   3.357
16640WAT     H150162   1.991   9.121   3.419
16640WAT     H250163   1.963   9.280   3.400
16641WAT      O50164   2.848   0.814   0.434
16641WAT     H150165   2.806   0.803   0.524
16641WAT     H250166   2.946   0.832   0.444
16642WAT      O50167   8.709   4.408   6.905
16642WAT     H150168   8.611   4.385   6.902
16642WAT     H250169   8.763   4.325   6.900
16643WAT      O50170   7.602   9.155   0.687
16643WAT     H150171   7.531   9.100   0.645
16643WAT     H250172   7.692   9.116   0.665
16644WAT      O50173   6.452   5.756   4.575
16644WAT     H150174   6.521   5.770   4.505
16644WAT     H250175   6.370   5.810   4.553
16645WAT      O50176   4.496   6.163   8.880
16645WAT     H150177   4.497   6.180   8.781
16645WAT     H250178   4.404   6.182   8.915
16646WAT      O50179   4.550   9.296   8.959
16646WAT     H150180   4.489   9.270   9.034
16646WAT     H250181   4.635   9.243   8.966
16647WAT      O50182   9.780   1.436   0.687
16647WAT     H150183   9.732   1.523   0.675
16647WAT     H250184   9.787   1.389   0.599
16648WAT      O50185   5.965   3.602   2.155
16648WAT     H150186   6.006   3.554   2.077
16648WAT     H250187   5.928   3.690   2.123
16649WAT      O50188   7.687   7.347   9.541
16649WAT     H150189   7.666   7.402   9.622
16649WAT     H250190   7.718   7.407   9.467
16650WAT      O50191   9.005   5.269   3.722
16650WAT     H150192   9.004   5.224   3.812
16650WAT     H250193   9.088   5.323   3.713
16651WAT      O50194   0.152   7.017   5.851
16651WAT     H150195   0.055   7.042   5.853
16651WAT     H250196   0.169   6.955   5.774
16652WAT      O50197   0.319   7.213   1.593
16652WAT     H150198   0.340   7.197   1.497
16652WAT     H250199   0.400   7.193   1.649
16653WAT      O50200   6.406   8.211   9.302
16653WAT     H150201   6.493   8.168   9.325
16653WAT     H250202   6.331   8.156   9.338
16654WAT      O50203   6.974   2.926   8.107
16654WAT     H150204   7.001   3.022   8.114
16654WAT     H250205   7.027   2.872   8.172
16655WAT      O50206   4.612   0.976   7.392
16655WAT     H150207   4.569   1.009   7.308
16655WAT     H250208   4.641   1.054   7.448
16656WAT      O50209   9.839   6.673   5.788
16656WAT     H150210   9.866   6.578   5.797
16656WAT     H250211   9.810   6.708   5.877
16657WAT      O50212   3.452   6.499   5.973
16657WAT     H150213   3.371   6.558   5.974
16657WAT     H250214   3.460   6.454   5.884
16658WAT      O50215   3.067   8.579   2.034
16658WAT     H150216   3.076   8.558   1.936
16658WAT     H250217   3.117   8.512   2.087
16659WAT      O50218   2.478   0.452   9.068
16659WAT     H150219   2.446   0.520   9.134
16659WAT     H250220   2.420   0.455   8.987
16660WAT      O50221   7.165   4.696   5.607
16660WAT     H150222   7.243   4.633   5.598
16660WAT     H250223   7.192   4.776   5.660
16661WAT      O50224   2.212   2.929   8.110
16661WAT     H150225   2.229   2.959   8.017
16661WAT     H250226   2.288   2.958   8.169
16662WAT      O50227   7.639   6.397   5.281
16662WAT     H150228   7.631   6.494   5.257
16662WAT     H250229   7.653   6.343   5.198
16663WAT      O50230   2.683   1.245   9.234
16663WAT     H150231   2.644   1.155   9.256
16663WAT     H250232   2.613   1.302   9.192
16664WAT      O50233   4.481   2.431   6.749
16664WAT     H150234   4.395   2.386   6.774
16664WAT     H250235   4.540   2.436   6.830
16665WAT      O50236   3.579   0.201   2.291
16665WAT     H150237   3.651   0.231   2.228
16665WAT     H250238   3.577   0.262   2.370
16666WAT      O50239   5.992   4.986   4.073
16666WAT     H150240   6.047   5.041   4.136
16666WAT     H250241   6.023   4.891   4.075
16667WAT      O50242   3.293   1.525   8.997
16667WAT     H150243   3.334   1.434   9.005
16667WAT     H250244   3.315   1.579   9.079
16668WAT      O50245   9.551   8.719   5.338
16668WAT     H150246   9.499   8.714   5.253
16668WAT     H250247   9.521   8.646   5.400
16669WAT      O50248   3.373   4.213   9.030
16669WAT     H150249   3.468   4.194   9.052
16669WAT     H250250   3.316   4.137   9.061
16670WAT      O50251   5.663   9.301   8.993
16670WAT     H150252   5.746   9.334   9.037
16670WAT     H250253   5.584   9.321   9.051
16671WAT      O50254   6.461   3.651   5.001
16671WAT     H150255   6.442   3.626   4.906
16671WAT     H250256   6.379   3.692   5.041
16672WAT      O50257   3.200   2.451   1.888
16672WAT     H150258   3.114   2.485   1.848
16672WAT     H250259   3.277   2.494   1.842
16673WAT      O50260   7.344   3.583   1.416
16673WAT     H150261   7.381   3.561   1.506
16673WAT     H250262   7.250   3.551   1.410
16674WAT      O50263   6.597   1.282   0.635
16674WAT     H150264   6.689   1.299   0.600
16674WAT     H250265   6.598   1.199   0.692
16675WAT      O50266   7.570   5.102   4.709
16675WAT     H150267   7.629   5.104   4.628
16675WAT     H250268   7.474   5.099   4.681
16676WAT      O50269   3.423   7.571   1.311
16676WAT     H150270   3.380   7.652   1.352
16676WAT     H250271   3.388   7.489   1.356
16677WAT      O50272   2.563   2.089   4.091
16677WAT     H150273   2.576   2.051   4.000
16677WAT     H250274   2.653   2.111   4.130
16678WAT      O50275   9.658   3.129   6.614
16678WAT     H150276   9.575   3.176   6.641
16678WAT     H250277   9.727   3.196   6.586
16679WAT      O50278   1.955   4.656   7.779
16679WAT     H150279   2.050   4.639   7.805
16679WAT     H250280   1.913   4.717   7.846
16680WAT      O50281   5.382   1.416   7.359
16680WAT     H150282   5.459   1.476   7.336
16680WAT     H250283   5.299   1.450   7.316
16681WAT      O50284   0.763   8.229   5.127
16681WAT     H150285   0.762   8.270   5.218
16681WAT     H250286   0.857   8.208   5.101
16682WAT      O50287   1.281   1.643   6.355
16682WAT     H150288   1.359   1.590   6.389
16682WAT     H250289   1.273   1.728   6.406
16683WAT      O50290   1.849   2.746   9.092
16683WAT     H150291   1.827   2.841   9.116
16683WAT     H250292   1.940   2.743   9.050
16684WAT      O50293   7.938   8.260   8.638
16684WAT     H150294   7.891   8.219   8.717
16684WAT     H250295   7.958   8.356   8.657
16685WAT      O50296   5.141   8.085   3.662
16685WAT     H150297   5.217   8.147   3.645
16685WAT     H250298   5.146   8.052   3.756
16686WAT      O50299   1.324   6.405   6.088
16686WAT     H150300   1.350   6.393   5.992
16686WAT     H250301   1.281   6.322   6.121
16687WAT      O50302   9.869   4.131   6.056
16687WAT     H150303   9.950   4.187   6.036
16687WAT     H250304   9.798   4.188   6.096
16688WAT      O50305   8.231   4.696   7.700
16688WAT     H150306   8.299   4.742   7.643
16688WAT     H250307   8.160   4.655   7.642
16689WAT      O50308   5.471   1.833   1.248
16689WAT     H150309   5.394   1.896   1.239
16689WAT     H250310   5.553   1.883   1.272
16690WAT      O50311   7.882   8.533   9.680
16690WAT     H150312   7.944   8.513   9.756
16690WAT     H250313   7.844   8.624   9.691
16691WAT      O50314   5.917   5.036   0.875
16691WAT     H150315   5.884   5.026   0.781
16691WAT     H250316   5.911   4.947   0.922
16692WAT      O50317   7.997   2.512   8.690
16692WAT     H150318   8.091   2.481   8.685
16692WAT     H250319   7.985   2.592   8.631
16693WAT      O50320   4.672   2.669   7.556
16693WAT     H150321   4.601   2.633   7.497
16693WAT     H250322   4.762   2.653   7.514
16694WAT      O50323   7.691   7.596   8.999
16694WAT     H150324   7.682   7.511   9.050
16694WAT     H250325   7.741   7.662   9.055
16695WAT      O50326   8.993   9.714   7.879
16695WAT     H150327   9.050   9.705   7.961
16695WAT     H250328   8.930   9.637   7.874
16696WAT      O50329   8.337   6.711   1.399
16696WAT     H150330   8.417   6.664   1.436
16696WAT     H250331   8.293   6.653   1.331
16697WAT      O50332   5.918   4.952   1.376
16697WAT     H150333   5.988   4.920   1.312
16697WAT     H250334   5.935   4.913   1.466
16698WAT      O50335   9.203   5.494   3.519
16698WAT     H150336   9.265   5.473   3.595
16698WAT     H250337   9.127   5.550   3.553
16699WAT      O50338   8.751   6.062   7.890
16699WAT     H150339   8.842   6.102   7.890
16699WAT     H250340   8.757   5.963   7.904
16700WAT      O50341   3.749   7.427   8.479
16700WAT     H150342   3.713   7.337   8.457
16700WAT     H250343   3.848   7.421   8.491
16701WAT      O50344   0.763   6.572   7.400
16701WAT     H150345   0.849   6.551   7.446
16701WAT     H250346   0.708   6.634   7.457
16702WAT      O50347   8.513   9.482   9.675
16702WAT     H150348   8.458   9.464   9.594
16702WAT     H250349   8.489   9.572   9.711
16703WAT      O50350   8.149   5.754   3.537
16703WAT     H150351   8.210   5.677   3.522
16703WAT     H250352   8.163   5.791   3.629
16704WAT      O50353   0.620   7.847   3.217
16704WAT     H150354   0.664   7.806   3.137
16704WAT     H250355   0.591   7.941   3.195
16705WAT      O50356   4.004   6.768   8.272
16705WAT     H150357   4.036   6.678   8.243
16705WAT     H250358   4.057   6.800   8.350
16706WAT      O50359   9.579   4.571   2.868
16706WAT     H150360   9.540   4.479   2.867
16706WAT     H250361   9.554   4.618   2.784
16707WAT      O50362   2.559   8.972   5.054
16707WAT     H150363   2.554   8.882   5.010
16707WAT     H250364   2.616   8.966   5.136
16708WAT      O50365   5.243   9.745   5.305
16708WAT     H150366   5.288   9.799   5.376
16708WAT     H250367   5.302   9.668   5.279
16709WAT      O50368   2.470   3.142   1.250
16709WAT     H150369   2.523   3.213   1.297
16709WAT     H250370   2.491   3.144   1.152
16710WAT      O50371   6.691   6.945   0.571
16710WAT     H150372   6.772   7.002   0.585
16710WAT     H250373   6.667   6.900   0.656
16711WAT      O50374   3.215   6.630   2.678
16711WAT     H150375   3.174   6.547   2.716
16711WAT     H250376   3.152   6.707   2.692
16712WAT      O50377   4.729   8.219   6.543
16712WAT     H150378   4.705   8.239   6.638
16712WAT     H250379   4.667   8.269   6.482
16713WAT      O50380   0.506   2.689   1.866
16713WAT     H150381   0.450   2.610   1.890
16713WAT     H250382   0.589   2.658   1.818
16714WAT      O50383   1.103   9.102   2.050
16714WAT     H150384   1.098   9.173   2.121
16714WAT     H250385   1.136   9.017   2.090
16715WAT      O50386   5.502   8.263   5.107
16715WAT     H150387   5.440   8.329   5.062
16715WAT     H250388   5.580   8.245   5.047
16716WAT      O50389   2.781   9.305   7.552
16716WAT     H150390   2.841   9.264   7.621
16716WAT     H250391   2.691   9.321   7.590
16717WAT      O50392   4.100   4.546   7.702
16717WAT     H150393   4.005   4.521   7.682
16717WAT     H250394   4.105   4.644   7.720
16718WAT      O50395   1.554   5.185   0.336
16718WAT     H150396   1.626   5.158   0.272
16718WAT     H250397   1.480   5.229   0.286
16719WAT      O50398   6.125   1.427   4.945
16719WAT     H150399   6.219   1.405   4.968
16719WAT     H250400   6.114   1.526   4.942
16720WAT      O50401   6.741   4.269   5.143
16720WAT     H150402   6.663   4.332   5.146
16720WAT     H250403   6.825   4.321   5.159
16721WAT      O50404   7.004   5.024   5.813
16721WAT     H150405   7.038   5.107   5.768
16721WAT     H250406   7.063   4.947   5.790
16722WAT      O50407   3.513   6.575   5.563
16722WAT     H150408   3.440   6.635   5.596
16722WAT     H250409   3.513   6.490   5.614
16723WAT      O50410   6.137   1.082   6.794
16723WAT     H150411   6.113   1.127   6.709
16723WAT     H250412   6.079   1.002   6.809
16724WAT      O50413   1.381   0.282   1.977
16724WAT     H150414   1.324   0.351   2.021
16724WAT     H250415   1.469   0.322   1.953
16725WAT      O50416   4.807   6.401   0.215
16725WAT     H150417   4.860   6.486   0.209
16725WAT     H250418   4.710   6.423   0.223
16726WAT      O50419   7.072   0.854   1.735
16726WAT     H150420   7.076   0.820   1.829
16726WAT     H250421   7.143   0.810   1.680
16727WAT      O50422   4.945   9.485   8.236
16727WAT     H150423   4.867   9.439   8.194
16727WAT     H250424   4.982   9.554   8.173
16728WAT      O50425   5.827   5.354   9.783
16728WAT     H150426   5.803   5.447   9.754
16728WAT     H250427   5.905   5.358   9.846
16729WAT      O50428   0.837   5.327   7.291
16729WAT     H150429   0.765   5.382   7.249
16729WAT     H250430   0.866   5.255   7.227
16730WAT      O50431   8.228   3.901   2.203
16730WAT     H150432   8.164   3.945   2.266
16730WAT     H250433   8.313   3.879   2.251
16731WAT      O50434   1.257   2.346   4.988
16731WAT     H150435   1.213   2.265   4.951
16731WAT     H250436   1.354   2.327   5.004
16732WAT      O50437   6.587   1.299   5.757
16732WAT     H150438   6.643   1.216   5.758
16732WAT     H250439   6.560   1.319   5.663
16733WAT      O50440   8.770   4.347   1.774
16733WAT     H150441   8.835   4.272   1.761
16733WAT     H250442   8.819   4.434   1.770
16734WAT      O50443   5.400   4.429   7.955
16734WAT     H150444   5.426   4.466   8.044
16734WAT     H250445   5.404   4.329   7.959
16735WAT      O50446   2.337   8.207   3.564
16735WAT     H150447   2.328   8.183   3.467
16735WAT     H250448   2.258   8.259   3.593
16736WAT      O50449   1.234   4.047   0.404
16736WAT     H150450   1.260   4.055   0.500
16736WAT     H250451   1.138   4.074   0.393
16737WAT      O50452   9.158   0.173   3.509
16737WAT     H150453   9.096   0.241   3.549
16737WAT     H250454   9.245   0.174   3.559
16738WAT      O50455   6.290   1.466   5.440
16738WAT     H150456   6.244   1.388   5.398
16738WAT     H250457   6.366   1.433   5.496
16739WAT      O50458   7.337   9.414   7.211
16739WAT     H150459   7.418   9.429   7.155
16739WAT     H250460   7.255   9.420   7.153
16740WAT      O50461   3.710   0.605   3.512
16740WAT     H150462   3.702   0.703   3.497
16740WAT     H250463   3.754   0.588   3.599
16741WAT      O50464   7.774   5.174   2.807
16741WAT     H150465   7.747   5.136   2.718
16741WAT     H250466   7.832   5.108   2.855
16742WAT      O50467   4.409   9.224   9.662
16742WAT     H150468   4.338   9.241   9.594
16742WAT     H250469   4.419   9.126   9.676
16743WAT      O50470   1.845   9.443   5.406
16743WAT     H150471   1.799   9.376   5.464
16743WAT     H250472   1.942   9.446   5.428
16744WAT      O50473   3.780   9.115   0.531
16744WAT     H150474   3.854   9.182   0.540
16744WAT     H250475   3.741   9.096   0.622
16745WAT      O50476   5.677   4.019   9.725
16745WAT     H150477   5.758   4.042   9.671
16745WAT     H250478   5.681   3.924   9.753
16746WAT      O50479   2.347   0.824   8.358
16746WAT     H150480   2.254   0.857   8.345
16746WAT     H250481   2.344   0.731   8.395
16747WAT      O50482   7.413   5.610   2.268
16747WAT     H150483   7.388   5.698   2.310
16747WAT     H250484   7.510   5.610   2.246
16748WAT      O50485   3.878   7.691   2.397
16748WAT     H150486   3.786   7.728   2.405
16748WAT     H250487   3.876   7.592   2.413
16749WAT      O50488   0.086   2.755   6.356
16749WAT     H150489   0.165   2.784   6.302
16749WAT     H250490   0.022   2.831   6.365
16750WAT      O50491   5.909   2.188   8.509
16750WAT     H150492   5.947   2.127   8.578
16750WAT     H250493   5.928   2.283   8.534
16751WAT      O50494   2.934   2.080   7.584
16751WAT     H150495   2.892   2.121   7.504
16751WAT     H250496   2.968   2.152   7.645
16752WAT      O50497   2.627   6.217   6.316
16752WAT     H150498   2.676   6.132   6.334
16752WAT     H250499   2.550   6.198   6.254
16753WAT      O50500   9.581   9.395   6.709
16753WAT     H150501   9.663   9.369   6.761
16753WAT     H250502   9.501   9.350   6.749
16754WAT      O50503   7.965   8.816   4.272
16754WAT     H150504   7.997   8.744   4.210
16754WAT     H250505   7.902   8.876   4.222
16755WAT      O50506   6.892   6.869   9.567
16755WAT     H150507   6.851   6.957   9.591
16755WAT     H250508   6.972   6.853   9.624
16756WAT      O50509   8.980   2.332   2.810
16756WAT     H150510   9.068   2.284   2.806
16756WAT     H250511   8.993   2.428   2.783
16757WAT      O50512   6.331   3.237   8.292
16757WAT     H150513   6.418   3.230   8.244
16757WAT     H250514   6.336   3.185   8.377
16758WAT      O50515   8.028   9.643   6.206
16758WAT     H150516   7.986   9.732   6.191
16758WAT     H250517   8.051   9.603   6.117
16759WAT      O50518   9.441   1.617   6.373
16759WAT     H150519   9.465   1.710   6.342
16759WAT     H250520   9.365   1.583   6.318
16760WAT      O50521   9.492   4.218   7.401
16760WAT     H150522   9.422   4.147   7.395
16760WAT     H250523   9.583   4.176   7.394
16761WAT      O50524   4.834   8.866   1.838
16761WAT     H150525   4.932   8.849   1.850
16761WAT     H250526   4.805   8.939   1.900
16762WAT      O50527   6.770   5.693   5.964
16762WAT     H150528   6.763   5.792   5.953
16762WAT     H250529   6.866   5.668   5.975
16763WAT      O50530   8.856   9.472   0.758
16763WAT     H150531   8.865   9.454   0.856
16763WAT     H250532   8.759   9.482   0.735
16764WAT      O50533   6.148   5.095   4.271
16764WAT     H150534   6.194   5.184   4.278
16764WAT     H250535   6.149   5.050   4.361
16765WAT      O50536   2.014   7.220   0.289
16765WAT     H150537   1.952   7.184   0.359
16765WAT     H250538   1.963   7.279   0.226
16766WAT      O50539   5.501   1.446   6.408
16766WAT     H150540   5.498   1.540   6.375
16766WAT     H250541   5.530   1.385   6.335
16767WAT      O50542   7.893   4.687   8.464
16767WAT     H150543   7.944   4.612   8.422
16767WAT     H250544   7.797   4.681   8.437
16768WAT      O50545   6.995   7.396   0.220
16768WAT     H150546   7.053   7.332   0.171
16768WAT     H250547   6.930   7.438   0.156
16769WAT      O50548   9.795   4.624   5.067
16769WAT     H150549   9.763   4.618   4.973
16769WAT     H250550   9.879   4.571   5.077
16770WAT      O50551   1.651   9.404   7.594
16770WAT     H150552   1.597   9.321   7.609
16770WAT     H250553   1.614   9.478   7.650
16771WAT      O50554   0.717   2.389   2.501
16771WAT     H150555   0.684   2.463   2.560
16771WAT     H250556   0.812   2.405   2.478
16772WAT      O50557   3.438   1.886   6.676
16772WAT     H150558   3.517   1.923   6.627
16772WAT     H250559   3.413   1.948   6.750
16773WAT      O50560   6.266   1.282   5.874
16773WAT     H150561   6.323   1.331   5.941
16773WAT     H250562   6.324   1.221   5.820
16774WAT      O50563   8.380   9.015   9.219
16774WAT     H150564   8.458   9.007   9.156
16774WAT     H250565   8.408   9.071   9.298
16775WAT      O50566   3.283   8.057   0.551
16775WAT     H150567   3.263   7.973   0.601
16775WAT     H250568   3.369   8.095   0.584
16776WAT      O50569   0.430   3.983   0.116
16776WAT     H150570   0.455   3.890   0.086
16776WAT     H250571   0.398   4.035   0.037
16777WAT      O50572   9.260   7.830   8.131
16777WAT     H150573   9.358   7.809   8.134
16777WAT     H250574   9.245   7.926   8.156
16778WAT      O50575   9.056   2.564   0.282
16778WAT     H150576   8.995   2.486   0.294
16778WAT     H250577   9.048   2.625   0.361
16779WAT      O50578   3.983   5.790   2.606
16779WAT     H150579   3.918   5.721   2.640
16779WAT     H250580   4.076   5.755   2.617
16780WAT      O50581   9.024   6.336   7.758
16780WAT     H150582   9.123   6.320   7.756
16780WAT     H250583   8.982   6.294   7.678
16781WAT      O50584   5.126   1.616   4.935
16781WAT     H150585   5.043   1.617   4.990
16781WAT     H250586   5.110   1.565   4.850
16782WAT      O50587   8.374   9.369   3.756
16782WAT     H150588   8.277   9.355   3.777
16782WAT     H250589   8.411   9.441   3.814
16783WAT      O50590   1.613   9.844   2.532
16783WAT     H150591   1.521   9.831   2.569
16783WAT     H250592   1.672   9.768   2.560
16784WAT      O50593   2.585   7.146   8.933
16784WAT     H150594   2.527   7.199   8.872
16784WAT     H250595   2.560   7.166   9.028
16785WAT      O50596   2.382   4.586   2.809
16785WAT     H150597   2.286   4.577   2.836
16785WAT     H250598   2.412   4.503   2.761
16786WAT      O50599   7.479   9.534   8.330
16786WAT     H150600   7.453   9.519   8.425
16786WAT     H250601   7.399   9.566   8.278
16787WAT      O50602   0.563   1.128   7.695
16787WAT     H150603   0.555   1.198   7.624
16787WAT     H250604   0.472   1.092   7.717
16788WAT      O50605   7.594   0.090   7.220
16788WAT     H150606   7.563   0.183   7.237
16788WAT     H250607   7.567   0.032   7.297
16789WAT      O50608   9.823   8.145   4.363
16789WAT     H150609   9.879   8.100   4.433
16789WAT     H250610   9.882   8.204   4.308
16790WAT      O50611   8.318   7.301   7.401
16790WAT     H150612   8.274   7.376   7.451
16790WAT     H250613   8.410   7.286   7.438
16791WAT      O50614   0.129   6.897   2.385
16791WAT     H150615   0.031   6.882   2.373
16791WAT     H250616   0.154   6.878   2.480
16792WAT      O50617   6.500   2.740   8.907
16792WAT     H150618   6.540   2.771   8.994
16792WAT     H250619   6.402   2.760   8.907
16793WAT      O50620   1.147   6.641   4.404
16793WAT     H150621   1.172   6.546   4.386
16793WAT     H250622   1.091   6.646   4.486
16794WAT      O50623   4.029   3.795   6.648
16794WAT     H150624   4.030   3.843   6.560
16794WAT     H250625   4.025   3.696   6.633
16795WAT      O50626   2.278   3.867   8.448
16795WAT     H150627   2.255   3.794   8.383
16795WAT     H250628   2.251   3.955   8.410
16796WAT      O50629   8.923   3.041   2.796
16796WAT     H150630   8.882   3.130   2.776
16796WAT     H250631   8.948   3.036   2.893
16797WAT      O50632   1.439   1.262   6.453
16797WAT     H150633   1.488   1.197   6.395
16797WAT     H250634   1.353   1.222   6.485
16798WAT      O50635   5.140   9.478   2.309
16798WAT     H150636   5.195   9.557   2.280
16798WAT     H250637   5.196   9.396   2.309
16799WAT      O50638   0.879   0.970   9.492
16799WAT     H150639   0.878   1.060   9.449
16799WAT     H250640   0.786   0.941   9.513
16800WAT      O50641   1.794   8.142   6.770
16800WAT     H150642   1.763   8.212   6.706
16800WAT     H250643   1.810   8.056   6.720
16801WAT      O50644   5.398   3.320   9.631
16801WAT     H150645   5.426   3.414   9.608
16801WAT     H250646   5.320   3.294   9.573
16802WAT      O50647   7.352   6.569   0.490
16802WAT     H150648   7.383   6.663   0.506
16802WAT     H250649   7.297   6.566   0.406
16803WAT      O50650   6.595   5.839   0.023
16803WAT     H150651   6.575   5.862  -0.073
16803WAT     H250652   6.592   5.739   0.033
16804WAT      O50653   1.848   5.827   0.125
16804WAT     H150654   1.750   5.836   0.145
16804WAT     H250655   1.889   5.918   0.118
16805WAT      O50656   7.184   3.882   5.559
16805WAT     H150657   7.211   3.900   5.654
16805WAT     H250658   7.110   3.814   5.558
16806WAT      O50659   9.750   8.366   7.834
16806WAT     H150660   9.711   8.276   7.817
16806WAT     H250661   9.750   8.418   7.749
16807WAT      O50662   1.019   9.501   7.489
16807WAT     H150663   1.000   9.580   7.431
16807WAT     H250664   0.948   9.492   7.559
16808WAT      O50665   5.942   4.510   0.998
16808WAT     H150666   5.890   4.562   1.066
16808WAT     H250667   6.037   4.501   1.028
16809WAT      O50668   7.089   3.092   1.778
16809WAT     H150669   7.096   3.135   1.688
16809WAT     H250670   7.055   3.159   1.844
16810WAT      O50671   1.507   5.527   0.073
16810WAT     H150672   1.420   5.572   0.091
16810WAT     H250673   1.522   5.523  -0.026
16811WAT      O50674   0.213   7.410   6.013
16811WAT     H150675   0.123   7.388   6.052
16811WAT     H250676   0.253   7.486   6.064
16812WAT      O50677   8.868   0.909   2.843
16812WAT     H150678   8.884   0.998   2.885
16812WAT     H250679   8.835   0.921   2.750
16813WAT      O50680   3.906   5.724   4.237
16813WAT     H150681   3.958   5.714   4.152
16813WAT     H250682   3.840   5.649   4.245
16814WAT      O50683   3.962   1.432   6.634
16814WAT     H150684   3.953   1.398   6.728
16814WAT     H250685   4.046   1.396   6.593
16815WAT      O50686   6.387   9.169   3.731
16815WAT     H150687   6.357   9.209   3.818
16815WAT     H250688   6.336   9.085   3.714
16816WAT      O50689   3.740   8.310   0.003
16816WAT     H150690   3.703   8.377  -0.061
16816WAT     H250691   3.778   8.357   0.083
16817WAT      O50692   9.216   9.608   6.612
16817WAT     H150693   9.190   9.610   6.708
16817WAT     H250694   9.295   9.668   6.598
16818WAT      O50695   9.638   5.344   6.633
16818WAT     H150696   9.597   5.363   6.722
16818WAT     H250697   9.593   5.265   6.592
16819WAT      O50698   5.231   9.163   7.271
16819WAT     H150699   5.201   9.254   7.297
16819WAT     H250700   5.254   9.162   7.173
16820WAT      O50701   8.311   8.277   3.751
16820WAT     H150702   8.304   8.365   3.704
16820WAT     H250703   8.359   8.289   3.837
16821WAT      O50704   9.577   3.794   0.481
16821WAT     H150705   9.479   3.812   0.473
16821WAT     H250706   9.605   3.801   0.577
16822WAT      O50707   3.432   6.738   2.229
16822WAT     H150708   3.370   6.670   2.191
16822WAT     H250709   3.379   6.812   2.270
16823WAT      O50710   9.597   1.892   6.996
16823WAT     H150711   9.544   1.975   6.982
16823WAT     H250712   9.537   1.812   6.989
16824WAT      O50713   2.571   3.416   5.477
16824WAT     H150714   2.587   3.347   5.547
16824WAT     H250715   2.474   3.442   5.476
16825WAT      O50716   7.218   7.003   2.030
16825WAT     H150717   7.303   7.053   2.039
16825WAT     H250718   7.169   7.002   2.117
16826WAT      O50719   2.086   7.418   4.651
16826WAT     H150720   2.048   7.355   4.582
16826WAT     H250721   2.026   7.418   4.731
16827WAT      O50722   5.574   8.968   5.586
16827WAT     H150723   5.586   8.870   5.571
16827WAT     H250724   5.659   9.007   5.621
16828WAT      O50725   9.167   0.096   5.476
16828WAT     H150726   9.104   0.041   5.422
16828WAT     H250727   9.203   0.171   5.420
16829WAT      O50728   8.435   1.053   5.744
16829WAT     H150729   8.405   1.137   5.699
16829WAT     H250730   8.393   0.974   5.700
16830WAT      O50731   4.150   7.513   2.427
16830WAT     H150732   4.197   7.438   2.379
16830WAT     H250733   4.051   7.500   2.419
16831WAT      O50734   2.691   3.079   8.090
16831WAT     H150735   2.681   3.173   8.121
16831WAT     H250736   2.704   3.078   7.991
16832WAT      O50737   3.667   8.488   9.435
16832WAT     H150738   3.684   8.396   9.470
16832WAT     H250739   3.599   8.534   9.492
16833WAT      O50740   8.534   1.675   8.866
16833WAT     H150741   8.452   1.617   8.862
16833WAT     H250742   8.559   1.702   8.773
16834WAT      O50743   1.617   4.628   3.978
16834WAT     H150744   1.529   4.661   3.942
16834WAT     H250745   1.676   4.706   3.996
16835WAT      O50746   4.488   6.600   6.971
16835WAT     H150747   4.585   6.620   6.987
16835WAT     H250748   4.477   6.558   6.881
16836WAT      O50749   7.908   8.602   0.934
16836WAT     H150750   7.878   8.674   0.996
16836WAT     H250751   7.837   8.585   0.866
16837WAT      O50752   3.872   7.256   1.325
16837WAT     H150753   3.908   7.257   1.231
16837WAT     H250754   3.832   7.167   1.345
16838WAT      O50755   0.140   6.682   1.202
16838WAT     H150756   0.192   6.597   1.206
16838WAT     H250757   0.153   6.725   1.112
16839WAT      O50758   9.072   9.251   6.169
16839WAT     H150759   9.006   9.245   6.243
16839WAT     H250760   9.136   9.326   6.187
16840WAT      O50761   3.828   7.381   4.300
16840WAT     H150762   3.858   7.474   4.323
16840WAT     H250763   3.906   7.328   4.266
16841WAT      O50764   7.536   9.143   5.458
16841WAT     H150765   7.488   9.127   5.372
16841WAT     H250766   7.519   9.066   5.520
16842WAT      O50767   2.342   0.003   3.395
16842WAT     H150768   2.342   0.029   3.298
16842WAT     H250769   2.249   0.013   3.432
16843WAT      O50770   0.613   3.529   8.136
16843WAT     H150771   0.638   3.521   8.233
16843WAT     H250772   0.674   3.594   8.092
16844WAT      O50773   9.694   9.188   1.576
16844WAT     H150774   9.637   9.199   1.495
16844WAT     H250775   9.657   9.115   1.633
16845WAT      O50776   5.325   8.372   8.313
16845WAT     H150777   5.411   8.418   8.336
16845WAT     H250778   5.293   8.319   8.391
16846WAT      O50779   0.669   7.654   3.380
16846WAT     H150780   0.652   7.738   3.329
16846WAT     H250781   0.605   7.583   3.348
16847WAT      O50782   3.837   5.174   7.257
16847WAT     H150783   3.899   5.199   7.183
16847WAT     H250784   3.790   5.089   7.234
16848WAT      O50785   6.337   3.094   6.031
16848WAT     H150786   6.314   3.133   6.120
16848WAT     H250787   6.357   3.168   5.967
16849WAT      O50788   3.331   4.187   8.252
16849WAT     H150789   3.279   4.114   8.297
16849WAT     H250790   3.280   4.219   8.171
16850WAT      O50791   3.128   4.057   7.413
16850WAT     H150792   3.136   4.144   7.364
16850WAT     H250793   3.206   3.999   7.391
16851WAT      O50794   9.816   8.447   1.009
16851WAT     H150795   9.906   8.489   0.997
16851WAT     H250796   9.770   8.488   1.087
16852WAT      O50797   4.109   7.219   6.012
16852WAT     H150798   4.207   7.196   6.006
16852WAT     H250799   4.058   7.161   5.949
16853WAT      O50800   6.164   5.611   9.554
16853WAT     H150801   6.263   5.609   9.566
16853WAT     H250802   6.125   5.690   9.601
16854WAT      O50803   0.214   7.812   1.317
16854WAT     H150804   0.220   7.818   1.416
16854WAT     H250805   0.261   7.890   1.275
16855WAT      O50806   5.025   6.316   6.211
16855WAT     H150807   5.003   6.220   6.191
16855WAT     H250808   4.947   6.374   6.189
16856WAT      O50809   1.664   5.948   6.017
16856WAT     H150810   1.637   5.852   6.006
16856WAT     H250811   1.657   5.974   6.113
16857WAT      O50812   8.716   4.636   6.150
16857WAT     H150813   8.634   4.634   6.093
16857WAT     H250814   8.790   4.682   6.101
16858WAT      O50815   2.901   2.316   3.048
16858WAT     H150816   2.990   2.314   3.095
16858WAT     H250817   2.914   2.349   2.955
16859WAT      O50818   3.555   3.611   2.549
16859WAT     H150819   3.549   3.533   2.612
16859WAT     H250820   3.531   3.695   2.598
16860WAT      O50821   1.995   1.547   3.800
16860WAT     H150822   2.050   1.590   3.729
16860WAT     H250823   1.900   1.577   3.792
16861WAT      O50824   7.357   9.414   8.570
16861WAT     H150825   7.266   9.429   8.609
16861WAT     H250826   7.369   9.317   8.550
16862WAT      O50827   4.046   1.069   3.789
16862WAT     H150828   3.963   1.021   3.759
16862WAT     H250829   4.123   1.005   3.790
16863WAT      O50830   9.089   7.953   4.271
16863WAT     H150831   9.057   8.046   4.256
16863WAT     H250832   9.188   7.953   4.289
16864WAT      O50833   1.406   1.069   1.435
16864WAT     H150834   1.445   1.004   1.370
16864WAT     H250835   1.345   1.021   1.498
16865WAT      O50836   0.418   4.252   2.155
16865WAT     H150837   0.439   4.302   2.071
16865WAT     H250838   0.489   4.183   2.171
16866WAT      O50839   7.409   1.484   8.284
16866WAT     H150840   7.502   1.450   8.292
16866WAT     H250841   7.378   1.517   8.373
16867WAT      O50842   1.464   2.265   7.408
16867WAT     H150843   1.400   2.263   7.332
16867WAT     H250844   1.474   2.359   7.442
16868WAT      O50845   3.919   6.316   6.379
16868WAT     H150846   3.824   6.310   6.411
16868WAT     H250847   3.950   6.410   6.384
16869WAT      O50848   6.075   1.971   7.417
16869WAT     H150849   6.161   2.006   7.381
16869WAT     H250850   6.076   1.871   7.413
16870WAT      O50851   7.619   0.572   1.577
16870WAT     H150852   7.658   0.662   1.555
16870WAT     H250853   7.537   0.557   1.522
16871WAT      O50854   5.477   9.279   9.204
16871WAT     H150855   5.501   9.182   9.203
16871WAT     H250856   5.380   9.290   9.181
16872WAT      O50857   9.837   1.758   2.502
16872WAT     H150858   9.776   1.831   2.469
16872WAT     H250859   9.853   1.693   2.428
16873WAT      O50860   1.345   2.064   8.778
16873WAT     H150861   1.345   2.037   8.875
16873WAT     H250862   1.439   2.073   8.746
16874WAT      O50863   3.862   3.864   1.334
16874WAT     H150864   3.832   3.830   1.245
16874WAT     H250865   3.788   3.853   1.400
16875WAT      O50866   0.141   0.892   3.966
16875WAT     H150867   0.190   0.912   4.051
16875WAT     H250868   0.165   0.959   3.897
16876WAT      O50869   8.203   3.208   6.379
16876WAT     H150870   8.266   3.264   6.325
16876WAT     H250871   8.213   3.112   6.354
16877WAT      O50872   0.718   3.489   5.184
16877WAT     H150873   0.724   3.588   5.194
16877WAT     H250874   0.795   3.457   5.129
16878WAT      O50875   3.142   3.846   8.819
16878WAT     H150876   3.222   3.883   8.771
16878WAT     H250877   3.089   3.790   8.755
16879WAT      O50878   8.181   3.649   4.093
16879WAT     H150879   8.160   3.746   4.100
16879WAT     H250880   8.115   3.605   4.032
16880WAT      O50881   8.593   6.965   6.501
16880WAT     H150882   8.640   6.877   6.495
16880WAT     H250883   8.659   7.036   6.524
16881WAT      O50884   4.604   5.405   6.634
16881WAT     H150885   4.560   5.358   6.558
16881WAT     H250886   4.614   5.341   6.711
16882WAT      O50887   2.841   9.016   2.351
16882WAT     H150888   2.843   9.019   2.251
16882WAT     H250889   2.770   8.951   2.380
16883WAT      O50890   2.026   7.786   2.432
16883WAT     H150891   2.017   7.882   2.458
16883WAT     H250892   1.967   7.730   2.490
16884WAT      O50893   4.101   5.628   1.506
16884WAT     H150894   4.151   5.681   1.437
16884WAT     H250895   4.082   5.536   1.471
16885WAT      O50896   6.336   9.230   5.588
16885WAT     H150897   6.358   9.221   5.685
16885WAT     H250898   6.373   9.153   5.537
16886WAT      O50899   9.207   6.096   9.384
16886WAT     H150900   9.250   6.093   9.474
16886WAT     H250901   9.206   6.191   9.350
16887WAT      O50902   2.824   8.928   1.874
16887WAT     H150903   2.759   8.987   1.826
16887WAT     H250904   2.775   8.854   1.919
16888WAT      O50905   3.894   2.450   2.180
16888WAT     H150906   3.925   2.413   2.093
16888WAT     H250907   3.917   2.386   2.253
16889WAT      O50908   7.379   6.998   8.253
16889WAT     H150909   7.353   6.915   8.204
16889WAT     H250910   7.479   7.005   8.257
16890WAT      O50911   6.436   0.488   4.895
16890WAT     H150912   6.391   0.411   4.940
16890WAT     H250913   6.535   0.480   4.906
16891WAT      O50914   3.962   5.170   8.684
16891WAT     H150915   4.004   5.187   8.773
16891WAT     H250916   3.967   5.073   8.662
16892WAT      O50917   3.713   8.669   5.018
16892WAT     H150918   3.653   8.643   4.942
16892WAT     H250919   3.750   8.586   5.061
16893WAT      O50920   3.777   2.120   7.555
16893WAT     H150921   3.682   2.127   7.584
16893WAT     H250922   3.815   2.211   7.542
16894WAT      O50923   0.839   7.650   7.140
16894WAT     H150924   0.819   7.553   7.124
16894WAT     H250925   0.899   7.659   7.219
16895WAT      O50926   5.638   4.599   8.600
16895WAT     H150927   5.543   4.605   8.570
16895WAT     H250928   5.697   4.645   8.534
16896WAT      O50929   3.469   8.745   5.126
16896WAT     H150930   3.486   8.810   5.200
16896WAT     H250931   3.556   8.716   5.087
16897WAT      O50932   4.479   2.445   4.067
16897WAT     H150933   4.400   2.494   4.030
16897WAT     H250934   4.563   2.489   4.034
16898WAT      O50935   0.843   5.819   0.318
16898WAT     H150936   0.809   5.725   0.323
16898WAT     H250937   0.900   5.838   0.397
16899WAT      O50938   2.484   6.536   3.380
16899WAT     H150939   2.429   6.533   3.463
16899WAT     H250940   2.557   6.604   3.390
16900WAT      O50941   8.254   9.035   0.387
16900WAT     H150942   8.325   9.089   0.343
16900WAT     H250943   8.284   8.940   0.395
16901WAT      O50944   0.247   4.766   2.472
16901WAT     H150945   0.310   4.821   2.527
16901WAT     H250946   0.242   4.803   2.379
16902WAT      O50947   9.773   3.315   1.669
16902WAT     H150948   9.708   3.242   1.691
16902WAT     H250949   9.808   3.353   1.754
16903WAT      O50950   5.901   3.044   9.049
16903WAT     H150951   5.973   3.013   8.988
16903WAT     H250952   5.886   2.976   9.121
16904WAT      O50953   6.906   8.528   0.327
16904WAT     H150954   6.996   8.522   0.284
16904WAT     H250955   6.863   8.438   0.329
16905WAT      O50956   0.588   3.152   5.886
16905WAT     H150957   0.559   3.248   5.879
16905WAT     H250958   0.681   3.149   5.924
16906WAT      O50959   2.605   8.902   7.879
16906WAT     H150960   2.625   8.824   7.819
16906WAT     H250961   2.574   8.869   7.968
16907WAT      O50962   2.067   0.908   3.773
16907WAT     H150963   2.066   0.808   3.767
16907WAT     H250964   2.000   0.946   3.709
16908WAT      O50965   7.741   7.835   7.750
16908WAT     H150966   7.803   7.771   7.797
16908WAT     H250967   7.649   7.797   7.747
16909WAT      O50968   5.476   2.709   5.279
16909WAT     H150969   5.473   2.789   5.219
16909WAT     H250970   5.557   2.714   5.337
16910WAT      O50971   0.874   9.002   3.815
16910WAT     H150972   0.794   9.048   3.775
16910WAT     H250973   0.888   8.915   3.769
16911WAT      O50974   2.381   4.851   2.043
16911WAT     H150975   2.351   4.893   1.957
16911WAT     H250976   2.448   4.911   2.087
16912WAT      O50977   1.294   7.009   3.791
16912WAT     H150978   1.334   6.918   3.792
16912WAT     H250979   1.234   7.019   3.711
16913WAT      O50980   0.254   1.148   8.445
16913WAT     H150981   0.204   1.151   8.358
16913WAT     H250982   0.267   1.242   8.479
16914WAT      O50983   4.965   2.930   6.803
16914WAT     H150984   4.867   2.925   6.822
16914WAT     H250985   5.014   2.865   6.860
16915WAT      O50986   5.212   4.697   4.454
16915WAT     H150987   5.279   4.665   4.522
16915WAT     H250988   5.260   4.737   4.376
16916WAT      O50989   6.654   1.734   5.429
16916WAT     H150990   6.717   1.710   5.503
16916WAT     H250991   6.638   1.653   5.373
16917WAT      O50992   3.881   5.176   3.364
16917WAT     H150993   3.803   5.211   3.313
16917WAT     H250994   3.849   5.118   3.439
16918WAT      O50995   4.855   4.631   4.683
16918WAT     H150996   4.945   4.671   4.700
16918WAT     H250997   4.815   4.674   4.602
16919WAT      O50998   4.933   0.027   0.116
16919WAT     H150999   4.913  -0.023   0.200
16919WAT     H251000   5.013  -0.013   0.071
16920WAT      O51001   6.269   3.195   6.289
16920WAT     H151002   6.323   3.220   6.370
16920WAT     H251003   6.172   3.196   6.313
16921WAT      O51004   2.245   1.963   9.097
16921WAT     H151005   2.148   1.949   9.079
16921WAT     H251006   2.299   1.909   9.033
16922WAT      O51007   2.672   6.207   1.942
16922WAT     H151008   2.692   6.297   1.904
16922WAT     H251009   2.694   6.206   2.040
16923WAT      O51010   5.721   9.629   2.934
16923WAT     H151011   5.782   9.686   2.879
16923WAT     H251012   5.773   9.586   3.007
16924WAT      O51013   4.821   9.741   0.330
16924WAT     H151014   4.800   9.647   0.306
16924WAT     H251015   4.738   9.788   0.360
16925WAT      O51016   3.768   1.180   6.697
16925WAT     H151017   3.792   1.268   6.736
16925WAT     H251018   3.681   1.187   6.649
16926WAT      O51019   2.235   4.102   5.842
16926WAT     H151020   2.167   4.169   5.811
16926WAT     H251021   2.195   4.043   5.912
16927WAT      O51022   0.619   7.352   2.135
16927WAT     H151023   0.714   7.349   2.103
16927WAT     H251024   0.562   7.294   2.077
16928WAT      O51025   1.123   5.061   0.199
16928WAT     H151026   1.139   5.132   0.269
16928WAT     H251027   1.210   5.023   0.169
16929WAT      O51028   7.734   1.844   8.773
16929WAT     H151029   7.732   1.781   8.695
16929WAT     H251030   7.647   1.894   8.778
16930WAT      O51031   7.542   0.554   6.896
16930WAT     H151032   7.636   0.584   6.914
16930WAT     H251033   7.504   0.607   6.821
16931WAT      O51034   0.564   4.844   0.657
16931WAT     H151035   0.465   4.836   0.666
16931WAT     H251036   0.590   4.940   0.668
16932WAT      O51037   7.783   3.950   0.664
16932WAT     H151038   7.780   4.010   0.744
16932WAT     H251039   7.878   3.930   0.640
16933WAT      O51040   1.432   3.180   1.881
16933WAT     H151041   1.380   3.218   1.804
16933WAT     H251042   1.528   3.208   1.873
16934WAT      O51043   4.658   4.116   9.434
16934WAT     H151044   4.617   4.152   9.350
16934WAT     H251045   4.687   4.191   9.493
16935WAT      O51046   0.793   7.161   0.352
16935WAT     H151047   0.744   7.203   0.429
16935WAT     H251048   0.821   7.231   0.287
16936WAT      O51049   7.661   9.783   8.534
16936WAT     H151050   7.681   9.818   8.625
16936WAT     H251051   7.563   9.761   8.528
16937WAT      O51052   5.947   7.803   0.115
16937WAT     H151053   6.012   7.732   0.144
16937WAT     H251054   5.984   7.852   0.036
16938WAT      O51055   9.734   1.308   6.881
16938WAT     H151056   9.659   1.245   6.897
16938WAT     H251057   9.794   1.309   6.961
16939WAT      O51058   2.350   1.902   5.532
16939WAT     H151059   2.417   1.919   5.460
16939WAT     H251060   2.392   1.847   5.604
16940WAT      O51061   6.072   5.167   5.842
16940WAT     H151062   6.090   5.112   5.760
16940WAT     H251063   5.974   5.167   5.862
16941WAT      O51064   8.312   7.077   8.716
16941WAT     H151065   8.363   7.155   8.752
16941WAT     H251066   8.267   7.104   8.630
16942WAT      O51067   8.334   5.269   8.042
16942WAT     H151068   8.328   5.173   8.071
16942WAT     H251069   8.252   5.318   8.072
16943WAT      O51070   1.426   4.804   4.171
16943WAT     H151071   1.418   4.791   4.072
16943WAT     H251072   1.457   4.897   4.190
16944WAT      O51073   6.735   1.782   4.671
16944WAT     H151074   6.741   1.874   4.710
16944WAT     H251075   6.825   1.753   4.640
16945WAT      O51076   5.071   1.084   8.022
16945WAT     H151077   5.113   1.016   8.082
16945WAT     H251078   5.138   1.156   8.001
16946WAT      O51079   1.684   7.760   2.079
16946WAT     H151080   1.670   7.672   2.034
16946WAT     H251081   1.774   7.759   2.124
16947WAT      O51082   9.578   0.932   6.376
16947WAT     H151083   9.620   0.842   6.365
16947WAT     H251084   9.490   0.933   6.328
16948WAT      O51085   0.310   8.338   5.754
16948WAT     H151086   0.393   8.391   5.772
16948WAT     H251087   0.307   8.259   5.816
16949WAT      O51088   1.076   7.565   6.258
16949WAT     H151089   1.083   7.539   6.162
16949WAT     H251090   0.993   7.527   6.298
16950WAT      O51091   1.545   9.222   8.027
16950WAT     H151092   1.532   9.127   8.055
16950WAT     H251093   1.632   9.230   7.978
16951WAT      O51094   5.130   9.009   9.013
16951WAT     H151095   5.195   8.940   9.045
16951WAT     H251096   5.130   9.010   8.913
16952WAT      O51097   2.336   2.237   6.915
16952WAT     H151098   2.392   2.318   6.895
16952WAT     H251099   2.267   2.226   6.844
16953WAT      O51100   4.149   8.905   9.532
16953WAT     H151101   4.105   8.820   9.561
16953WAT     H251102   4.084   8.981   9.540
16954WAT      O51103   3.971   1.307   3.123
16954WAT     H151104   4.057   1.321   3.173
16954WAT     H251105   3.941   1.394   3.084
16955WAT      O51106   9.232   1.844   6.081
16955WAT     H151107   9.250   1.916   6.014
16955WAT     H251108   9.134   1.820   6.078
16956WAT      O51109   0.963   7.162   9.614
16956WAT     H151110   1.061   7.144   9.603
16956WAT     H251111   0.947   7.260   9.617
16957WAT      O51112   0.046   0.266   7.727
16957WAT     H151113  -0.021   0.213   7.778
16957WAT     H251114   0.092   0.207   7.660
16958WAT      O51115   9.816   4.903   9.748
16958WAT     H151116   9.872   4.831   9.707
16958WAT     H251117   9.817   4.893   9.848
16959WAT      O51118   4.921   7.284   1.287
16959WAT     H151119   5.001   7.338   1.314
16959WAT     H251120   4.867   7.335   1.220
16960WAT      O51121   5.127   1.796   0.533
16960WAT     H151122   5.054   1.733   0.509
16960WAT     H251123   5.193   1.802   0.458
16961WAT      O51124   6.671   7.428   9.325
16961WAT     H151125   6.749   7.374   9.357
16961WAT     H251126   6.634   7.388   9.242
16962WAT      O51127   7.836   5.839   2.147
16962WAT     H151128   7.787   5.809   2.065
16962WAT     H251129   7.932   5.811   2.140
16963WAT      O51130   4.098   9.548   3.621
16963WAT     H151131   4.111   9.453   3.650
16963WAT     H251132   4.012   9.582   3.658
16964WAT      O51133   2.382   1.031   5.868
16964WAT     H151134   2.348   0.969   5.938
16964WAT     H251135   2.434   1.105   5.910
16965WAT      O51136   0.402   1.629   7.000
16965WAT     H151137   0.496   1.598   7.008
16965WAT     H251138   0.341   1.559   7.038
16966WAT      O51139   0.553   5.685   8.508
16966WAT     H151140   0.511   5.773   8.531
16966WAT     H251141   0.646   5.701   8.473
16967WAT      O51142   3.382   6.624   8.789
16967WAT     H151143   3.351   6.540   8.833
16967WAT     H251144   3.312   6.656   8.725
16968WAT      O51145   8.155   6.458   9.524
16968WAT     H151146   8.091   6.462   9.601
16968WAT     H251147   8.248   6.443   9.560
16969WAT      O51148   0.138   5.564   6.643
16969WAT     H151149   0.123   5.477   6.595
16969WAT     H251150   0.227   5.602   6.617
16970WAT      O51151   6.001   7.756   5.991
16970WAT     H151152   5.989   7.736   5.894
16970WAT     H251153   6.099   7.766   6.012
16971WAT      O51154   8.231   7.035   9.425
16971WAT     H151155   8.152   7.011   9.368
16971WAT     H251156   8.231   6.978   9.507
16972WAT      O51157   0.193   8.256   1.437
16972WAT     H151158   0.148   8.202   1.366
16972WAT     H251159   0.169   8.219   1.527
16973WAT      O51160   6.207   9.566   6.071
16973WAT     H151161   6.153   9.507   6.131
16973WAT     H251162   6.298   9.527   6.059
16974WAT      O51163   3.809   4.712   1.968
16974WAT     H151164   3.732   4.773   1.949
16974WAT     H251165   3.894   4.757   1.941
16975WAT      O51166   8.469   1.614   9.580
16975WAT     H151167   8.493   1.633   9.485
16975WAT     H251168   8.550   1.580   9.628
16976WAT      O51169   0.635   4.371   2.781
16976WAT     H151170   0.714   4.311   2.794
16976WAT     H251171   0.612   4.376   2.684
16977WAT      O51172   4.925   7.857   0.326
16977WAT     H151173   4.888   7.944   0.358
16977WAT     H251174   4.926   7.856   0.226
16978WAT      O51175   6.598   8.951   2.651
16978WAT     H151176   6.691   8.913   2.649
16978WAT     H251177   6.535   8.884   2.612
16979WAT      O51178   5.958   4.855   8.671
16979WAT     H151179   5.882   4.853   8.606
16979WAT     H251180   5.939   4.795   8.748
16980WAT      O51181   9.262   4.866   9.756
16980WAT     H151182   9.179   4.853   9.702
16980WAT     H251183   9.240   4.858   9.854
16981WAT      O51184   3.660   6.159   1.595
16981WAT     H151185   3.595   6.101   1.547
16981WAT     H251186   3.645   6.255   1.570
16982WAT      O51187   7.092   4.605   3.528
16982WAT     H151188   7.116   4.687   3.476
16982WAT     H251189   6.992   4.599   3.536
16983WAT      O51190   7.784   5.919   4.572
16983WAT     H151191   7.881   5.918   4.597
16983WAT     H251192   7.769   5.854   4.498
16984WAT      O51193   7.127   4.867   5.378
16984WAT     H151194   7.040   4.904   5.410
16984WAT     H251195   7.166   4.807   5.448
16985WAT      O51196   4.857   0.866   5.017
16985WAT     H151197   4.825   0.772   5.003
16985WAT     H251198   4.778   0.928   5.021
16986WAT      O51199   8.601   6.285   3.104
16986WAT     H151200   8.690   6.250   3.074
16986WAT     H251201   8.546   6.209   3.139
16987WAT      O51202   7.250   1.573   4.521
16987WAT     H151203   7.284   1.648   4.578
16987WAT     H251204   7.206   1.611   4.439
16988WAT      O51205   3.572   1.829   0.345
16988WAT     H151206   3.608   1.761   0.409
16988WAT     H251207   3.479   1.803   0.318
16989WAT      O51208   5.442   7.660   0.046
16989WAT     H151209   5.491   7.574   0.035
16989WAT     H251210   5.505   7.737   0.033
16990WAT      O51211   1.327   8.960   9.204
16990WAT     H151212   1.318   9.023   9.128
16990WAT     H251213   1.365   8.873   9.171
16991WAT      O51214   3.164   2.492   2.997
16991WAT     H151215   3.157   2.400   2.961
16991WAT     H251216   3.260   2.514   3.015
16992WAT      O51217   9.067   4.122   6.952
16992WAT     H151218   9.125   4.044   6.928
16992WAT     H251219   9.109   4.172   7.028
16993WAT      O51220   1.852   1.104   9.690
16993WAT     H151221   1.776   1.160   9.722
16993WAT     H251222   1.849   1.014   9.735
16994WAT      O51223   1.152   4.705   4.012
16994WAT     H151224   1.236   4.733   3.965
16994WAT     H251225   1.174   4.660   4.098
16995WAT      O51226   6.228   0.501   0.900
16995WAT     H151227   6.263   0.571   0.838
16995WAT     H251228   6.133   0.522   0.924
16996WAT      O51229   5.038   8.802   0.350
16996WAT     H151230   4.941   8.795   0.327
16996WAT     H251231   5.093   8.775   0.271
16997WAT      O51232   5.579   2.937   7.462
16997WAT     H151233   5.583   2.897   7.554
16997WAT     H251234   5.588   3.036   7.468
16998WAT      O51235   8.423   0.959   6.766
16998WAT     H151236   8.490   0.885   6.777
16998WAT     H251237   8.397   0.994   6.856
16999WAT      O51238   3.546   5.079   8.857
16999WAT     H151239   3.589   5.116   8.939
16999WAT     H251240   3.584   5.123   8.776
17000WAT      O51241   7.140   1.234   7.059
17000WAT     H151242   7.196   1.291   7.119
17000WAT     H251243   7.064   1.287   7.023
17001WAT      O51244   6.033   1.940   2.684
17001WAT     H151245   6.055   2.002   2.609
17001WAT     H251246   6.016   1.993   2.768
17002WAT      O51247   5.043   8.439   8.738
17002WAT     H151248   5.064   8.344   8.763
17002WAT     H251249   5.120   8.478   8.687
17003WAT      O51250   5.583   2.468   5.755
17003WAT     H151251   5.660   2.409   5.730
17003WAT     H251252   5.600   2.561   5.722
17004WAT      O51253   2.717   5.355   2.600
17004WAT     H151254   2.748   5.412   2.524
17004WAT     H251255   2.794   5.341   2.663
17005WAT      O51256   1.987   0.899   4.802
17005WAT     H151257   1.951   0.883   4.894
17005WAT     H251258   1.914   0.933   4.742
17006WAT      O51259   5.011   5.417   9.871
17006WAT     H151260   4.998   5.470   9.955
17006WAT     H251261   4.951   5.337   9.872
17007WAT      O51262   3.437   9.411   5.999
17007WAT     H151263   3.377   9.454   6.067
17007WAT     H251264   3.501   9.480   5.964
17008WAT      O51265   9.353   1.429   1.796
17008WAT     H151266   9.303   1.348   1.827
17008WAT     H251267   9.290   1.493   1.753
17009WAT      O51268   1.378   6.172   3.135
17009WAT     H151269   1.455   6.149   3.194
17009WAT     H251270   1.397   6.142   3.041
17010WAT      O51271   0.385   3.168   8.685
17010WAT     H151272   0.409   3.149   8.590
17010WAT     H251273   0.464   3.209   8.732
17011WAT      O51274   5.266   5.905   7.660
17011WAT     H151275   5.253   5.994   7.615
17011WAT     H251276   5.342   5.857   7.617
17012WAT      O51277   2.058   3.765   0.545
17012WAT     H151278   2.010   3.716   0.618
17012WAT     H251279   2.147   3.796   0.578
17013WAT      O51280   3.453   8.207   5.336
17013WAT     H151281   3.494   8.183   5.424
17013WAT     H251282   3.364   8.162   5.327
17014WAT      O51283   5.654   5.526   2.843
17014WAT     H151284   5.608   5.494   2.761
17014WAT     H251285   5.586   5.549   2.913
17015WAT      O51286   2.289   4.172   3.676
17015WAT     H151287   2.276   4.270   3.665
17015WAT     H251288   2.229   4.139   3.749
17016WAT      O51289   3.058   8.524   6.277
17016WAT     H151290   3.085   8.468   6.355
17016WAT     H251291   3.139   8.550   6.224
17017WAT      O51292   2.644   1.208   3.736
17017WAT     H151293   2.695   1.227   3.652
17017WAT     H251294   2.550   1.181   3.714
17018WAT      O51295   6.651   2.388   6.188
17018WAT     H151296   6.653   2.290   6.170
17018WAT     H251297   6.681   2.438   6.106
17019WAT      O51298   2.854   7.074   1.465
17019WAT     H151299   2.893   7.082   1.373
17019WAT     H251300   2.787   7.000   1.467
17020WAT      O51301   9.579   8.491   2.042
17020WAT     H151302   9.584   8.590   2.032
17020WAT     H251303   9.488   8.459   2.016
17021WAT      O51304   5.682   9.168   5.362
17021WAT     H151305   5.780   9.180   5.377
17021WAT     H251306   5.635   9.163   5.451
17022WAT      O51307   2.171   7.259   2.538
17022WAT     H151308   2.112   7.337   2.558
17022WAT     H251309   2.155   7.229   2.444
17023WAT      O51310   9.217   8.504   1.153
17023WAT     H151311   9.226   8.534   1.058
17023WAT     H251312   9.186   8.580   1.210
17024WAT      O51313   9.316   8.892   1.050
17024WAT     H151314   9.387   8.904   0.981
17024WAT     H251315   9.351   8.920   1.140
17025WAT      O51316   4.563   6.704   0.827
17025WAT     H151317   4.619   6.739   0.902
17025WAT     H251318   4.571   6.605   0.821
17026WAT      O51319   8.852   6.033   1.369
17026WAT     H151320   8.752   6.033   1.369
17026WAT     H251321   8.885   5.989   1.285
17027WAT      O51322   3.777   9.478   1.171
17027WAT     H151323   3.783   9.382   1.142
17027WAT     H251324   3.724   9.530   1.104
17028WAT      O51325   1.195   8.102   2.181
17028WAT     H151326   1.249   8.147   2.252
17028WAT     H251327   1.237   8.120   2.092
17029WAT      O51328   3.412   1.037   6.033
17029WAT     H151329   3.427   1.125   6.079
17029WAT     H251330   3.430   0.962   6.097
17030WAT      O51331   5.854   0.058   3.899
17030WAT     H151332   5.904   0.039   3.814
17030WAT     H251333   5.802  -0.024   3.925
17031WAT      O51334   8.594   1.707   1.341
17031WAT     H151335   8.524   1.650   1.384
17031WAT     H251336   8.653   1.746   1.412
17032WAT      O51337   5.637   5.908   7.038
17032WAT     H151338   5.716   5.962   7.069
17032WAT     H251339   5.566   5.912   7.108
17033WAT      O51340   3.821   0.721   6.633
17033WAT     H151341   3.842   0.670   6.549
17033WAT     H251342   3.865   0.810   6.630
17034WAT      O51343   8.702   1.494   6.920
17034WAT     H151344   8.651   1.542   6.991
17034WAT     H251345   8.800   1.514   6.929
17035WAT      O51346   1.352   4.437   4.959
17035WAT     H151347   1.432   4.386   4.928
17035WAT     H251348   1.270   4.400   4.915
17036WAT      O51349   6.731   7.912   2.003
17036WAT     H151350   6.704   7.951   2.091
17036WAT     H251351   6.684   7.825   1.989
17037WAT      O51352   8.368   4.915   7.573
17037WAT     H151353   8.374   4.979   7.649
17037WAT     H251354   8.274   4.911   7.539
17038WAT      O51355   0.792   3.208   5.523
17038WAT     H151356   0.724   3.137   5.541
17038WAT     H251357   0.842   3.229   5.607
17039WAT      O51358   6.891   5.872   6.965
17039WAT     H151359   6.957   5.930   6.917
17039WAT     H251360   6.934   5.785   6.989
17040WAT      O51361   8.048   0.477   0.858
17040WAT     H151362   8.050   0.440   0.765
17040WAT     H251363   8.140   0.472   0.898
17041WAT      O51364   2.326   3.595   6.503
17041WAT     H151365   2.415   3.622   6.538
17041WAT     H251366   2.283   3.673   6.456
17042WAT      O51367   2.672   4.295   2.747
17042WAT     H151368   2.708   4.212   2.705
17042WAT     H251369   2.582   4.315   2.709
17043WAT      O51370   9.299   4.664   3.073
17043WAT     H151371   9.336   4.717   3.149
17043WAT     H251372   9.280   4.571   3.104
17044WAT      O51373   0.751   6.840   2.036
17044WAT     H151374   0.726   6.925   1.988
17044WAT     H251375   0.835   6.803   1.996
17045WAT      O51376   0.895   3.353   1.147
17045WAT     H151377   0.942   3.390   1.067
17045WAT     H251378   0.953   3.361   1.228
17046WAT      O51379   1.377   5.680   8.826
17046WAT     H151380   1.452   5.614   8.815
17046WAT     H251381   1.297   5.634   8.864
17047WAT      O51382   0.433   3.365   9.225
17047WAT     H151383   0.401   3.294   9.288
17047WAT     H251384   0.362   3.385   9.158
17048WAT      O51385   3.975   8.269   7.588
17048WAT     H151386   3.913   8.336   7.546
17048WAT     H251387   3.960   8.267   7.686
17049WAT      O51388   9.645   5.583   2.662
17049WAT     H151389   9.633   5.491   2.700
17049WAT     H251390   9.555   5.624   2.645
17050WAT      O51391   5.444   6.417   3.947
17050WAT     H151392   5.399   6.503   3.926
17050WAT     H251393   5.430   6.353   3.872
17051WAT      O51394   2.317   1.422   0.375
17051WAT     H151395   2.414   1.442   0.368
17051WAT     H251396   2.272   1.441   0.287
17052WAT      O51397   7.261   2.756   5.490
17052WAT     H151398   7.308   2.749   5.577
17052WAT     H251399   7.309   2.822   5.431
17053WAT      O51400   9.571   7.089   4.041
17053WAT     H151401   9.613   7.046   3.961
17053WAT     H251402   9.581   7.188   4.034
17054WAT      O51403   5.943   8.932   3.322
17054WAT     H151404   6.001   8.918   3.242
17054WAT     H251405   5.853   8.891   3.306
17055WAT      O51406   6.909   8.313   9.500
17055WAT     H151407   6.910   8.218   9.468
17055WAT     H251408   7.002   8.349   9.500
17056WAT      O51409   8.328   6.719   6.773
17056WAT     H151410   8.368   6.631   6.747
17056WAT     H251411   8.244   6.702   6.826
17057WAT      O51412   5.403   5.956   0.123
17057WAT     H151413   5.426   6.053   0.113
17057WAT     H251414   5.424   5.908   0.038
17058WAT      O51415   8.677   0.366   0.642
17058WAT     H151416   8.647   0.451   0.686
17058WAT     H251417   8.615   0.343   0.568
17059WAT      O51418   7.797   4.914   6.236
17059WAT     H151419   7.799   4.914   6.336
17059WAT     H251420   7.868   4.852   6.202
17060WAT      O51421   5.507   4.970   3.653
17060WAT     H151422   5.562   5.004   3.729
17060WAT     H251423   5.502   4.870   3.657
17061WAT      O51424   5.708   6.693   8.206
17061WAT     H151425   5.804   6.666   8.210
17061WAT     H251426   5.694   6.760   8.133
17062WAT      O51427   0.249   0.517   3.462
17062WAT     H151428   0.242   0.554   3.554
17062WAT     H251429   0.339   0.474   3.451
17063WAT      O51430   4.655   7.839   4.291
17063WAT     H151431   4.588   7.765   4.283
17063WAT     H251432   4.697   7.835   4.382
17064WAT      O51433   2.632   4.839   3.213
17064WAT     H151434   2.577   4.894   3.276
17064WAT     H251435   2.591   4.749   3.203
17065WAT      O51436   4.554   2.111   1.643
17065WAT     H151437   4.567   2.025   1.594
17065WAT     H251438   4.552   2.093   1.741
17066WAT      O51439   8.841   3.311   2.847
17066WAT     H151440   8.791   3.319   2.933
17066WAT     H251441   8.920   3.372   2.849
17067WAT      O51442   6.894   9.620   5.891
17067WAT     H151443   6.881   9.700   5.950
17067WAT     H251444   6.979   9.574   5.915
17068WAT      O51445   3.607   5.073   0.344
17068WAT     H151446   3.668   5.072   0.424
17068WAT     H251447   3.526   5.128   0.365
17069WAT      O51448   2.086   7.755   2.837
17069WAT     H151449   2.152   7.829   2.822
17069WAT     H251450   2.021   7.782   2.908
17070WAT      O51451   4.058   7.483   4.778
17070WAT     H151452   3.978   7.424   4.779
17070WAT     H251453   4.135   7.437   4.734
17071WAT      O51454   7.110   2.473   1.890
17071WAT     H151455   7.110   2.481   1.990
17071WAT     H251456   7.099   2.563   1.849
17072WAT      O51457   2.026   6.045   3.914
17072WAT     H151458   2.039   6.144   3.912
17072WAT     H251459   1.996   6.017   4.005
17073WAT      O51460   6.084   6.413   8.456
17073WAT     H151461   6.041   6.415   8.546
17073WAT     H251462   6.022   6.453   8.389
17074WAT      O51463   6.248   5.605   4.927
17074WAT     H151464   6.263   5.585   5.024
17074WAT     H251465   6.336   5.608   4.880
17075WAT      O51466   3.432   1.638   3.944
17075WAT     H151467   3.497   1.643   3.868
17075WAT     H251468   3.430   1.725   3.992
17076WAT      O51469   5.475   1.676   9.464
17076WAT     H151470   5.471   1.771   9.492
17076WAT     H251471   5.570   1.650   9.446
17077WAT      O51472   9.568   2.808   0.142
17077WAT     H151473   9.478   2.768   0.128
17077WAT     H251474   9.563   2.907   0.135
17078WAT      O51475   5.953   9.181   7.369
17078WAT     H151476   5.925   9.226   7.453
17078WAT     H251477   5.872   9.153   7.318
17079WAT      O51478   2.967   8.950   2.098
17079WAT     H151479   2.913   8.936   2.015
17079WAT     H251480   3.062   8.970   2.072
17080WAT      O51481   3.354   7.155   4.124
17080WAT     H151482   3.398   7.205   4.049
17080WAT     H251483   3.255   7.165   4.117
17081WAT      O51484   5.571   2.823   7.717
17081WAT     H151485   5.473   2.813   7.735
17081WAT     H251486   5.615   2.733   7.720
17082WAT      O51487   9.814   6.832   9.024
17082WAT     H151488   9.815   6.914   9.082
17082WAT     H251489   9.725   6.824   8.979
17083WAT      O51490   8.158   6.227   5.300
17083WAT     H151491   8.122   6.138   5.327
17083WAT     H251492   8.200   6.220   5.209
17084WAT      O51493   1.167   9.280   4.324
17084WAT     H151494   1.099   9.296   4.396
17084WAT     H251495   1.254   9.322   4.350
17085WAT      O51496   8.222   8.718   3.019
17085WAT     H151497   8.208   8.719   2.920
17085WAT     H251498   8.219   8.811   3.054
17086WAT      O51499   7.541   3.588   5.498
17086WAT     H151500   7.611   3.573   5.428
17086WAT     H251501   7.494   3.675   5.479
17087WAT      O51502   3.258   2.103   9.863
17087WAT     H151503   3.283   2.055   9.947
17087WAT     H251504   3.233   2.036   9.793
17088WAT      O51505   5.454   7.802   5.981
17088WAT     H151506   5.430   7.862   5.905
17088WAT     H251507   5.553   7.795   5.989
17089WAT      O51508   4.692   5.933   6.767
17089WAT     H151509   4.753   6.012   6.772
17089WAT     H251510   4.721   5.864   6.834
17090WAT      O51511   4.764   2.704   1.628
17090WAT     H151512   4.830   2.768   1.667
17090WAT     H251513   4.813   2.631   1.579
17091WAT      O51514   9.497   2.061   5.943
17091WAT     H151515   9.571   2.108   5.896
17091WAT     H251516   9.468   1.981   5.890
17092WAT      O51517   0.885   8.679   0.654
17092WAT     H151518   0.818   8.676   0.580
17092WAT     H251519   0.845   8.640   0.737
17093WAT      O51520   1.101   8.390   5.116
17093WAT     H151521   1.087   8.361   5.210
17093WAT     H251522   1.153   8.320   5.067
17094WAT      O51523   8.595   5.699   3.003
17094WAT     H151524   8.532   5.763   2.958
17094WAT     H251525   8.688   5.716   2.970
17095WAT      O51526   4.382   7.678   4.951
17095WAT     H151527   4.370   7.580   4.939
17095WAT     H251528   4.462   7.695   5.009
17096WAT      O51529   1.267   0.918   1.613
17096WAT     H151530   1.245   0.989   1.680
17096WAT     H251531   1.358   0.881   1.633
17097WAT      O51532   3.402   5.185   4.913
17097WAT     H151533   3.432   5.256   4.849
17097WAT     H251534   3.435   5.206   5.004
17098WAT      O51535   8.486   8.015   4.156
17098WAT     H151536   8.472   7.967   4.070
17098WAT     H251537   8.461   7.955   4.232
17099WAT      O51538   0.043   0.183   8.801
17099WAT     H151539   0.103   0.170   8.880
17099WAT     H251540   0.098   0.191   8.718
17100WAT      O51541   8.887   9.044   4.484
17100WAT     H151542   8.835   9.081   4.561
17100WAT     H251543   8.830   8.982   4.431
17101WAT      O51544   1.573   1.875   1.965
17101WAT     H151545   1.543   1.940   1.895
17101WAT     H251546   1.672   1.872   1.968
17102WAT      O51547   0.244   7.100   3.568
17102WAT     H151548   0.213   7.053   3.651
17102WAT     H251549   0.190   7.070   3.490
17103WAT      O51550   2.151   1.019   4.022
17103WAT     H151551   2.131   1.005   3.925
17103WAT     H251552   2.250   1.016   4.037
17104WAT      O51553   8.959   9.017   7.668
17104WAT     H151554   9.056   9.021   7.645
17104WAT     H251555   8.905   9.052   7.592
17105WAT      O51556   9.237   4.024   2.442
17105WAT     H151557   9.271   4.104   2.393
17105WAT     H251558   9.200   3.958   2.376
17106WAT      O51559   3.335   3.883   1.253
17106WAT     H151560   3.278   3.823   1.308
17106WAT     H251561   3.431   3.862   1.269
17107WAT      O51562   3.291   1.652   8.219
17107WAT     H151563   3.312   1.743   8.255
17107WAT     H251564   3.251   1.596   8.292
17108WAT      O51565   1.860   2.484   8.512
17108WAT     H151566   1.863   2.575   8.470
17108WAT     H251567   1.837   2.493   8.609
17109WAT      O51568   5.137   2.359   8.597
17109WAT     H151569   5.094   2.269   8.594
17109WAT     H251570   5.190   2.374   8.514
17110WAT      O51571   9.034   4.440   3.562
17110WAT     H151572   8.984   4.440   3.649
17110WAT     H251573   9.016   4.355   3.513
17111WAT      O51574   2.826   2.476   4.567
17111WAT     H151575   2.899   2.541   4.544
17111WAT     H251576   2.826   2.402   4.499
17112WAT      O51577   0.102   6.836   2.869
17112WAT     H151578   0.160   6.833   2.788
17112WAT     H251579   0.056   6.925   2.874
17113WAT      O51580   9.313   7.654   9.691
17113WAT     H151581   9.272   7.661   9.600
17113WAT     H251582   9.253   7.600   9.750
17114WAT      O51583   7.232   7.724   3.956
17114WAT     H151584   7.313   7.681   3.995
17114WAT     H251585   7.234   7.822   3.975
17115WAT      O51586   0.046   3.753   7.259
17115WAT     H151587   0.090   3.667   7.283
17115WAT     H251588  -0.048   3.736   7.231
17116WAT      O51589   4.354   7.855   3.638
17116WAT     H151590   4.277   7.895   3.589
17116WAT     H251591   4.325   7.830   3.731
17117WAT      O51592   1.960   1.796   4.704
17117WAT     H151593   1.938   1.730   4.776
17117WAT     H251594   2.058   1.792   4.684
17118WAT      O51595   2.256   5.306   4.671
17118WAT     H151596   2.340   5.264   4.706
17118WAT     H251597   2.247   5.398   4.710
17119WAT      O51598   0.120   4.771   9.583
17119WAT     H151599   0.161   4.721   9.659
17119WAT     H251600   0.191   4.793   9.515
17120WAT      O51601   9.650   0.933   5.543
17120WAT     H151602   9.589   0.986   5.484
17120WAT     H251603   9.711   0.995   5.592
17121WAT      O51604   3.599   2.047   8.073
17121WAT     H151605   3.691   2.031   8.110
17121WAT     H251606   3.575   1.973   8.010
17122WAT      O51607   1.178   2.253   3.707
17122WAT     H151608   1.225   2.331   3.747
17122WAT     H251609   1.127   2.282   3.626
17123WAT      O51610   4.010   0.314   0.732
17123WAT     H151611   4.089   0.337   0.675
17123WAT     H251612   3.929   0.304   0.674
17124WAT      O51613   3.051   0.385   3.730
17124WAT     H151614   3.055   0.482   3.755
17124WAT     H251615   3.028   0.331   3.811
17125WAT      O51616   1.766   7.506   2.386
17125WAT     H151617   1.812   7.453   2.314
17125WAT     H251618   1.827   7.513   2.465
17126WAT      O51619   4.522   7.972   7.494
17126WAT     H151620   4.454   8.010   7.432
17126WAT     H251621   4.602   8.033   7.497
17127WAT      O51622   5.163   0.427   0.899
17127WAT     H151623   5.180   0.330   0.921
17127WAT     H251624   5.086   0.434   0.836
17128WAT      O51625   0.122   3.705   9.319
17128WAT     H151626   0.031   3.740   9.341
17128WAT     H251627   0.191   3.753   9.373
17129WAT      O51628   2.041   6.969   6.840
17129WAT     H151629   2.034   6.871   6.858
17129WAT     H251630   1.988   7.019   6.908
17130WAT      O51631   3.028   1.377   2.452
17130WAT     H151632   2.941   1.333   2.430
17130WAT     H251633   3.011   1.455   2.513
17131WAT      O51634   6.730   6.911   6.549
17131WAT     H151635   6.667   6.886   6.623
17131WAT     H251636   6.707   6.860   6.466
17132WAT      O51637   7.673   3.366   1.446
17132WAT     H151638   7.656   3.354   1.349
17132WAT     H251639   7.744   3.435   1.460
17133WAT      O51640   9.014   9.553   8.665
17133WAT     H151641   8.976   9.465   8.637
17133WAT     H251642   8.985   9.573   8.759
17134WAT      O51643   6.559   1.809   6.168
17134WAT     H151644   6.484   1.875   6.168
17134WAT     H251645   6.595   1.800   6.261
17135WAT      O51646   4.260   5.241   7.004
17135WAT     H151647   4.332   5.227   7.072
17135WAT     H251648   4.297   5.223   6.912
17136WAT      O51649   1.873   2.296   5.212
17136WAT     H151650   1.865   2.230   5.287
17136WAT     H251651   1.796   2.360   5.217
17137WAT      O51652   3.691   7.176   8.417
17137WAT     H151653   3.664   7.190   8.322
17137WAT     H251654   3.775   7.122   8.421
17138WAT      O51655   4.527   8.376   9.581
17138WAT     H151656   4.539   8.458   9.525
17138WAT     H251657   4.435   8.375   9.620
17139WAT      O51658   7.711   7.954   8.535
17139WAT     H151659   7.630   7.899   8.555
17139WAT     H251660   7.685   8.035   8.482
17140WAT      O51661   9.034   9.355   4.668
17140WAT     H151662   9.042   9.445   4.624
17140WAT     H251663   8.959   9.357   4.734
17141WAT      O51664   7.946   5.319   9.523
17141WAT     H151665   7.847   5.330   9.512
17141WAT     H251666   7.969   5.222   9.523
17142WAT      O51667   6.566   1.658   2.817
17142WAT     H151668   6.573   1.562   2.843
17142WAT     H251669   6.555   1.666   2.718
17143WAT      O51670   3.896   7.729   3.258
17143WAT     H151671   3.936   7.670   3.188
17143WAT     H251672   3.802   7.752   3.233
17144WAT      O51673   5.407   6.400   1.787
17144WAT     H151674   5.499   6.436   1.770
17144WAT     H251675   5.358   6.392   1.700
17145WAT      O51676   1.121   6.763   4.665
17145WAT     H151677   1.074   6.812   4.592
17145WAT     H251678   1.137   6.824   4.742
17146WAT      O51679   8.386   3.565   8.247
17146WAT     H151680   8.288   3.564   8.225
17146WAT     H251681   8.398   3.551   8.345
17147WAT      O51682   5.306   1.335   5.716
17147WAT     H151683   5.361   1.407   5.758
17147WAT     H251684   5.364   1.280   5.657
17148WAT      O51685   7.902   1.722   6.023
17148WAT     H151686   7.830   1.754   6.085
17148WAT     H251687   7.990   1.754   6.056
17149WAT      O51688   9.761   8.154   0.366
17149WAT     H151689   9.837   8.130   0.426
17149WAT     H251690   9.775   8.247   0.331
17150WAT      O51691   2.571   3.854   6.803
17150WAT     H151692   2.648   3.903   6.764
17150WAT     H251693   2.537   3.904   6.883
17151WAT      O51694   4.615   0.731   3.414
17151WAT     H151695   4.686   0.785   3.459
17151WAT     H251696   4.560   0.790   3.355
17152WAT      O51697   4.038   9.700   0.959
17152WAT     H151698   4.052   9.774   0.893
17152WAT     H251699   3.941   9.698   0.986
17153WAT      O51700   6.191   1.192   9.489
17153WAT     H151701   6.222   1.141   9.569
17153WAT     H251702   6.189   1.289   9.509
17154WAT      O51703   6.813   2.363   4.905
17154WAT     H151704   6.866   2.294   4.856
17154WAT     H251705   6.729   2.321   4.939
17155WAT      O51706   7.476   0.721   0.843
17155WAT     H151707   7.551   0.664   0.809
17155WAT     H251708   7.394   0.665   0.855
17156WAT      O51709   5.533   7.898   6.723
17156WAT     H151710   5.492   7.919   6.635
17156WAT     H251711   5.617   7.845   6.709
17157WAT      O51712   6.465   4.469   6.891
17157WAT     H151713   6.462   4.391   6.830
17157WAT     H251714   6.494   4.439   6.982
17158WAT      O51715   9.139   7.099   7.391
17158WAT     H151716   9.167   7.194   7.380
17158WAT     H251717   9.185   7.059   7.471
17159WAT      O51718   3.041   1.223   0.747
17159WAT     H151719   2.943   1.225   0.766
17159WAT     H251720   3.057   1.176   0.660
17160WAT      O51721   0.074   2.363   3.277
17160WAT     H151722   0.116   2.362   3.186
17160WAT     H251723   0.067   2.269   3.311
17161WAT      O51724   1.186   3.164   8.864
17161WAT     H151725   1.201   3.187   8.767
17161WAT     H251726   1.087   3.159   8.882
17162WAT      O51727   1.673   6.389   3.581
17162WAT     H151728   1.658   6.362   3.486
17162WAT     H251729   1.593   6.440   3.614
17163WAT      O51730   0.948   1.051   1.730
17163WAT     H151731   0.965   1.098   1.643
17163WAT     H251732   1.021   1.071   1.795
17164WAT      O51733   5.547   6.034   2.649
17164WAT     H151734   5.632   5.983   2.659
17164WAT     H251735   5.510   6.056   2.739
17165WAT      O51736   5.435   9.432   5.014
17165WAT     H151737   5.453   9.343   5.057
17165WAT     H251738   5.337   9.450   5.014
17166WAT      O51739   0.537   3.868   6.995
17166WAT     H151740   0.630   3.899   7.013
17166WAT     H251741   0.520   3.784   7.046
17167WAT      O51742   6.318   2.557   4.671
17167WAT     H151743   6.360   2.643   4.642
17167WAT     H251744   6.311   2.556   4.771
17168WAT      O51745   0.720   9.714   1.251
17168WAT     H151746   0.647   9.647   1.263
17168WAT     H251747   0.689   9.787   1.191
17169WAT      O51748   2.456   0.932   6.580
17169WAT     H151749   2.357   0.945   6.577
17169WAT     H251750   2.494   0.982   6.658
17170WAT      O51751   3.588   4.570   5.994
17170WAT     H151752   3.531   4.588   6.074
17170WAT     H251753   3.607   4.472   5.987
17171WAT      O51754   1.535   5.497   9.703
17171WAT     H151755   1.562   5.588   9.673
17171WAT     H251756   1.450   5.470   9.657
17172WAT      O51757   2.743   2.486   1.242
17172WAT     H151758   2.747   2.556   1.313
17172WAT     H251759   2.649   2.452   1.233
17173WAT      O51760   2.169   8.028   6.850
17173WAT     H151761   2.259   8.023   6.892
17173WAT     H251762   2.099   8.023   6.921
17174WAT      O51763   8.278   7.961   7.107
17174WAT     H151764   8.265   7.913   7.020
17174WAT     H251765   8.190   7.963   7.156
17175WAT      O51766   1.037   4.815   9.375
17175WAT     H151767   1.076   4.813   9.283
17175WAT     H251768   0.996   4.726   9.395
17176WAT      O51769   3.489   7.156   7.178
17176WAT     H151770   3.464   7.119   7.088
17176WAT     H251771   3.559   7.097   7.220
17177WAT      O51772   0.269   3.311   4.963
17177WAT     H151773   0.292   3.344   4.871
17177WAT     H251774   0.199   3.240   4.957
17178WAT      O51775   2.742   3.771   8.992
17178WAT     H151776   2.646   3.800   8.990
17178WAT     H251777   2.766   3.728   8.905
17179WAT      O51778   5.785   9.316   6.929
17179WAT     H151779   5.786   9.378   6.850
17179WAT     H251780   5.690   9.291   6.950
17180WAT      O51781   3.938   0.480   3.258
17180WAT     H151782   3.978   0.469   3.349
17180WAT     H251783   3.921   0.577   3.240
17181WAT      O51784   3.758   3.925   4.000
17181WAT     H151785   3.798   3.883   3.919
17181WAT     H251786   3.713   4.011   3.975
17182WAT      O51787   5.128   1.288   3.594
17182WAT     H151788   5.221   1.325   3.603
17182WAT     H251789   5.111   1.266   3.498
17183WAT      O51790   7.855   3.330   6.096
17183WAT     H151791   7.846   3.263   6.023
17183WAT     H251792   7.939   3.383   6.083
17184WAT      O51793   3.736   8.367   1.088
17184WAT     H151794   3.796   8.296   1.124
17184WAT     H251795   3.763   8.388   0.994
17185WAT      O51796   9.877   7.611   2.447
17185WAT     H151797   9.921   7.535   2.495
17185WAT     H251798   9.942   7.652   2.383
17186WAT      O51799   1.810   7.154   6.663
17186WAT     H151800   1.881   7.100   6.618
17186WAT     H251801   1.845   7.192   6.748
17187WAT      O51802   7.979   3.606   1.337
17187WAT     H151803   7.894   3.641   1.376
17187WAT     H251804   8.043   3.583   1.411
17188WAT      O51805   3.822   0.821   9.709
17188WAT     H151806   3.770   0.903   9.733
17188WAT     H251807   3.790   0.785   9.622
17189WAT      O51808   7.043   7.162   8.985
17189WAT     H151809   7.049   7.139   8.888
17189WAT     H251810   6.980   7.240   8.997
17190WAT      O51811   8.244   9.596   7.623
17190WAT     H151812   8.179   9.636   7.688
17190WAT     H251813   8.331   9.644   7.630
17191WAT      O51814   2.197   4.715   7.489
17191WAT     H151815   2.156   4.798   7.526
17191WAT     H251816   2.158   4.695   7.399
17192WAT      O51817   1.771   8.625   4.880
17192WAT     H151818   1.700   8.555   4.875
17192WAT     H251819   1.766   8.683   4.798
17193WAT      O51820   9.214   8.321   4.594
17193WAT     H151821   9.120   8.350   4.576
17193WAT     H251822   9.216   8.264   4.676
17194WAT      O51823   9.339   6.952   5.086
17194WAT     H151824   9.312   6.856   5.087
17194WAT     H251825   9.402   6.968   5.011
17195WAT      O51826   9.882   9.650   6.062
17195WAT     H151827   9.808   9.613   6.006
17195WAT     H251828   9.970   9.614   6.030
17196WAT      O51829   2.011   1.132   0.322
17196WAT     H151830   1.966   1.208   0.275
17196WAT     H251831   2.085   1.167   0.378
17197WAT      O51832   6.824   6.641   2.373
17197WAT     H151833   6.728   6.667   2.372
17197WAT     H251834   6.841   6.576   2.448
17198WAT      O51835   8.727   0.287   4.145
17198WAT     H151836   8.777   0.371   4.124
17198WAT     H251837   8.655   0.273   4.077
17199WAT      O51838   7.780   4.095   3.479
17199WAT     H151839   7.763   4.074   3.383
17199WAT     H251840   7.745   4.021   3.536
17200WAT      O51841   4.454   1.745   3.110
17200WAT     H151842   4.489   1.813   3.045
17200WAT     H251843   4.483   1.770   3.202
17201WAT      O51844   1.118   5.111   2.806
17201WAT     H151845   1.019   5.121   2.796
17201WAT     H251846   1.138   5.046   2.880
17202WAT      O51847   2.560   2.028   1.766
17202WAT     H151848   2.536   2.007   1.861
17202WAT     H251849   2.559   1.944   1.712
17203WAT      O51850   2.001   4.095   2.082
17203WAT     H151851   1.904   4.076   2.069
17203WAT     H251852   2.028   4.173   2.025
17204WAT      O51853   1.328   1.970   8.040
17204WAT     H151854   1.315   2.039   7.969
17204WAT     H251855   1.413   1.920   8.023
17205WAT      O51856   2.407   2.480   9.683
17205WAT     H151857   2.356   2.428   9.751
17205WAT     H251858   2.345   2.540   9.632
17206WAT      O51859   9.816   0.792   2.043
17206WAT     H151860   9.873   0.746   2.111
17206WAT     H251861   9.832   0.891   2.048
17207WAT      O51862   4.826   1.413   7.237
17207WAT     H151863   4.832   1.494   7.177
17207WAT     H251864   4.741   1.417   7.289
17208WAT      O51865   9.511   1.807   2.021
17208WAT     H151866   9.435   1.862   2.056
17208WAT     H251867   9.512   1.719   2.069
17209WAT      O51868   6.122   1.358   0.041
17209WAT     H151869   6.027   1.342   0.013
17209WAT     H251870   6.144   1.302   0.120
17210WAT      O51871   4.381   1.104   9.193
17210WAT     H151872   4.283   1.083   9.185
17210WAT     H251873   4.413   1.077   9.284
17211WAT      O51874   8.444   3.621   8.939
17211WAT     H151875   8.524   3.564   8.957
17211WAT     H251876   8.386   3.624   9.020
17212WAT      O51877   6.216   2.933   0.538
17212WAT     H151878   6.183   3.006   0.477
17212WAT     H251879   6.214   2.965   0.632
17213WAT      O51880   9.322   3.372   9.710
17213WAT     H151881   9.325   3.276   9.685
17213WAT     H251882   9.411   3.414   9.692
17214WAT      O51883   6.811   0.383   6.863
17214WAT     H151884   6.846   0.331   6.942
17214WAT     H251885   6.711   0.377   6.862
17215WAT      O51886   6.474   2.624   3.934
17215WAT     H151887   6.553   2.679   3.907
17215WAT     H251888   6.498   2.566   4.012
17216WAT      O51889   6.293   6.559   8.396
17216WAT     H151890   6.308   6.536   8.300
17216WAT     H251891   6.213   6.508   8.430
17217WAT      O51892   5.817   2.592   6.574
17217WAT     H151893   5.785   2.605   6.480
17217WAT     H251894   5.900   2.537   6.574
17218WAT      O51895   5.290   3.192   2.593
17218WAT     H151896   5.282   3.119   2.525
17218WAT     H251897   5.199   3.211   2.631
17219WAT      O51898   7.640   1.979   5.637
17219WAT     H151899   7.626   2.033   5.720
17219WAT     H251900   7.737   1.963   5.623
17220WAT      O51901   4.523   1.520   0.181
17220WAT     H151902   4.428   1.497   0.202
17220WAT     H251903   4.534   1.620   0.181
17221WAT      O51904   0.258   9.198   1.534
17221WAT     H151905   0.204   9.264   1.586
17221WAT     H251906   0.291   9.126   1.595
17222WAT      O51907   9.656   5.708   1.756
17222WAT     H151908   9.692   5.795   1.723
17222WAT     H251909   9.635   5.649   1.678
17223WAT      O51910   2.694   2.966   9.395
17223WAT     H151911   2.720   2.986   9.489
17223WAT     H251912   2.773   2.978   9.335
17224WAT      O51913   1.055   3.209   7.536
17224WAT     H151914   1.142   3.253   7.513
17224WAT     H251915   0.988   3.227   7.464
17225WAT      O51916   1.944   1.898   1.483
17225WAT     H151917   1.933   1.972   1.418
17225WAT     H251918   1.883   1.823   1.460
17226WAT      O51919   8.813   6.315   8.502
17226WAT     H151920   8.775   6.400   8.465
17226WAT     H251921   8.743   6.268   8.556
17227WAT      O51922   3.945   3.769   0.893
17227WAT     H151923   3.897   3.774   0.981
17227WAT     H251924   3.933   3.856   0.844
17228WAT      O51925   1.703   9.087   8.450
17228WAT     H151926   1.628   9.117   8.509
17228WAT     H251927   1.789   9.122   8.485
17229WAT      O51928   3.663   0.527   2.843
17229WAT     H151929   3.596   0.458   2.871
17229WAT     H251930   3.618   0.617   2.841
17230WAT      O51931   6.449   1.080   5.368
17230WAT     H151932   6.477   1.092   5.273
17230WAT     H251933   6.353   1.054   5.371
17231WAT      O51934   0.581   6.127   7.330
17231WAT     H151935   0.517   6.136   7.254
17231WAT     H251936   0.558   6.194   7.401
17232WAT      O51937   0.675   1.256   0.184
17232WAT     H151938   0.679   1.160   0.158
17232WAT     H251939   0.704   1.266   0.280
17233WAT      O51940   9.514   7.902   3.055
17233WAT     H151941   9.500   7.997   3.080
17233WAT     H251942   9.584   7.862   3.114
17234WAT      O51943   8.862   7.369   2.939
17234WAT     H151944   8.891   7.291   2.994
17234WAT     H251945   8.795   7.423   2.990
17235WAT      O51946   7.359   8.475   3.696
17235WAT     H151947   7.298   8.407   3.656
17235WAT     H251948   7.384   8.543   3.627
17236WAT      O51949   6.594   2.056   0.173
17236WAT     H151950   6.645   2.141   0.187
17236WAT     H251951   6.523   2.048   0.243
17237WAT      O51952   9.317   2.749   0.049
17237WAT     H151953   9.261   2.666   0.049
17237WAT     H251954   9.258   2.828   0.033
17238WAT      O51955   6.746   3.076   4.618
17238WAT     H151956   6.682   3.027   4.678
17238WAT     H251957   6.729   3.174   4.623
17239WAT      O51958   3.008   7.967   6.874
17239WAT     H151959   2.954   8.050   6.864
17239WAT     H251960   3.086   7.985   6.934
17240WAT      O51961   2.399   6.882   2.336
17240WAT     H151962   2.396   6.904   2.238
17240WAT     H251963   2.425   6.964   2.388
17241WAT      O51964   5.655   7.479   5.319
17241WAT     H151965   5.712   7.529   5.384
17241WAT     H251966   5.571   7.531   5.302
17242WAT      O51967   4.386   1.740   6.778
17242WAT     H151968   4.314   1.787   6.729
17242WAT     H251969   4.465   1.801   6.788
17243WAT      O51970   0.301   8.640   4.106
17243WAT     H151971   0.364   8.687   4.044
17243WAT     H251972   0.227   8.598   4.053
17244WAT      O51973   0.418   0.098   2.998
17244WAT     H151974   0.412   0.033   3.073
17244WAT     H251975   0.416   0.191   3.035
17245WAT      O51976   3.430   2.495   3.078
17245WAT     H151977   3.454   2.434   3.002
17245WAT     H251978   3.425   2.442   3.163
17246WAT      O51979   1.908   9.178   5.188
17246WAT     H151980   2.006   9.185   5.170
17246WAT     H251981   1.863   9.264   5.165
17247WAT      O51982   2.323   3.137   5.657
17247WAT     H151983   2.316   3.070   5.583
17247WAT     H251984   2.419   3.152   5.681
17248WAT      O51985   9.238   1.908   5.643
17248WAT     H151986   9.171   1.841   5.676
17248WAT     H251987   9.197   1.964   5.572
17249WAT      O51988   6.157   5.495   6.384
17249WAT     H151989   6.097   5.503   6.305
17249WAT     H251990   6.117   5.431   6.450
17250WAT      O51991   3.015   9.488   5.299
17250WAT     H151992   3.042   9.398   5.334
17250WAT     H251993   2.949   9.476   5.225
17251WAT      O51994   2.216   0.474   0.105
17251WAT     H151995   2.266   0.471   0.018
17251WAT     H251996   2.208   0.381   0.142
17252WAT      O51997   1.572   0.659   5.045
17252WAT     H151998   1.520   0.743   5.031
17252WAT     H251999   1.544   0.591   4.977
17253WAT      O52000   3.385   7.186   8.806
17253WAT     H152001   3.453   7.155   8.739
17253WAT     H252002   3.413   7.158   8.897
17254WAT      O52003   7.251   3.637   0.576
17254WAT     H152004   7.173   3.652   0.515
17254WAT     H252005   7.319   3.581   0.529
17255WAT      O52006   7.169   5.557   0.304
17255WAT     H152007   7.136   5.637   0.356
17255WAT     H252008   7.177   5.479   0.365
17256WAT      O52009   3.609   9.313   4.610
17256WAT     H152010   3.535   9.350   4.666
17256WAT     H252011   3.575   9.233   4.560
17257WAT      O52012   5.932   6.342   2.215
17257WAT     H152013   5.916   6.434   2.179
17257WAT     H252014   5.871   6.326   2.292
17258WAT      O52015   7.578   0.842   5.645
17258WAT     H152016   7.498   0.799   5.689
17258WAT     H252017   7.661   0.797   5.678
17259WAT      O52018   5.575   3.450   2.915
17259WAT     H152019   5.517   3.527   2.942
17259WAT     H252020   5.519   3.367   2.910
17260WAT      O52021   8.538   0.078   5.562
17260WAT     H152022   8.504   0.168   5.534
17260WAT     H252023   8.460   0.020   5.590
17261WAT      O52024   2.275   5.506   4.462
17261WAT     H152025   2.301   5.436   4.529
17261WAT     H252026   2.230   5.463   4.384
17262WAT      O52027   2.908   1.928   2.812
17262WAT     H152028   3.008   1.937   2.814
17262WAT     H252029   2.869   1.994   2.749
17263WAT      O52030   2.431   1.271   2.963
17263WAT     H152031   2.393   1.325   2.887
17263WAT     H252032   2.528   1.256   2.947
17264WAT      O52033   1.998   8.047   8.022
17264WAT     H152034   2.016   7.952   7.999
17264WAT     H252035   1.915   8.078   7.976
17265WAT      O52036   2.593   1.842   2.185
17265WAT     H152037   2.564   1.809   2.095
17265WAT     H252038   2.519   1.827   2.251
17266WAT      O52039   3.206   0.889   3.422
17266WAT     H152040   3.167   0.909   3.332
17266WAT     H252041   3.145   0.827   3.472
17267WAT      O52042   0.602   2.893   4.691
17267WAT     H152043   0.631   2.883   4.786
17267WAT     H252044   0.538   2.970   4.684
17268WAT      O52045   4.629   5.256   6.868
17268WAT     H152046   4.546   5.205   6.844
17268WAT     H252047   4.679   5.207   6.939
17269WAT      O52048   2.085   4.889   6.844
17269WAT     H152049   2.016   4.921   6.909
17269WAT     H252050   2.174   4.930   6.867
17270WAT      O52051   8.396   0.037   4.436
17270WAT     H152052   8.466   0.109   4.441
17270WAT     H252053   8.373   0.019   4.341
17271WAT      O52054   2.112   9.801   3.559
17271WAT     H152055   2.020   9.781   3.527
17271WAT     H252056   2.137   9.735   3.630
17272WAT      O52057   3.573   4.665   4.387
17272WAT     H152058   3.657   4.715   4.368
17272WAT     H252059   3.578   4.573   4.346
17273WAT      O52060   1.754   3.300   9.191
17273WAT     H152061   1.711   3.345   9.268
17273WAT     H252062   1.853   3.313   9.195
17274WAT      O52063   0.579   1.345   7.257
17274WAT     H152064   0.562   1.324   7.160
17274WAT     H252065   0.507   1.304   7.313
17275WAT      O52066   9.117   8.357   8.166
17275WAT     H152067   9.060   8.418   8.220
17275WAT     H252068   9.125   8.392   8.073
17276WAT      O52069   0.114   9.455   8.472
17276WAT     H152070   0.200   9.492   8.439
17276WAT     H252071   0.045   9.528   8.475
17277WAT      O52072   9.752   1.932   6.490
17277WAT     H152073   9.850   1.950   6.495
17277WAT     H252074   9.720   1.951   6.397
17278WAT      O52075   8.506   0.559   0.083
17278WAT     H152076   8.478   0.636   0.025
17278WAT     H252077   8.434   0.489   0.082
17279WAT      O52078   0.639   2.068   4.613
17279WAT     H152079   0.664   1.972   4.606
17279WAT     H252080   0.721   2.124   4.614
17280WAT      O52081   4.836   2.210   8.714
17280WAT     H152082   4.904   2.141   8.740
17280WAT     H252083   4.763   2.212   8.782
17281WAT      O52084   9.626   2.224   4.473
17281WAT     H152085   9.639   2.288   4.548
17281WAT     H252086   9.699   2.236   4.406
17282WAT      O52087   7.696   0.862   8.629
17282WAT     H152088   7.707   0.767   8.660
17282WAT     H252089   7.740   0.873   8.540
17283WAT      O52090   8.548   8.973   5.444
17283WAT     H152091   8.498   8.888   5.458
17283WAT     H252092   8.530   9.008   5.352
17284WAT      O52093   1.494   1.718   7.513
17284WAT     H152094   1.493   1.619   7.501
17284WAT     H252095   1.491   1.763   7.424
17285WAT      O52096   7.487   2.512   0.849
17285WAT     H152097   7.514   2.453   0.925
17285WAT     H252098   7.412   2.469   0.798
17286WAT      O52099   2.996   7.090   1.701
17286WAT     H152100   3.061   7.017   1.718
17286WAT     H252101   2.932   7.061   1.630
17287WAT      O52102   1.104   8.845   4.782
17287WAT     H152103   1.182   8.870   4.725
17287WAT     H252104   1.025   8.901   4.757
17288WAT      O52105   5.764   1.365   7.440
17288WAT     H152106   5.713   1.372   7.354
17288WAT     H252107   5.857   1.336   7.421
17289WAT      O52108   9.842   0.059   7.900
17289WAT     H152109   9.755   0.032   7.944
17289WAT     H252110   9.918   0.034   7.960
17290WAT      O52111   3.098   6.932   5.335
17290WAT     H152112   3.077   6.878   5.253
17290WAT     H252113   3.196   6.929   5.353
17291WAT      O52114   8.966   4.150   8.770
17291WAT     H152115   8.915   4.087   8.711
17291WAT     H252116   9.003   4.225   8.715
17292WAT      O52117   2.380   3.755   1.082
17292WAT     H152118   2.445   3.738   1.008
17292WAT     H252119   2.291   3.715   1.058
17293WAT      O52120   7.628   8.738   4.597
17293WAT     H152121   7.535   8.735   4.563
17293WAT     H252122   7.629   8.716   4.694
17294WAT      O52123   8.902   0.124   3.106
17294WAT     H152124   8.990   0.103   3.150
17294WAT     H252125   8.918   0.167   3.018
17295WAT      O52126   3.286   6.455   5.244
17295WAT     H152127   3.366   6.514   5.245
17295WAT     H252128   3.314   6.359   5.235
17296WAT      O52129   8.443   8.116   8.399
17296WAT     H152130   8.345   8.128   8.388
17296WAT     H252131   8.481   8.193   8.450
17297WAT      O52132   7.193   5.451   2.344
17297WAT     H152133   7.172   5.408   2.256
17297WAT     H252134   7.268   5.517   2.331
17298WAT      O52135   2.276   9.010   8.381
17298WAT     H152136   2.311   9.097   8.344
17298WAT     H252137   2.219   8.965   8.312
17299WAT      O52138   8.156   1.783   6.068
17299WAT     H152139   8.168   1.821   5.977
17299WAT     H252140   8.223   1.710   6.083
17300WAT      O52141   6.786   7.703   5.372
17300WAT     H152142   6.842   7.629   5.333
17300WAT     H252143   6.843   7.758   5.434
17301WAT      O52144   6.309   4.043   9.621
17301WAT     H152145   6.327   4.135   9.586
17301WAT     H252146   6.302   3.979   9.545
17302WAT      O52147   2.931   7.450   4.905
17302WAT     H152148   2.998   7.521   4.883
17302WAT     H252149   2.956   7.365   4.859
17303WAT      O52150   3.284   3.848   6.311
17303WAT     H152151   3.345   3.913   6.355
17303WAT     H252152   3.225   3.896   6.245
17304WAT      O52153   5.094   0.754   5.922
17304WAT     H152154   5.016   0.693   5.909
17304WAT     H252155   5.092   0.791   6.015
17305WAT      O52156   0.722   1.197   6.643
17305WAT     H152157   0.774   1.181   6.726
17305WAT     H252158   0.778   1.174   6.563
17306WAT      O52159   5.975   6.652   5.426
17306WAT     H152160   5.984   6.700   5.513
17306WAT     H252161   6.048   6.584   5.419
17307WAT      O52162   4.197   1.298   3.731
17307WAT     H152163   4.129   1.231   3.761
17307WAT     H252164   4.207   1.292   3.632
17308WAT      O52165   2.163   3.383   2.208
17308WAT     H152166   2.177   3.382   2.109
17308WAT     H252167   2.156   3.289   2.241
17309WAT      O52168   4.404   0.229   0.826
17309WAT     H152169   4.386   0.316   0.872
17309WAT     H252170   4.499   0.203   0.841
17310WAT      O52171   2.794   8.762   3.266
17310WAT     H152172   2.694   8.768   3.260
17310WAT     H252173   2.821   8.677   3.311
17311WAT      O52174   2.952   3.985   4.283
17311WAT     H152175   2.868   4.015   4.239
17311WAT     H252176   2.977   3.894   4.249
17312WAT      O52177   6.546   0.189   0.443
17312WAT     H152178   6.561   0.195   0.542
17312WAT     H252179   6.448   0.195   0.424
17313WAT      O52180   7.260   3.794   3.115
17313WAT     H152181   7.294   3.878   3.158
17313WAT     H252182   7.168   3.774   3.149
17314WAT      O52183   7.981   0.437   1.801
17314WAT     H152184   7.910   0.421   1.733
17314WAT     H252185   8.026   0.524   1.783
17315WAT      O52186   3.883   1.165   0.428
17315WAT     H152187   3.870   1.124   0.337
17315WAT     H252188   3.795   1.183   0.470
17316WAT      O52189   4.220   6.686   7.374
17316WAT     H152190   4.295   6.728   7.424
17316WAT     H252191   4.133   6.726   7.403
17317WAT      O52192   9.643   8.760   9.431
17317WAT     H152193   9.603   8.778   9.341
17317WAT     H252194   9.674   8.665   9.435
17318WAT      O52195   0.394   8.966   5.780
17318WAT     H152196   0.346   9.054   5.772
17318WAT     H252197   0.483   8.972   5.734
17319WAT      O52198   8.766   8.668   6.020
17319WAT     H152199   8.783   8.594   5.955
17319WAT     H252200   8.680   8.651   6.068
17320WAT      O52201   1.830   5.306   6.345
17320WAT     H152202   1.860   5.402   6.343
17320WAT     H252203   1.740   5.299   6.301
17321WAT      O52204   1.934   8.499   7.032
17321WAT     H152205   1.877   8.435   6.981
17321WAT     H252206   1.883   8.583   7.050
17322WAT      O52207   7.233   3.870   4.673
17322WAT     H152208   7.156   3.806   4.671
17322WAT     H252209   7.313   3.825   4.713
17323WAT      O52210   4.286   6.175   7.617
17323WAT     H152211   4.254   6.104   7.555
17323WAT     H252212   4.214   6.199   7.681
17324WAT      O52213   2.318   8.140   8.309
17324WAT     H152214   2.222   8.125   8.289
17324WAT     H252215   2.333   8.235   8.336
17325WAT      O52216   8.815   3.944   3.086
17325WAT     H152217   8.720   3.923   3.110
17325WAT     H252218   8.848   3.876   3.020
17326WAT      O52219   2.440   6.013   6.977
17326WAT     H152220   2.503   5.983   6.905
17326WAT     H252221   2.474   5.983   7.066
17327WAT      O52222   6.391   3.232   2.712
17327WAT     H152223   6.329   3.203   2.639
17327WAT     H252224   6.425   3.324   2.693
17328WAT      O52225   1.790   6.119   9.287
17328WAT     H152226   1.820   6.200   9.237
17328WAT     H252227   1.780   6.142   9.384
17329WAT      O52228   6.247   0.052   8.886
17329WAT     H152229   6.331  -0.000   8.871
17329WAT     H252230   6.195   0.057   8.801
17330WAT      O52231   2.225   6.816   4.927
17330WAT     H152232   2.156   6.834   4.997
17330WAT     H252233   2.196   6.739   4.871
17331WAT      O52234   4.529   0.660   2.473
17331WAT     H152235   4.607   0.722   2.473
17331WAT     H252236   4.556   0.572   2.510
17332WAT      O52237   1.738   8.887   7.864
17332WAT     H152238   1.812   8.821   7.857
17332WAT     H252239   1.764   8.972   7.818
17333WAT      O52240   9.755   9.606   3.022
17333WAT     H152241   9.840   9.613   2.970
17333WAT     H252242   9.678   9.636   2.965
17334WAT      O52243   1.501   8.442   2.983
17334WAT     H152244   1.470   8.515   2.922
17334WAT     H252245   1.591   8.465   3.020
17335WAT      O52246   7.350   5.950   2.320
17335WAT     H152247   7.316   5.954   2.226
17335WAT     H252248   7.324   6.034   2.369
17336WAT      O52249   0.143   0.564   9.158
17336WAT     H152250   0.148   0.664   9.157
17336WAT     H252251   0.140   0.531   9.252
17337WAT      O52252   6.627   4.928   5.991
17337WAT     H152253   6.625   4.828   5.984
17337WAT     H252254   6.556   4.959   6.053
17338WAT      O52255   7.943   0.376   2.888
17338WAT     H152256   7.928   0.345   2.794
17338WAT     H252257   7.865   0.432   2.917
17339WAT      O52258   1.064   7.910   1.878
17339WAT     H152259   1.149   7.960   1.896
17339WAT     H252260   1.086   7.814   1.860
17340WAT      O52261   6.601   9.202   6.243
17340WAT     H152262   6.663   9.188   6.166
17340WAT     H252263   6.554   9.116   6.264
17341WAT      O52264   2.405   5.070   6.352
17341WAT     H152265   2.501   5.040   6.350
17341WAT     H252266   2.347   4.996   6.318
17342WAT      O52267   1.288   2.529   8.109
17342WAT     H152268   1.388   2.536   8.105
17342WAT     H252269   1.250   2.554   8.020
17343WAT      O52270   3.083   4.697   4.505
17343WAT     H152271   3.079   4.646   4.419
17343WAT     H252272   3.070   4.794   4.486
17344WAT      O52273   7.326   7.169   4.343
17344WAT     H152274   7.413   7.214   4.363
17344WAT     H252275   7.288   7.205   4.258
17345WAT      O52276   1.766   6.850   9.609
17345WAT     H152277   1.836   6.842   9.680
17345WAT     H252278   1.712   6.932   9.625
17346WAT      O52279   9.255   7.570   5.612
17346WAT     H152280   9.324   7.504   5.585
17346WAT     H252281   9.182   7.573   5.543
17347WAT      O52282   8.692   6.748   5.549
17347WAT     H152283   8.778   6.724   5.593
17347WAT     H252284   8.708   6.816   5.478
17348WAT      O52285   4.994   2.187   5.439
17348WAT     H152286   4.981   2.166   5.342
17348WAT     H252287   4.908   2.222   5.477
17349WAT      O52288   4.488   2.851   5.288
17349WAT     H152289   4.447   2.781   5.346
17349WAT     H252290   4.487   2.939   5.335
17350WAT      O52291   3.571   4.399   4.284
17350WAT     H152292   3.583   4.327   4.352
17350WAT     H252293   3.647   4.395   4.218
17351WAT      O52294   7.128   3.941   3.439
17351WAT     H152295   7.075   3.945   3.354
17351WAT     H252296   7.202   3.875   3.430
17352WAT      O52297   8.308   3.800   3.228
17352WAT     H152298   8.216   3.839   3.226
17352WAT     H252299   8.315   3.728   3.159
17353WAT      O52300   8.132   5.938   5.156
17353WAT     H152301   8.085   5.850   5.157
17353WAT     H252302   8.168   5.955   5.064
17354WAT      O52303   0.883   4.388   8.318
17354WAT     H152304   0.843   4.369   8.228
17354WAT     H252305   0.841   4.328   8.386
17355WAT      O52306   5.234   5.257   8.837
17355WAT     H152307   5.285   5.172   8.830
17355WAT     H252308   5.145   5.247   8.793
17356WAT      O52309   0.328   7.340   0.354
17356WAT     H152310   0.411   7.387   0.384
17356WAT     H252311   0.339   7.241   0.369
17357WAT      O52312   1.211   4.921   5.792
17357WAT     H152313   1.206   4.945   5.695
17357WAT     H252314   1.215   5.004   5.848
17358WAT      O52315   1.830   1.119   1.157
17358WAT     H152316   1.920   1.082   1.133
17358WAT     H252317   1.761   1.047   1.146
17359WAT      O52318   5.182   8.062   8.249
17359WAT     H152319   5.092   8.104   8.243
17359WAT     H252320   5.194   7.997   8.174
17360WAT      O52321   2.774   0.863   7.006
17360WAT     H152322   2.736   0.782   7.051
17360WAT     H252323   2.734   0.945   7.046
17361WAT      O52324   6.385   5.537   9.225
17361WAT     H152325   6.305   5.546   9.285
17361WAT     H252326   6.408   5.441   9.214
17362WAT      O52327   8.722   1.010   1.413
17362WAT     H152328   8.679   1.056   1.491
17362WAT     H252329   8.819   1.030   1.411
17363WAT      O52330   0.662   6.455   8.905
17363WAT     H152331   0.566   6.464   8.934
17363WAT     H252332   0.698   6.546   8.883
17364WAT      O52333   8.014   0.093   6.179
17364WAT     H152334   7.991   0.134   6.267
17364WAT     H252335   8.111   0.069   6.177
17365WAT      O52336   0.236   9.046   0.872
17365WAT     H152337   0.205   9.001   0.956
17365WAT     H252338   0.226   8.984   0.795
17366WAT      O52339   9.396   2.991   1.867
17366WAT     H152340   9.417   2.936   1.948
17366WAT     H252341   9.338   2.939   1.805
17367WAT      O52342   6.856   8.156   6.083
17367WAT     H152343   6.805   8.194   6.005
17367WAT     H252344   6.805   8.078   6.120
17368WAT      O52345   6.484   4.609   1.532
17368WAT     H152346   6.438   4.693   1.505
17368WAT     H252347   6.504   4.612   1.630
17369WAT      O52348   5.479   0.517   7.501
17369WAT     H152349   5.445   0.605   7.535
17369WAT     H252350   5.494   0.523   7.403
17370WAT      O52351   5.901   7.378   3.580
17370WAT     H152352   5.902   7.466   3.533
17370WAT     H252353   5.980   7.372   3.641
17371WAT      O52354   7.183   6.588   0.261
17371WAT     H152355   7.213   6.590   0.165
17371WAT     H252356   7.135   6.673   0.282
17372WAT      O52357   1.433   2.366   8.681
17372WAT     H152358   1.392   2.449   8.643
17372WAT     H252359   1.470   2.310   8.606
17373WAT      O52360   1.243   6.169   3.746
17373WAT     H152361   1.203   6.086   3.787
17373WAT     H252362   1.333   6.147   3.708
17374WAT      O52363   7.793   2.749   8.320
17374WAT     H152364   7.726   2.823   8.328
17374WAT     H252365   7.783   2.705   8.231
17375WAT      O52366   8.276   3.628   2.703
17375WAT     H152367   8.208   3.673   2.645
17375WAT     H252368   8.314   3.549   2.655
17376WAT      O52369   9.680   3.023   4.079
17376WAT     H152370   9.584   3.003   4.061
17376WAT     H252371   9.733   2.938   4.081
17377WAT      O52372   1.718   9.210   5.572
17377WAT     H152373   1.715   9.134   5.507
17377WAT     H252374   1.626   9.247   5.584
17378WAT      O52375   5.667   7.846   0.013
17378WAT     H152376   5.749   7.839   0.069
17378WAT     H252377   5.621   7.933   0.031
17379WAT      O52378   3.224   0.589   9.615
17379WAT     H152379   3.228   0.500   9.569
17379WAT     H252380   3.309   0.606   9.664
17380WAT      O52381   8.375   5.067   6.795
17380WAT     H152382   8.396   5.160   6.827
17380WAT     H252383   8.425   5.001   6.850
17381WAT      O52384   8.245   2.880   8.774
17381WAT     H152385   8.208   2.968   8.804
17381WAT     H252386   8.185   2.806   8.807
17382WAT      O52387   2.923   2.899   9.698
17382WAT     H152388   2.838   2.918   9.748
17382WAT     H252389   2.974   2.827   9.746
17383WAT      O52390   9.105   0.869   4.185
17383WAT     H152391   9.079   0.965   4.195
17383WAT     H252392   9.204   0.860   4.192
17384WAT      O52393   8.935   2.714   3.619
17384WAT     H152394   8.941   2.809   3.587
17384WAT     H252395   9.015   2.693   3.675
17385WAT      O52396   8.923   6.786   3.231
17385WAT     H152397   8.924   6.687   3.245
17385WAT     H252398   8.861   6.829   3.297
17386WAT      O52399   7.032   8.035   6.895
17386WAT     H152400   7.028   8.033   6.795
17386WAT     H252401   7.086   7.957   6.928
17387WAT      O52402   4.349   5.960   2.526
17387WAT     H152403   4.333   5.901   2.604
17387WAT     H252404   4.440   5.943   2.488
17388WAT      O52405   7.927   1.547   5.808
17388WAT     H152406   7.916   1.632   5.858
17388WAT     H252407   8.016   1.546   5.762
17389WAT      O52408   3.427   1.049   2.119
17389WAT     H152409   3.337   1.092   2.119
17389WAT     H252410   3.433   0.983   2.193
17390WAT      O52411   7.913   7.539   5.700
17390WAT     H152412   8.006   7.521   5.732
17390WAT     H252413   7.848   7.493   5.761
17391WAT      O52414   7.126   9.531   5.964
17391WAT     H152415   7.190   9.495   5.896
17391WAT     H252416   7.158   9.506   6.055
17392WAT      O52417   3.258   3.937   0.152
17392WAT     H152418   3.251   4.030   0.189
17392WAT     H252419   3.253   3.871   0.226
17393WAT      O52420   2.026   6.663   1.758
17393WAT     H152421   1.988   6.593   1.818
17393WAT     H252422   2.093   6.620   1.697
17394WAT      O52423   7.955   4.449   0.609
17394WAT     H152424   7.898   4.483   0.534
17394WAT     H252425   8.035   4.402   0.571
17395WAT      O52426   3.723   8.187   7.834
17395WAT     H152427   3.656   8.143   7.893
17395WAT     H252428   3.815   8.168   7.867
17396WAT      O52429   3.403   1.424   1.708
17396WAT     H152430   3.329   1.491   1.707
17396WAT     H252431   3.366   1.334   1.688
17397WAT      O52432   2.784   9.022   1.004
17397WAT     H152433   2.790   8.961   1.083
17397WAT     H252434   2.802   9.116   1.033
17398WAT      O52435   0.337   2.065   8.511
17398WAT     H152436   0.417   2.025   8.465
17398WAT     H252437   0.300   2.139   8.454
17399WAT      O52438   6.921   2.444   5.127
17399WAT     H152439   6.967   2.370   5.177
17399WAT     H252440   6.911   2.418   5.031
17400WAT      O52441   1.886   4.361   4.210
17400WAT     H152442   1.956   4.430   4.193
17400WAT     H252443   1.899   4.284   4.146
17401WAT      O52444   4.789   2.390   8.286
17401WAT     H152445   4.759   2.485   8.297
17401WAT     H252446   4.795   2.368   8.189
17402WAT      O52447   2.977   2.930   1.154
17402WAT     H152448   2.962   2.945   1.057
17402WAT     H252449   3.074   2.944   1.176
17403WAT      O52450   6.710   2.828   3.099
17403WAT     H152451   6.652   2.790   3.026
17403WAT     H252452   6.738   2.754   3.161
17404WAT      O52453   0.034   3.680   4.410
17404WAT     H152454  -0.006   3.640   4.492
17404WAT     H252455   0.031   3.614   4.335
17405WAT      O52456   7.440   4.861   6.170
17405WAT     H152457   7.496   4.943   6.156
17405WAT     H252458   7.344   4.886   6.174
17406WAT      O52459   5.521   0.025   7.821
17406WAT     H152460   5.423   0.045   7.823
17406WAT     H252461   5.568   0.082   7.888
17407WAT      O52462   4.054   8.182   0.587
17407WAT     H152463   3.960   8.174   0.620
17407WAT     H252464   4.067   8.272   0.546
17408WAT      O52465   9.453   6.851   2.877
17408WAT     H152466   9.395   6.866   2.957
17408WAT     H252467   9.414   6.897   2.798
17409WAT      O52468   6.273   2.770   3.591
17409WAT     H152469   6.329   2.714   3.530
17409WAT     H252470   6.229   2.712   3.659
17410WAT      O52471   3.758   9.230   1.114
17410WAT     H152472   3.828   9.162   1.093
17410WAT     H252473   3.669   9.198   1.080
17411WAT      O52474   6.737   6.538   9.378
17411WAT     H152475   6.789   6.534   9.464
17411WAT     H252476   6.657   6.597   9.390
17412WAT      O52477   4.167   3.609   4.712
17412WAT     H152478   4.167   3.536   4.781
17412WAT     H252479   4.259   3.645   4.701
17413WAT      O52480   5.924   3.572   1.603
17413WAT     H152481   6.017   3.593   1.633
17413WAT     H252482   5.888   3.649   1.551
17414WAT      O52483   4.543   4.897   8.909
17414WAT     H152484   4.514   4.838   8.835
17414WAT     H252485   4.637   4.875   8.935
17415WAT      O52486   1.259   9.329   7.076
17415WAT     H152487   1.302   9.249   7.117
17415WAT     H252488   1.288   9.337   6.980
17416WAT      O52489   8.540   0.937   3.649
17416WAT     H152490   8.580   0.869   3.588
17416WAT     H252491   8.594   1.021   3.644
17417WAT      O52492   9.614   4.608   2.163
17417WAT     H152493   9.536   4.558   2.201
17417WAT     H252494   9.595   4.706   2.166
17418WAT      O52495   7.627   8.668   4.874
17418WAT     H152496   7.716   8.712   4.889
17418WAT     H252497   7.627   8.577   4.916
17419WAT      O52498   1.322   6.554   8.189
17419WAT     H152499   1.420   6.547   8.209
17419WAT     H252500   1.287   6.464   8.164
17420WAT      O52501   9.869   6.144   8.787
17420WAT     H152502   9.892   6.085   8.709
17420WAT     H252503   9.945   6.207   8.804
17421WAT      O52504   2.259   0.159   4.253
17421WAT     H152505   2.348   0.191   4.221
17421WAT     H252506   2.267   0.126   4.347
17422WAT      O52507   4.718   6.626   5.105
17422WAT     H152508   4.752   6.712   5.068
17422WAT     H252509   4.624   6.612   5.075
17423WAT      O52510   8.087   0.509   5.560
17423WAT     H152511   8.096   0.572   5.483
17423WAT     H252512   8.035   0.429   5.531
17424WAT      O52513   0.036   7.849   3.157
17424WAT     H152514   0.043   7.943   3.124
17424WAT     H252515   0.116   7.797   3.128
17425WAT      O52516   8.981   4.343   5.544
17425WAT     H152517   8.930   4.429   5.543
17425WAT     H252518   8.948   4.285   5.618
17426WAT      O52519   1.573   7.302   5.838
17426WAT     H152520   1.482   7.341   5.822
17426WAT     H252521   1.564   7.202   5.848
17427WAT      O52522   7.109   7.349   9.465
17427WAT     H152523   7.126   7.354   9.564
17427WAT     H252524   7.173   7.284   9.423
17428WAT      O52525   9.590   5.384   2.203
17428WAT     H152526   9.638   5.401   2.117
17428WAT     H252527   9.653   5.398   2.280
17429WAT      O52528   8.004   5.968   6.140
17429WAT     H152529   7.909   5.952   6.167
17429WAT     H252530   8.045   6.036   6.200
17430WAT      O52531   0.498   1.640   6.656
17430WAT     H152532   0.499   1.628   6.557
17430WAT     H252533   0.592   1.645   6.690
17431WAT      O52534   2.075   8.955   8.119
17431WAT     H152535   2.173   8.945   8.104
17431WAT     H252536   2.035   8.868   8.146
17432WAT      O52537   8.231   3.421   2.904
17432WAT     H152538   8.214   3.328   2.870
17432WAT     H252539   8.231   3.485   2.828
17433WAT      O52540   9.381   5.635   2.086
17433WAT     H152541   9.439   5.568   2.039
17433WAT     H252542   9.286   5.624   2.058
17434WAT      O52543   2.628   4.395   4.421
17434WAT     H152544   2.650   4.434   4.511
17434WAT     H252545   2.697   4.425   4.354
17435WAT      O52546   4.596   8.614   3.003
17435WAT     H152547   4.675   8.554   2.986
17435WAT     H252548   4.517   8.580   2.953
17436WAT      O52549   9.444   0.516   6.955
17436WAT     H152550   9.527   0.561   6.924
17436WAT     H252551   9.461   0.418   6.965
17437WAT      O52552   1.017   5.626   7.186
17437WAT     H152553   0.924   5.636   7.150
17437WAT     H252554   1.016   5.638   7.285
17438WAT      O52555   8.568   1.985   8.977
17438WAT     H152556   8.600   1.896   8.945
17438WAT     H252557   8.575   1.989   9.077
17439WAT      O52558   5.789   0.835   7.000
17439WAT     H152559   5.762   0.816   7.094
17439WAT     H252560   5.727   0.788   6.937
17440WAT      O52561   9.120   9.495   0.077
17440WAT     H152562   9.058   9.547   0.137
17440WAT     H252563   9.206   9.481   0.124
17441WAT      O52564   5.893   7.517   9.784
17441WAT     H152565   5.947   7.476   9.710
17441WAT     H252566   5.947   7.516   9.868
17442WAT      O52567   9.514   3.092   2.634
17442WAT     H152568   9.508   3.187   2.666
17442WAT     H252569   9.466   3.033   2.699
17443WAT      O52570   1.584   6.382   5.657
17443WAT     H152571   1.524   6.373   5.578
17443WAT     H252572   1.611   6.478   5.667
17444WAT      O52573   8.113   5.339   7.181
17444WAT     H152574   8.076   5.287   7.103
17444WAT     H252575   8.176   5.280   7.232
17445WAT      O52576   1.169   1.416   0.122
17445WAT     H152577   1.086   1.469   0.102
17445WAT     H252578   1.223   1.464   0.191
17446WAT      O52579   7.711   6.920   7.936
17446WAT     H152580   7.717   7.020   7.934
17446WAT     H252581   7.631   6.890   7.884
17447WAT      O52582   5.666   2.663   8.722
17447WAT     H152583   5.638   2.649   8.627
17447WAT     H252584   5.744   2.726   8.724
17448WAT      O52585   8.607   6.165   4.702
17448WAT     H152586   8.628   6.225   4.626
17448WAT     H252587   8.662   6.081   4.695
17449WAT      O52588   1.395   7.956   1.017
17449WAT     H152589   1.443   8.024   1.072
17449WAT     H252590   1.311   7.997   0.980
17450WAT      O52591   9.182   0.254   5.863
17450WAT     H152592   9.188   0.330   5.928
17450WAT     H252593   9.152   0.171   5.910
17451WAT      O52594   7.257   7.524   3.432
17451WAT     H152595   7.161   7.534   3.457
17451WAT     H252596   7.287   7.431   3.450
17452WAT      O52597   8.113   7.227   4.663
17452WAT     H152598   8.208   7.229   4.632
17452WAT     H252599   8.053   7.222   4.583
17453WAT      O52600   7.636   8.910   7.655
17453WAT     H152601   7.664   8.815   7.643
17453WAT     H252602   7.558   8.914   7.718
17454WAT      O52603   6.157   3.945   6.688
17454WAT     H152604   6.232   3.972   6.749
17454WAT     H252605   6.115   3.861   6.723
17455WAT      O52606   5.446   1.298   3.600
17455WAT     H152607   5.510   1.303   3.677
17455WAT     H252608   5.479   1.231   3.533
17456WAT      O52609   7.070   2.280   8.233
17456WAT     H152610   7.028   2.371   8.227
17456WAT     H252611   7.018   2.224   8.297
17457WAT      O52612   9.876   8.602   4.494
17457WAT     H152613   9.778   8.622   4.496
17457WAT     H252614   9.926   8.680   4.457
17458WAT      O52615   8.374   7.375   4.212
17458WAT     H152616   8.387   7.276   4.214
17458WAT     H252617   8.339   7.407   4.300
17459WAT      O52618   6.173   4.218   2.545
17459WAT     H152619   6.103   4.277   2.504
17459WAT     H252620   6.263   4.245   2.511
17460WAT      O52621   5.900   9.428   9.062
17460WAT     H152622   5.859   9.519   9.054
17460WAT     H252623   5.967   9.415   8.989
17461WAT      O52624   9.461   1.363   3.544
17461WAT     H152625   9.396   1.410   3.604
17461WAT     H252626   9.487   1.276   3.586
17462WAT      O52627   9.256   8.900   3.363
17462WAT     H152628   9.240   8.985   3.314
17462WAT     H252629   9.203   8.826   3.321
17463WAT      O52630   1.964   3.230   0.641
17463WAT     H152631   1.962   3.132   0.623
17463WAT     H252632   2.048   3.270   0.605
17464WAT      O52633   7.774   8.086   5.110
17464WAT     H152634   7.771   8.163   5.047
17464WAT     H252635   7.687   8.037   5.106
17465WAT      O52636   7.738   5.612   8.122
17465WAT     H152637   7.671   5.609   8.048
17465WAT     H252638   7.766   5.519   8.146
17466WAT      O52639   7.135   9.078   7.993
17466WAT     H152640   7.159   9.042   7.903
17466WAT     H252641   7.206   9.053   8.059
17467WAT      O52642   3.789   2.150   1.611
17467WAT     H152643   3.740   2.064   1.598
17467WAT     H252644   3.857   2.161   1.539
17468WAT      O52645   8.413   0.157   1.148
17468WAT     H152646   8.401   0.237   1.090
17468WAT     H252647   8.408   0.184   1.244
17469WAT      O52648   2.809   6.430   1.684
17469WAT     H152649   2.759   6.457   1.602
17469WAT     H252650   2.841   6.336   1.675
17470WAT      O52651   7.770   1.029   6.337
17470WAT     H152652   7.836   0.987   6.274
17470WAT     H252653   7.706   1.085   6.285
17471WAT      O52654   3.237   7.606   8.373
17471WAT     H152655   3.259   7.648   8.285
17471WAT     H252656   3.280   7.659   8.447
17472WAT      O52657   8.537   7.983   9.698
17472WAT     H152658   8.485   8.010   9.616
17472WAT     H252659   8.624   7.944   9.670
17473WAT      O52660   1.189   1.161   5.885
17473WAT     H152661   1.280   1.194   5.910
17473WAT     H252662   1.120   1.229   5.910
17474WAT      O52663   5.743   5.754   2.089
17474WAT     H152664   5.749   5.853   2.085
17474WAT     H252665   5.835   5.715   2.095
17475WAT      O52666   9.690   2.464   6.932
17475WAT     H152667   9.743   2.379   6.936
17475WAT     H252668   9.732   2.526   6.866
17476WAT      O52669   4.743   3.828   9.083
17476WAT     H152670   4.804   3.750   9.094
17476WAT     H252671   4.648   3.796   9.084
17477WAT      O52672   0.596   1.398   8.646
17477WAT     H152673   0.601   1.435   8.554
17477WAT     H252674   0.502   1.401   8.679
17478WAT      O52675   8.226   6.845   9.627
17478WAT     H152676   8.316   6.852   9.671
17478WAT     H252677   8.157   6.826   9.696
17479WAT      O52678   0.637   9.168   3.206
17479WAT     H152679   0.685   9.137   3.288
17479WAT     H252680   0.704   9.195   3.137
17480WAT      O52681   2.168   2.547   5.840
17480WAT     H152682   2.241   2.615   5.844
17480WAT     H252683   2.154   2.517   5.746
17481WAT      O52684   4.181   9.374   8.197
17481WAT     H152685   4.152   9.459   8.241
17481WAT     H252686   4.198   9.304   8.266
17482WAT      O52687   8.906   3.247   9.690
17482WAT     H152688   8.937   3.329   9.642
17482WAT     H252689   8.918   3.260   9.788
17483WAT      O52690   4.288   3.262   7.596
17483WAT     H152691   4.317   3.261   7.692
17483WAT     H252692   4.361   3.300   7.539
17484WAT      O52693   1.406   7.311   5.469
17484WAT     H152694   1.489   7.257   5.481
17484WAT     H252695   1.407   7.387   5.534
17485WAT      O52696   8.324   4.997   8.108
17485WAT     H152697   8.286   4.955   8.025
17485WAT     H252698   8.274   4.964   8.188
17486WAT      O52699   4.233   5.327   2.695
17486WAT     H152700   4.248   5.307   2.792
17486WAT     H252701   4.250   5.244   2.642
17487WAT      O52702   1.468   5.399   8.427
17487WAT     H152703   1.401   5.433   8.492
17487WAT     H252704   1.424   5.333   8.365
17488WAT      O52705   1.981   8.374   5.644
17488WAT     H152706   1.947   8.315   5.716
17488WAT     H252707   2.051   8.435   5.681
17489WAT      O52708   1.480   1.266   7.676
17489WAT     H152709   1.457   1.356   7.713
17489WAT     H252710   1.508   1.275   7.581
17490WAT      O52711   3.993   7.163   7.890
17490WAT     H152712   4.041   7.160   7.978
17490WAT     H252713   3.984   7.071   7.854
17491WAT      O52714   0.029   9.325   5.509
17491WAT     H152715   0.105   9.266   5.537
17491WAT     H252716   0.064   9.403   5.457
17492WAT      O52717   8.668   4.691   9.542
17492WAT     H152718   8.717   4.611   9.508
17492WAT     H252719   8.719   4.731   9.618
17493WAT      O52720   6.028   4.653   3.277
17493WAT     H152721   6.024   4.751   3.255
17493WAT     H252722   6.096   4.638   3.349
17494WAT      O52723   4.137   1.986   3.421
17494WAT     H152724   4.191   1.937   3.490
17494WAT     H252725   4.072   1.923   3.379
17495WAT      O52726   6.797   3.239   0.576
17495WAT     H152727   6.720   3.219   0.636
17495WAT     H252728   6.879   3.253   0.631
17496WAT      O52729   8.703   5.808   9.854
17496WAT     H152730   8.706   5.803   9.953
17496WAT     H252731   8.667   5.723   9.817
17497WAT      O52732   0.433   8.680   0.906
17497WAT     H152733   0.442   8.701   0.809
17497WAT     H252734   0.452   8.762   0.960
17498WAT      O52735   5.154   3.329   4.216
17498WAT     H152736   5.143   3.243   4.167
17498WAT     H252737   5.137   3.405   4.153
17499WAT      O52738   9.742   7.949   2.296
17499WAT     H152739   9.790   7.867   2.264
17499WAT     H252740   9.739   8.017   2.223
17500WAT      O52741   1.161   0.339   5.982
17500WAT     H152742   1.107   0.360   6.063
17500WAT     H252743   1.234   0.274   6.006
17501WAT      O52744   4.015   4.070   1.308
17501WAT     H152745   3.946   3.998   1.310
17501WAT     H252746   4.106   4.029   1.306
17502WAT      O52747   1.429   6.441   8.839
17502WAT     H152748   1.409   6.447   8.741
17502WAT     H252749   1.365   6.377   8.882
17503WAT      O52750   5.210   8.575   8.003
17503WAT     H152751   5.121   8.529   8.002
17503WAT     H252752   5.283   8.506   7.997
17504WAT      O52753   1.368   6.631   1.413
17504WAT     H152754   1.276   6.600   1.389
17504WAT     H252755   1.366   6.681   1.499
17505WAT      O52756   3.894   5.244   4.705
17505WAT     H152757   3.883   5.257   4.803
17505WAT     H252758   3.866   5.151   4.680
17506WAT      O52759   3.240   9.625   4.679
17506WAT     H152760   3.327   9.673   4.692
17506WAT     H252761   3.193   9.665   4.600
17507WAT      O52762   4.938   6.384   2.719
17507WAT     H152763   4.895   6.397   2.808
17507WAT     H252764   4.893   6.308   2.672
17508WAT      O52765   7.288   0.606   5.003
17508WAT     H152766   7.209   0.623   4.944
17508WAT     H252767   7.270   0.527   5.061
17509WAT      O52768   4.725   0.386   2.827
17509WAT     H152769   4.818   0.418   2.805
17509WAT     H252770   4.691   0.436   2.907
17510WAT      O52771   8.802   3.083   5.327
17510WAT     H152772   8.786   3.181   5.324
17510WAT     H252773   8.736   3.040   5.389
17511WAT      O52774   7.385   8.034   3.900
17511WAT     H152775   7.430   7.993   3.980
17511WAT     H252776   7.437   8.011   3.818
17512WAT      O52777   3.471   2.156   5.587
17512WAT     H152778   3.568   2.132   5.592
17512WAT     H252779   3.423   2.114   5.664
17513WAT      O52780   1.946   8.902   6.861
17513WAT     H152781   1.999   8.874   6.781
17513WAT     H252782   1.849   8.885   6.844
17514WAT      O52783   7.623   1.839   3.015
17514WAT     H152784   7.661   1.926   2.985
17514WAT     H252785   7.530   1.830   2.981
17515WAT      O52786   3.729   2.823   2.228
17515WAT     H152787   3.657   2.760   2.257
17515WAT     H252788   3.808   2.772   2.194
17516WAT      O52789   6.955   1.425   3.224
17516WAT     H152790   7.039   1.466   3.189
17516WAT     H252791   6.971   1.328   3.243
17517WAT      O52792   5.861   4.836   4.398
17517WAT     H152793   5.943   4.888   4.423
17517WAT     H252794   5.824   4.791   4.479
17518WAT      O52795   5.886   8.202   9.197
17518WAT     H152796   5.792   8.232   9.177
17518WAT     H252797   5.891   8.102   9.192
17519WAT      O52798   5.960   0.160   2.983
17519WAT     H152799   6.044   0.191   2.938
17519WAT     H252800   5.908   0.240   3.015
17520WAT      O52801   6.727   4.674   2.815
17520WAT     H152802   6.790   4.598   2.827
17520WAT     H252803   6.775   4.761   2.831
17521WAT      O52804   1.052   0.502   9.854
17521WAT     H152805   1.007   0.587   9.828
17521WAT     H252806   1.144   0.521   9.887
17522WAT      O52807   8.326   0.686   1.451
17522WAT     H152808   8.350   0.627   1.528
17522WAT     H252809   8.405   0.743   1.427
17523WAT      O52810   5.507   5.177   3.462
17523WAT     H152811   5.420   5.176   3.413
17523WAT     H252812   5.511   5.100   3.526
17524WAT      O52813   9.410   2.495   4.070
17524WAT     H152814   9.478   2.428   4.099
17524WAT     H252815   9.440   2.587   4.097
17525WAT      O52816   4.855   9.788   6.828
17525WAT     H152817   4.953   9.790   6.808
17525WAT     H252818   4.804   9.797   6.743
17526WAT      O52819   3.695   5.407   5.679
17526WAT     H152820   3.698   5.374   5.773
17526WAT     H252821   3.610   5.456   5.663
17527WAT      O52822   9.642   1.452   4.662
17527WAT     H152823   9.677   1.367   4.703
17527WAT     H252824   9.547   1.466   4.690
17528WAT      O52825   4.262   4.636   5.847
17528WAT     H152826   4.292   4.540   5.846
17528WAT     H252827   4.257   4.668   5.942
17529WAT      O52828   9.152   8.558   5.530
17529WAT     H152829   9.116   8.506   5.453
17529WAT     H252830   9.077   8.591   5.587
17530WAT      O52831   4.741   7.347   2.824
17530WAT     H152832   4.773   7.425   2.770
17530WAT     H252833   4.737   7.372   2.920
17531WAT      O52834   7.764   8.049   7.595
17531WAT     H152835   7.715   8.126   7.636
17531WAT     H252836   7.748   7.967   7.649
17532WAT      O52837   9.695   0.559   8.523
17532WAT     H152838   9.747   0.640   8.496
17532WAT     H252839   9.745   0.476   8.497
17533WAT      O52840   1.481   8.340   2.622
17533WAT     H152841   1.442   8.331   2.530
17533WAT     H252842   1.550   8.268   2.636
17534WAT      O52843   6.972   2.310   7.604
17534WAT     H152844   7.051   2.339   7.550
17534WAT     H252845   6.979   2.212   7.623
17535WAT      O52846   3.959   8.351   6.850
17535WAT     H152847   3.996   8.427   6.904
17535WAT     H252848   3.910   8.388   6.771
17536WAT      O52849   0.257   6.075   0.623
17536WAT     H152850   0.300   6.020   0.694
17536WAT     H252851   0.180   6.024   0.584
17537WAT      O52852   3.661   5.775   1.926
17537WAT     H152853   3.574   5.752   1.969
17537WAT     H252854   3.712   5.690   1.909
17538WAT      O52855   5.513   3.927   7.921
17538WAT     H152856   5.604   3.897   7.892
17538WAT     H252857   5.448   3.852   7.910
17539WAT      O52858   4.190   7.034   1.856
17539WAT     H152859   4.161   7.106   1.792
17539WAT     H252860   4.228   7.077   1.938
17540WAT      O52861   5.076   5.076   7.594
17540WAT     H152862   5.066   5.168   7.557
17540WAT     H252863   4.995   5.052   7.649
17541WAT      O52864   0.413   5.217   4.929
17541WAT     H152865   0.505   5.240   4.960
17541WAT     H252866   0.374   5.294   4.879
17542WAT      O52867   2.016   8.122   5.828
17542WAT     H152868   2.109   8.154   5.809
17542WAT     H252869   2.018   8.052   5.899
17543WAT      O52870   6.933   6.415   1.406
17543WAT     H152871   6.929   6.350   1.482
17543WAT     H252872   6.853   6.403   1.347
17544WAT      O52873   1.497   7.714   6.461
17544WAT     H152874   1.454   7.786   6.406
17544WAT     H252875   1.502   7.630   6.409
17545WAT      O52876   1.587   8.661   6.870
17545WAT     H152877   1.587   8.579   6.813
17545WAT     H252878   1.608   8.741   6.814
17546WAT      O52879   2.614   0.624   0.170
17546WAT     H152880   2.539   0.558   0.163
17546WAT     H252881   2.701   0.575   0.175
17547WAT      O52882   1.005   3.024   7.165
17547WAT     H152883   1.009   3.030   7.065
17547WAT     H252884   0.985   2.930   7.192
17548WAT      O52885   2.158   6.320   5.690
17548WAT     H152886   2.149   6.290   5.595
17548WAT     H252887   2.131   6.416   5.697
17549WAT      O52888   8.264   6.855   0.174
17549WAT     H152889   8.351   6.821   0.136
17549WAT     H252890   8.188   6.823   0.117
17550WAT      O52891   2.921   1.601   2.544
17550WAT     H152892   2.890   1.655   2.465
17550WAT     H252893   2.873   1.631   2.626
17551WAT      O52894   6.677   7.157   8.008
17551WAT     H152895   6.700   7.244   7.964
17551WAT     H252896   6.746   7.088   7.985
17552WAT      O52897   5.586   0.732   9.734
17552WAT     H152898   5.564   0.674   9.656
17552WAT     H252899   5.510   0.731   9.799
17553WAT      O52900   8.682   6.367   9.631
17553WAT     H152901   8.698   6.461   9.602
17553WAT     H252902   8.747   6.306   9.584
17554WAT      O52903   7.261   2.199   1.295
17554WAT     H152904   7.267   2.286   1.343
17554WAT     H252905   7.341   2.143   1.317
17555WAT      O52906   7.416   0.847   4.921
17555WAT     H152907   7.454   0.846   4.829
17555WAT     H252908   7.378   0.757   4.942
17556WAT      O52909   5.403   3.762   7.317
17556WAT     H152910   5.369   3.844   7.364
17556WAT     H252911   5.340   3.738   7.243
17557WAT      O52912   6.511   0.290   9.008
17557WAT     H152913   6.574   0.289   9.085
17557WAT     H252914   6.419   0.315   9.040
17558WAT      O52915   8.938   6.820   6.811
17558WAT     H152916   8.945   6.918   6.789
17558WAT     H252917   9.019   6.791   6.862
17559WAT      O52918   7.510   8.867   0.852
17559WAT     H152919   7.438   8.862   0.783
17559WAT     H252920   7.471   8.851   0.942
17560WAT      O52921   8.501   4.316   2.645
17560WAT     H152922   8.556   4.253   2.699
17560WAT     H252923   8.482   4.398   2.698
17561WAT      O52924   5.045   2.958   4.375
17561WAT     H152925   5.102   2.911   4.308
17561WAT     H252926   5.007   2.891   4.439
17562WAT      O52927   5.153   3.396   7.503
17562WAT     H152928   5.139   3.487   7.543
17562WAT     H252929   5.114   3.394   7.411
17563WAT      O52930   1.962   1.937   3.816
17563WAT     H152931   1.985   1.910   3.723
17563WAT     H252932   1.948   2.036   3.819
17564WAT      O52933   8.685   1.495   3.604
17564WAT     H152934   8.763   1.442   3.637
17564WAT     H252935   8.652   1.555   3.676
17565WAT      O52936   8.309   4.339   4.663
17565WAT     H152937   8.223   4.385   4.686
17565WAT     H252938   8.310   4.316   4.566
17566WAT      O52939   8.759   9.225   1.918
17566WAT     H152940   8.760   9.263   1.825
17566WAT     H252941   8.672   9.247   1.963
17567WAT      O52942   4.416   7.166   0.428
17567WAT     H152943   4.496   7.218   0.399
17567WAT     H252944   4.336   7.197   0.377
17568WAT      O52945   7.615   6.866   6.519
17568WAT     H152946   7.616   6.881   6.618
17568WAT     H252947   7.680   6.794   6.496
17569WAT      O52948   9.645   0.475   7.741
17569WAT     H152949   9.586   0.548   7.705
17569WAT     H252950   9.730   0.472   7.687
17570WAT      O52951   9.842   9.618   6.322
17570WAT     H152952   9.869   9.637   6.227
17570WAT     H252953   9.754   9.571   6.322
17571WAT      O52954   5.688   5.937   5.698
17571WAT     H152955   5.628   5.980   5.630
17571WAT     H252956   5.648   5.850   5.727
17572WAT      O52957   0.540   5.176   3.518
17572WAT     H152958   0.580   5.267   3.527
17572WAT     H252959   0.442   5.181   3.537
17573WAT      O52960   2.021   0.043   9.373
17573WAT     H152961   1.976  -0.047   9.375
17573WAT     H252962   2.104   0.037   9.317
17574WAT      O52963   2.202   9.019   2.305
17574WAT     H152964   2.270   9.081   2.265
17574WAT     H252965   2.111   9.058   2.291
17575WAT      O52966   0.641   9.571   2.207
17575WAT     H152967   0.577   9.581   2.130
17575WAT     H252968   0.662   9.474   2.222
17576WAT      O52969   7.220   0.124   8.559
17576WAT     H152970   7.227   0.064   8.638
17576WAT     H252971   7.158   0.200   8.580
17577WAT      O52972   5.898   7.736   5.702
17577WAT     H152973   5.845   7.821   5.703
17577WAT     H252974   5.982   7.751   5.650
17578WAT      O52975   6.090   0.998   1.457
17578WAT     H152976   6.150   0.985   1.536
17578WAT     H252977   5.997   1.017   1.489
17579WAT      O52978   2.605   8.919   8.144
17579WAT     H152979   2.639   9.009   8.119
17579WAT     H252980   2.583   8.916   8.241
17580WAT      O52981   2.813   6.079   8.827
17580WAT     H152982   2.840   6.060   8.922
17580WAT     H252983   2.714   6.095   8.824
17581WAT      O52984   2.942   0.894   9.713
17581WAT     H152985   2.960   0.928   9.805
17581WAT     H252986   2.917   0.970   9.654
17582WAT      O52987   9.578   2.176   0.216
17582WAT     H152988   9.493   2.218   0.185
17582WAT     H252989   9.627   2.138   0.138
17583WAT      O52990   2.049   3.260   8.047
17583WAT     H152991   1.997   3.345   8.046
17583WAT     H252992   2.084   3.241   7.955
17584WAT      O52993   1.039   5.722   6.207
17584WAT     H152994   1.056   5.642   6.265
17584WAT     H252995   1.106   5.794   6.228
17585WAT      O52996   4.991   4.277   6.911
17585WAT     H152997   5.019   4.322   6.995
17585WAT     H252998   4.970   4.181   6.930
17586WAT      O52999   0.656   1.822   9.177
17586WAT     H153000   0.560   1.802   9.196
17586WAT     H253001   0.671   1.921   9.177
17587WAT      O53002   7.158   6.563   0.698
17587WAT     H153003   7.233   6.588   0.638
17587WAT     H253004   7.123   6.473   0.673
17588WAT      O53005   1.461   1.235   9.158
17588WAT     H153006   1.433   1.244   9.062
17588WAT     H253007   1.548   1.186   9.163
17589WAT      O53008   7.101   8.502   7.255
17589WAT     H153009   7.139   8.542   7.172
17589WAT     H253010   7.174   8.464   7.311
17590WAT      O53011   8.403   1.768   0.040
17590WAT     H153012   8.430   1.673   0.022
17590WAT     H253013   8.314   1.770   0.085
17591WAT      O53014   4.435   5.195   9.397
17591WAT     H153015   4.423   5.204   9.298
17591WAT     H253016   4.410   5.281   9.441
17592WAT      O53017   3.643   4.333   6.258
17592WAT     H153018   3.553   4.361   6.291
17592WAT     H253019   3.640   4.319   6.159
17593WAT      O53020   6.048   6.701   2.586
17593WAT     H153021   5.966   6.676   2.534
17593WAT     H253022   6.036   6.793   2.624
17594WAT      O53023   5.899   3.390   5.528
17594WAT     H153024   5.928   3.427   5.616
17594WAT     H253025   5.803   3.411   5.512
17595WAT      O53026   3.498   5.571   3.900
17595WAT     H153027   3.495   5.654   3.955
17595WAT     H253028   3.446   5.499   3.945
17596WAT      O53029   4.351   5.414   9.747
17596WAT     H153030   4.305   5.471   9.815
17596WAT     H253031   4.308   5.426   9.658
17597WAT      O53032   2.776   9.810   3.387
17597WAT     H153033   2.836   9.881   3.422
17597WAT     H253034   2.773   9.814   3.287
17598WAT      O53035   0.701   6.576   4.403
17598WAT     H153036   0.669   6.667   4.428
17598WAT     H253037   0.785   6.555   4.454
17599WAT      O53038   5.208   0.969   8.246
17599WAT     H153039   5.178   0.990   8.339
17599WAT     H253040   5.297   1.011   8.229
17600WAT      O53041   7.363   4.262   5.341
17600WAT     H153042   7.352   4.292   5.247
17600WAT     H253043   7.274   4.236   5.379
17601WAT      O53044   8.267   0.375   2.552
17601WAT     H153045   8.322   0.395   2.633
17601WAT     H253046   8.326   0.369   2.472
17602WAT      O53047   3.502   6.659   3.490
17602WAT     H153048   3.472   6.702   3.405
17602WAT     H253049   3.601   6.641   3.485
17603WAT      O53050   9.395   0.691   3.040
17603WAT     H153051   9.297   0.688   3.022
17603WAT     H253052   9.424   0.604   3.079
17604WAT      O53053   0.187   5.632   3.720
17604WAT     H153054   0.156   5.564   3.654
17604WAT     H253055   0.283   5.613   3.744
17605WAT      O53056   7.770   7.108   9.358
17605WAT     H153057   7.738   7.189   9.309
17605WAT     H253058   7.810   7.135   9.446
17606WAT      O53059   5.727   3.789   8.372
17606WAT     H153060   5.766   3.873   8.409
17606WAT     H253061   5.633   3.807   8.342
17607WAT      O53062   3.634   4.540   1.738
17607WAT     H153063   3.671   4.468   1.796
17607WAT     H253064   3.537   4.553   1.759
17608WAT      O53065   5.596   5.360   2.142
17608WAT     H153066   5.672   5.384   2.082
17608WAT     H253067   5.528   5.307   2.091
17609WAT      O53068   6.104   8.648   8.424
17609WAT     H153069   6.020   8.594   8.432
17609WAT     H253070   6.088   8.726   8.364
17610WAT      O53071   0.162   2.529   7.205
17610WAT     H153072   0.094   2.585   7.254
17610WAT     H253073   0.253   2.546   7.243
17611WAT      O53074   0.544   8.829   1.775
17611WAT     H153075   0.623   8.857   1.720
17611WAT     H253076   0.576   8.797   1.864
17612WAT      O53077   7.337   5.899   7.046
17612WAT     H153078   7.294   5.813   7.073
17612WAT     H253079   7.300   5.974   7.101
17613WAT      O53080   1.158   5.207   6.173
17613WAT     H153081   1.215   5.289   6.173
17613WAT     H253082   1.066   5.230   6.204
17614WAT      O53083   8.511   2.516   7.300
17614WAT     H153084   8.605   2.484   7.285
17614WAT     H253085   8.495   2.525   7.399
17615WAT      O53086   2.522   5.710   3.097
17615WAT     H153087   2.559   5.779   3.160
17615WAT     H253088   2.536   5.740   3.003
17616WAT      O53089   1.422   4.787   5.986
17616WAT     H153090   1.352   4.814   5.920
17616WAT     H253091   1.415   4.689   6.003
17617WAT      O53092   4.440   7.620   4.008
17617WAT     H153093   4.452   7.670   4.094
17617WAT     H253094   4.362   7.657   3.958
17618WAT      O53095   5.545   1.284   9.861
17618WAT     H153096   5.477   1.292   9.933
17618WAT     H253097   5.634   1.313   9.896
17619WAT      O53098   3.886   7.088   5.874
17619WAT     H153099   3.791   7.118   5.875
17619WAT     H253100   3.891   6.992   5.901
17620WAT      O53101   3.811   4.111   7.673
17620WAT     H153102   3.907   4.111   7.702
17620WAT     H253103   3.805   4.084   7.577
17621WAT      O53104   8.574   4.543   1.225
17621WAT     H153105   8.618   4.554   1.314
17621WAT     H253106   8.616   4.466   1.177
17622WAT      O53107   2.772   4.897   2.998
17622WAT     H153108   2.710   4.876   2.922
17622WAT     H253109   2.722   4.888   3.084
17623WAT      O53110   4.128   2.340   9.220
17623WAT     H153111   4.183   2.326   9.302
17623WAT     H253112   4.150   2.270   9.152
17624WAT      O53113   7.946   9.375   4.020
17624WAT     H153114   8.026   9.353   4.075
17624WAT     H253115   7.883   9.431   4.075
17625WAT      O53116   6.526   4.300   1.939
17625WAT     H153117   6.471   4.220   1.919
17625WAT     H253118   6.472   4.366   1.992
17626WAT      O53119   7.946   6.757   5.925
17626WAT     H153120   8.034   6.765   5.879
17626WAT     H253121   7.873   6.762   5.857
17627WAT      O53122   0.941   4.436   6.941
17627WAT     H153123   1.020   4.387   6.903
17627WAT     H253124   0.858   4.382   6.926
17628WAT      O53125   9.143   0.573   3.008
17628WAT     H153126   9.098   0.510   3.072
17628WAT     H253127   9.080   0.596   2.935
17629WAT      O53128   2.319   4.308   2.021
17629WAT     H153129   2.332   4.406   2.033
17629WAT     H253130   2.238   4.292   1.964
17630WAT      O53131   1.444   6.501   1.890
17630WAT     H153132   1.400   6.448   1.963
17630WAT     H253133   1.473   6.439   1.817
17631WAT      O53134   3.191   6.713   6.011
17631WAT     H153135   3.221   6.796   5.965
17631WAT     H253136   3.200   6.724   6.110
17632WAT      O53137   1.648   5.250   1.800
17632WAT     H153138   1.575   5.208   1.747
17632WAT     H253139   1.613   5.280   1.888
17633WAT      O53140   8.735   2.646   0.228
17633WAT     H153141   8.765   2.725   0.281
17633WAT     H253142   8.720   2.568   0.290
17634WAT      O53143   0.586   0.811   0.279
17634WAT     H153144   0.665   0.872   0.291
17634WAT     H253145   0.513   0.860   0.231
17635WAT      O53146   9.646   1.982   3.835
17635WAT     H153147   9.567   1.957   3.891
17635WAT     H253148   9.636   2.077   3.803
17636WAT      O53149   6.610   5.170   4.690
17636WAT     H153150   6.550   5.115   4.749
17636WAT     H253151   6.700   5.128   4.687
17637WAT      O53152   4.267   3.982   7.152
17637WAT     H153153   4.240   3.892   7.117
17637WAT     H253154   4.193   4.047   7.135
17638WAT      O53155   1.595   3.981   0.067
17638WAT     H153156   1.547   4.013   0.149
17638WAT     H253157   1.692   4.003   0.074
17639WAT      O53158   8.573   1.280   2.912
17639WAT     H153159   8.540   1.293   2.818
17639WAT     H253160   8.496   1.290   2.975
17640WAT      O53161   9.770   7.160   3.822
17640WAT     H153162   9.716   7.235   3.858
17640WAT     H253163   9.865   7.170   3.850
17641WAT      O53164   8.701   4.736   3.580
17641WAT     H153165   8.712   4.746   3.481
17641WAT     H253166   8.629   4.668   3.599
17642WAT      O53167   1.559   2.533   8.123
17642WAT     H153168   1.563   2.501   8.218
17642WAT     H253169   1.649   2.522   8.080
17643WAT      O53170   2.615   9.282   3.657
17643WAT     H153171   2.704   9.302   3.615
17643WAT     H253172   2.605   9.337   3.740
17644WAT      O53173   3.930   0.468   9.776
17644WAT     H153174   3.856   0.449   9.711
17644WAT     H253175   3.895   0.528   9.849
17645WAT      O53176   0.547   7.105   1.459
17645WAT     H153177   0.523   7.125   1.365
17645WAT     H253178   0.627   7.044   1.461
17646WAT      O53179   9.625   7.227   3.430
17646WAT     H153180   9.690   7.178   3.372
17646WAT     H253181   9.599   7.169   3.507
17647WAT      O53182   0.007   9.576   9.180
17647WAT     H153183   0.058   9.626   9.110
17647WAT     H253184  -0.011   9.483   9.148
17648WAT      O53185   5.174   0.184   3.093
17648WAT     H153186   5.142   0.265   3.046
17648WAT     H253187   5.258   0.151   3.050
17649WAT      O53188   9.854   4.077   8.631
17649WAT     H153189   9.840   4.093   8.729
17649WAT     H253190   9.939   4.121   8.602
17650WAT      O53191   5.581   5.712   9.474
17650WAT     H153192   5.482   5.704   9.461
17650WAT     H253193   5.611   5.801   9.440
17651WAT      O53194   4.814   9.362   2.782
17651WAT     H153195   4.858   9.324   2.700
17651WAT     H253196   4.718   9.335   2.785
17652WAT      O53197   9.685   6.427   9.132
17652WAT     H153198   9.712   6.371   9.054
17652WAT     H253199   9.756   6.495   9.149
17653WAT      O53200   1.415   9.308   5.541
17653WAT     H153201   1.424   9.402   5.510
17653WAT     H253202   1.432   9.246   5.465
17654WAT      O53203   7.202   7.344   0.636
17654WAT     H153204   7.182   7.317   0.542
17654WAT     H253205   7.161   7.434   0.654
17655WAT      O53206   1.525   0.917   5.537
17655WAT     H153207   1.591   0.988   5.561
17655WAT     H253208   1.486   0.938   5.447
17656WAT      O53209   2.696   8.231   8.962
17656WAT     H153210   2.757   8.181   8.901
17656WAT     H253211   2.717   8.208   9.057
17657WAT      O53212   6.589   4.301   2.548
17657WAT     H153213   6.589   4.390   2.594
17657WAT     H253214   6.678   4.285   2.506
17658WAT      O53215   5.850   8.815   6.512
17658WAT     H153216   5.873   8.856   6.601
17658WAT     H253217   5.763   8.852   6.480
17659WAT      O53218   0.701   6.764   3.908
17659WAT     H153219   0.640   6.841   3.928
17659WAT     H253220   0.733   6.725   3.994
17660WAT      O53221   7.197   4.444   9.478
17660WAT     H153222   7.237   4.453   9.386
17660WAT     H253223   7.262   4.478   9.545
17661WAT      O53224   6.051   2.406   3.366
17661WAT     H153225   5.998   2.351   3.301
17661WAT     H253226   6.038   2.503   3.346
17662WAT      O53227   4.921   6.644   1.923
17662WAT     H153228   4.968   6.732   1.913
17662WAT     H253229   4.860   6.630   1.845
17663WAT      O53230   6.417   2.424   6.612
17663WAT     H153231   6.409   2.325   6.619
17663WAT     H253232   6.503   2.447   6.565
17664WAT      O53233   2.415   8.582   8.989
17664WAT     H153234   2.406   8.496   8.940
17664WAT     H253235   2.400   8.659   8.926
17665WAT      O53236   1.104   6.054   0.658
17665WAT     H153237   1.062   6.129   0.605
17665WAT     H253238   1.114   6.083   0.753
17666WAT      O53239   5.614   7.651   4.305
17666WAT     H153240   5.632   7.577   4.370
17666WAT     H253241   5.539   7.625   4.245
17667WAT      O53242   2.065   3.141   2.296
17667WAT     H153243   2.128   3.066   2.314
17667WAT     H253244   1.992   3.141   2.365
17668WAT      O53245   8.063   7.801   5.311
17668WAT     H153246   7.999   7.878   5.317
17668WAT     H253247   8.063   7.765   5.218
17669WAT      O53248   3.146   4.899   2.675
17669WAT     H153249   3.150   4.800   2.661
17669WAT     H253250   3.218   4.926   2.739
17670WAT      O53251   4.596   5.895   9.721
17670WAT     H153252   4.544   5.975   9.750
17670WAT     H253253   4.597   5.890   9.621
17671WAT      O53254   1.335   1.700   9.496
17671WAT     H153255   1.270   1.627   9.476
17671WAT     H253256   1.337   1.764   9.419
17672WAT      O53257   9.822   0.979   6.765
17672WAT     H153258   9.727   0.964   6.793
17672WAT     H253259   9.824   1.023   6.675
17673WAT      O53260   1.737   1.836   3.547
17673WAT     H153261   1.835   1.857   3.544
17673WAT     H253262   1.700   1.840   3.454
17674WAT      O53263   8.806   1.166   4.682
17674WAT     H153264   8.879   1.156   4.748
17674WAT     H253265   8.781   1.263   4.673
17675WAT      O53266   0.984   7.379   6.847
17675WAT     H153267   0.991   7.373   6.747
17675WAT     H253268   0.981   7.286   6.885
17676WAT      O53269   1.397   7.104   6.593
17676WAT     H153270   1.347   7.141   6.671
17676WAT     H253271   1.444   7.178   6.545
17677WAT      O53272   3.899   0.762   7.707
17677WAT     H153273   3.961   0.735   7.780
17677WAT     H253274   3.806   0.731   7.729
17678WAT      O53275   4.717   2.871   6.873
17678WAT     H153276   4.649   2.933   6.834
17678WAT     H253277   4.706   2.869   6.973
17679WAT      O53278   2.001   1.165   8.811
17679WAT     H153279   1.977   1.204   8.900
17679WAT     H253280   2.094   1.194   8.786
17680WAT      O53281   2.982   0.145   5.587
17680WAT     H153282   3.004   0.149   5.685
17680WAT     H253283   2.884   0.137   5.575
17681WAT      O53284   6.769   8.417   2.987
17681WAT     H153285   6.673   8.391   2.983
17681WAT     H253286   6.782   8.506   2.943
17682WAT      O53287   5.724   4.850   3.844
17682WAT     H153288   5.662   4.823   3.771
17682WAT     H253289   5.804   4.895   3.806
17683WAT      O53290   9.734   5.181   0.052
17683WAT     H153291   9.741   5.279   0.070
17683WAT     H253292   9.789   5.158  -0.029
17684WAT      O53293   4.231   9.356   3.988
17684WAT     H153294   4.180   9.355   3.902
17684WAT     H253295   4.319   9.310   3.975
17685WAT      O53296   4.593   2.752   4.875
17685WAT     H153297   4.494   2.756   4.859
17685WAT     H253298   4.634   2.841   4.854
17686WAT      O53299   0.767   6.832   6.824
17686WAT     H153300   0.865   6.839   6.841
17686WAT     H253301   0.738   6.908   6.765
17687WAT      O53302   7.919   6.505   9.738
17687WAT     H153303   7.840   6.495   9.798
17687WAT     H253304   7.993   6.446   9.771
17688WAT      O53305   2.793   8.251   4.752
17688WAT     H153306   2.810   8.153   4.758
17688WAT     H253307   2.763   8.285   4.842
17689WAT      O53308   9.660   1.023   9.649
17689WAT     H153309   9.748   1.042   9.694
17689WAT     H253310   9.672   0.948   9.584
17690WAT      O53311   6.257   6.283   7.448
17690WAT     H153312   6.265   6.324   7.357
17690WAT     H253313   6.244   6.356   7.516
17691WAT      O53314   6.718   1.371   8.831
17691WAT     H153315   6.665   1.287   8.835
17691WAT     H253316   6.800   1.363   8.888
17692WAT      O53317   9.404   8.812   6.481
17692WAT     H153318   9.469   8.782   6.412
17692WAT     H253319   9.388   8.910   6.471
17693WAT      O53320   5.628   3.083   7.802
17693WAT     H153321   5.707   3.097   7.742
17693WAT     H253322   5.592   2.991   7.789
17694WAT      O53323   3.076   3.654   5.070
17694WAT     H153324   3.102   3.695   5.157
17694WAT     H253325   3.078   3.724   4.998
17695WAT      O53326   4.560   9.285   2.891
17695WAT     H153327   4.510   9.203   2.862
17695WAT     H253328   4.588   9.276   2.986
17696WAT      O53329   2.660   0.824   8.152
17696WAT     H153330   2.596   0.894   8.120
17696WAT     H253331   2.750   0.866   8.167
17697WAT      O53332   5.894   0.619   8.441
17697WAT     H153333   5.963   0.550   8.465
17697WAT     H253334   5.929   0.678   8.369
17698WAT      O53335   8.736   6.913   0.040
17698WAT     H153336   8.649   6.946   0.075
17698WAT     H253337   8.805   6.984   0.049
17699WAT      O53338   2.445   2.637   3.825
17699WAT     H153339   2.509   2.566   3.795
17699WAT     H253340   2.468   2.667   3.917
17700WAT      O53341   4.761   7.499   0.128
17700WAT     H153342   4.855   7.471   0.109
17700WAT     H253343   4.719   7.538   0.046
17701WAT      O53344   3.311   4.704   2.387
17701WAT     H153345   3.257   4.677   2.467
17701WAT     H253346   3.401   4.736   2.417
17702WAT      O53347   5.423   4.514   2.176
17702WAT     H153348   5.372   4.460   2.243
17702WAT     H253349   5.362   4.542   2.102
17703WAT      O53350   2.706   2.577   8.926
17703WAT     H153351   2.805   2.567   8.917
17703WAT     H253352   2.685   2.654   8.987
17704WAT      O53353   2.767   0.385   8.374
17704WAT     H153354   2.784   0.383   8.275
17704WAT     H253355   2.848   0.417   8.421
17705WAT      O53356   3.537   6.057   2.644
17705WAT     H153357   3.606   6.028   2.578
17705WAT     H253358   3.582   6.079   2.731
17706WAT      O53359   2.753   9.698   7.753
17706WAT     H153360   2.767   9.629   7.682
17706WAT     H253361   2.819   9.683   7.827
17707WAT      O53362   2.909   3.365   6.267
17707WAT     H153363   3.005   3.390   6.278
17707WAT     H253364   2.900   3.266   6.270
17708WAT      O53365   6.263   5.816   6.122
17708WAT     H153366   6.219   5.790   6.208
17708WAT     H253367   6.292   5.734   6.073
17709WAT      O53368   1.368   4.391   0.181
17709WAT     H153369   1.376   4.347   0.091
17709WAT     H253370   1.459   4.403   0.220
17710WAT      O53371   5.720   7.931   5.734
17710WAT     H153372   5.703   7.899   5.827
17710WAT     H253373   5.725   8.031   5.734
17711WAT      O53374   5.858   3.854   0.654
17711WAT     H153375   5.772   3.896   0.683
17711WAT     H253376   5.838   3.776   0.595
17712WAT      O53377   8.076   8.185   9.263
17712WAT     H153378   8.119   8.241   9.334
17712WAT     H253379   8.146   8.125   9.222
17713WAT      O53380   5.487   5.041   5.114
17713WAT     H153381   5.393   5.070   5.133
17713WAT     H253382   5.500   4.947   5.145
17714WAT      O53383   3.802   4.696   4.610
17714WAT     H153384   3.784   4.700   4.511
17714WAT     H253385   3.901   4.702   4.626
17715WAT      O53386   2.434   8.701   9.865
17715WAT     H153387   2.496   8.676   9.939
17715WAT     H253388   2.357   8.637   9.863
17716WAT      O53389   3.624   4.644   7.835
17716WAT     H153390   3.680   4.618   7.756
17716WAT     H253391   3.590   4.561   7.880
17717WAT      O53392   1.467   6.383   7.340
17717WAT     H153393   1.390   6.412   7.397
17717WAT     H253394   1.452   6.415   7.246
17718WAT      O53395   4.151   9.009   1.428
17718WAT     H153396   4.147   9.080   1.498
17718WAT     H253397   4.170   9.052   1.339
17719WAT      O53398   1.653   2.450   0.919
17719WAT     H153399   1.586   2.515   0.956
17719WAT     H253400   1.718   2.424   0.990
17720WAT      O53401   4.376   8.640   3.935
17720WAT     H153402   4.461   8.677   3.973
17720WAT     H253403   4.380   8.644   3.835
17721WAT      O53404   3.357   4.938   3.813
17721WAT     H153405   3.394   4.893   3.732
17721WAT     H253406   3.397   5.029   3.821
17722WAT      O53407   8.838   6.851   9.233
17722WAT     H153408   8.767   6.788   9.264
17722WAT     H253409   8.905   6.802   9.178
17723WAT      O53410   5.764   7.824   4.081
17723WAT     H153411   5.687   7.862   4.132
17723WAT     H253412   5.835   7.894   4.072
17724WAT      O53413   3.152   1.959   7.434
17724WAT     H153414   3.103   1.922   7.354
17724WAT     H253415   3.085   1.988   7.502
17725WAT      O53416   7.996   6.146   3.576
17725WAT     H153417   8.096   6.151   3.573
17725WAT     H253418   7.963   6.207   3.648
17726WAT      O53419   7.672   4.280   1.621
17726WAT     H153420   7.758   4.319   1.589
17726WAT     H253421   7.600   4.302   1.555
17727WAT      O53422   6.337   6.188   8.119
17727WAT     H153423   6.357   6.281   8.149
17727WAT     H253424   6.308   6.188   8.024
17728WAT      O53425   6.434   7.604   7.909
17728WAT     H153426   6.356   7.603   7.971
17728WAT     H253427   6.516   7.633   7.959
17729WAT      O53428   6.558   9.490   5.674
17729WAT     H153429   6.615   9.413   5.645
17729WAT     H253430   6.476   9.494   5.618
17730WAT      O53431   7.253   3.231   5.769
17730WAT     H153432   7.298   3.303   5.715
17730WAT     H253433   7.211   3.165   5.708
17731WAT      O53434   0.160   3.196   4.412
17731WAT     H153435   0.162   3.237   4.321
17731WAT     H253436   0.190   3.101   4.407
17732WAT      O53437   1.129   5.254   4.462
17732WAT     H153438   1.045   5.215   4.500
17732WAT     H253439   1.208   5.216   4.511
17733WAT      O53440   1.492   7.496   6.271
17733WAT     H153441   1.457   7.458   6.356
17733WAT     H253442   1.436   7.463   6.195
17734WAT      O53443   2.021   5.141   2.572
17734WAT     H153444   2.033   5.114   2.476
17734WAT     H253445   1.936   5.101   2.607
17735WAT      O53446   5.870   5.966   3.017
17735WAT     H153447   5.858   5.880   2.969
17735WAT     H253448   5.901   6.036   2.953
17736WAT      O53449   9.194   6.253   1.721
17736WAT     H153450   9.168   6.325   1.656
17736WAT     H253451   9.248   6.293   1.795
17737WAT      O53452   8.500   4.854   6.900
17737WAT     H153453   8.509   4.779   6.835
17737WAT     H253454   8.494   4.817   6.993
17738WAT      O53455   7.124   4.129   0.249
17738WAT     H153456   7.178   4.184   0.313
17738WAT     H253457   7.184   4.062   0.205
17739WAT      O53458   5.153   9.606   2.970
17739WAT     H153459   5.188   9.619   2.878
17739WAT     H253460   5.119   9.512   2.980
17740WAT      O53461   5.724   1.826   7.494
17740WAT     H153462   5.782   1.880   7.554
17740WAT     H253463   5.727   1.730   7.522
17741WAT      O53464   4.219   1.803   7.897
17741WAT     H153465   4.166   1.783   7.980
17741WAT     H253466   4.296   1.741   7.890
17742WAT      O53467   6.639   7.273   9.111
17742WAT     H153468   6.645   7.201   9.181
17742WAT     H253469   6.651   7.233   9.020
17743WAT      O53470   7.181   1.223   1.123
17743WAT     H153471   7.249   1.220   1.049
17743WAT     H253472   7.228   1.222   1.211
17744WAT      O53473   7.705   5.362   0.855
17744WAT     H153474   7.620   5.342   0.904
17744WAT     H253475   7.723   5.460   0.858
17745WAT      O53476   8.718   4.244   8.930
17745WAT     H153477   8.647   4.301   8.888
17745WAT     H253478   8.784   4.216   8.861
17746WAT      O53479   1.837   7.147   5.614
17746WAT     H153480   1.848   7.201   5.697
17746WAT     H253481   1.913   7.164   5.551
17747WAT      O53482   3.412   7.622   0.165
17747WAT     H153483   3.429   7.691   0.235
17747WAT     H253484   3.367   7.664   0.086
17748WAT      O53485   4.504   9.694   6.281
17748WAT     H153486   4.482   9.734   6.370
17748WAT     H253487   4.574   9.624   6.293
17749WAT      O53488   4.496   5.714   1.228
17749WAT     H153489   4.518   5.666   1.312
17749WAT     H253490   4.549   5.676   1.152
17750WAT      O53491   9.495   8.278   9.260
17750WAT     H153492   9.441   8.311   9.338
17750WAT     H253493   9.553   8.203   9.290
17751WAT      O53494   7.882   0.131   3.160
17751WAT     H153495   7.812   0.202   3.151
17751WAT     H253496   7.950   0.160   3.226
17752WAT      O53497   2.559   0.008   6.233
17752WAT     H153498   2.521  -0.010   6.324
17752WAT     H253499   2.511   0.086   6.192
17753WAT      O53500   9.543   5.495   4.585
17753WAT     H153501   9.540   5.556   4.505
17753WAT     H253502   9.509   5.544   4.665
17754WAT      O53503   4.930   3.472   7.304
17754WAT     H153504   4.995   3.419   7.249
17754WAT     H253505   4.839   3.466   7.263
17755WAT      O53506   6.409   4.637   5.830
17755WAT     H153507   6.496   4.663   5.872
17755WAT     H253508   6.422   4.555   5.774
17756WAT      O53509   5.322   2.211   3.232
17756WAT     H153510   5.351   2.116   3.223
17756WAT     H253511   5.353   2.249   3.319
17757WAT      O53512   3.001   2.737   9.130
17757WAT     H153513   2.982   2.665   9.063
17757WAT     H253514   3.065   2.803   9.089
17758WAT      O53515   0.887   1.001   2.190
17758WAT     H153516   0.789   1.002   2.173
17758WAT     H253517   0.908   1.061   2.268
17759WAT      O53518   3.388   5.873   5.195
17759WAT     H153519   3.319   5.835   5.257
17759WAT     H253520   3.456   5.924   5.247
17760WAT      O53521   6.869   5.855   2.408
17760WAT     H153522   6.823   5.826   2.325
17760WAT     H253523   6.961   5.815   2.410
17761WAT      O53524   5.072   5.400   5.925
17761WAT     H153525   5.140   5.327   5.924
17761WAT     H253526   4.992   5.371   5.977
17762WAT      O53527   2.971   0.434   6.152
17762WAT     H153528   2.881   0.470   6.175
17762WAT     H253529   2.996   0.461   6.060
17763WAT      O53530   1.390   6.736   1.650
17763WAT     H153531   1.302   6.759   1.692
17763WAT     H253532   1.461   6.735   1.720
17764WAT      O53533   0.067   1.158   5.792
17764WAT     H153534  -0.022   1.165   5.749
17764WAT     H253535   0.123   1.091   5.743
17765WAT      O53536   7.079   3.209   0.954
17765WAT     H153537   7.013   3.214   1.029
17765WAT     H253538   7.143   3.134   0.970
17766WAT      O53539   7.386   1.435   9.295
17766WAT     H153540   7.381   1.506   9.224
17766WAT     H253541   7.440   1.358   9.262
17767WAT      O53542   9.692   5.451   1.954
17767WAT     H153543   9.646   5.495   1.877
17767WAT     H253544   9.766   5.510   1.987
17768WAT      O53545   3.910   3.450   9.783
17768WAT     H153546   3.857   3.457   9.698
17768WAT     H253547   3.869   3.508   9.853
17769WAT      O53548   1.796   5.239   8.845
17769WAT     H153549   1.813   5.181   8.925
17769WAT     H253550   1.717   5.204   8.795
17770WAT      O53551   8.591   8.729   9.886
17770WAT     H153552   8.609   8.634   9.861
17770WAT     H253553   8.582   8.735   9.986
17771WAT      O53554   5.203   2.550   2.984
17771WAT     H153555   5.241   2.554   3.076
17771WAT     H253556   5.104   2.536   2.990
17772WAT      O53557   0.953   2.922   9.807
17772WAT     H153558   0.968   2.982   9.729
17772WAT     H253559   0.861   2.937   9.844
17773WAT      O53560   1.313   4.581   3.235
17773WAT     H153561   1.343   4.676   3.236
17773WAT     H253562   1.319   4.544   3.328
17774WAT      O53563   1.546   5.320   6.271
17774WAT     H153564   1.490   5.381   6.326
17774WAT     H253565   1.515   5.322   6.176
17775WAT      O53566   6.295   2.871   3.981
17775WAT     H153567   6.285   2.772   3.966
17775WAT     H253568   6.387   2.899   3.952
17776WAT      O53569   7.070   4.640   9.821
17776WAT     H153570   7.036   4.555   9.861
17776WAT     H253571   7.056   4.715   9.886
17777WAT      O53572   6.052   3.345   5.109
17777WAT     H153573   6.081   3.411   5.179
17777WAT     H253574   5.957   3.364   5.082
17778WAT      O53575   0.845   8.555   9.388
17778WAT     H153576   0.788   8.555   9.306
17778WAT     H253577   0.902   8.638   9.390
17779WAT      O53578   7.337   9.043   8.178
17779WAT     H153579   7.403   8.968   8.167
17779WAT     H253580   7.382   9.120   8.224
17780WAT      O53581   0.714   5.401   1.529
17780WAT     H153582   0.698   5.315   1.480
17780WAT     H253583   0.665   5.399   1.616
17781WAT      O53584   1.071   9.473   0.144
17781WAT     H153585   1.074   9.573   0.149
17781WAT     H253586   1.086   9.434   0.236
17782WAT      O53587   0.382   5.345   7.203
17782WAT     H153588   0.344   5.418   7.146
17782WAT     H253589   0.402   5.381   7.294
17783WAT      O53590   2.375   6.141   4.326
17783WAT     H153591   2.413   6.159   4.235
17783WAT     H253592   2.442   6.164   4.396
17784WAT      O53593   1.727   4.331   2.769
17784WAT     H153594   1.698   4.280   2.689
17784WAT     H253595   1.799   4.280   2.816
17785WAT      O53596   0.262   8.166   4.023
17785WAT     H153597   0.198   8.158   3.947
17785WAT     H253598   0.255   8.084   4.080
17786WAT      O53599   0.475   0.704   8.433
17786WAT     H153600   0.507   0.697   8.338
17786WAT     H253601   0.511   0.787   8.474
17787WAT      O53602   7.092   9.186   7.203
17787WAT     H153603   7.008   9.220   7.245
17787WAT     H253604   7.132   9.116   7.261
17788WAT      O53605   2.919   6.034   9.081
17788WAT     H153606   2.901   6.084   9.166
17788WAT     H253607   3.018   6.029   9.065
17789WAT      O53608   1.309   2.998   2.723
17789WAT     H153609   1.356   2.949   2.650
17789WAT     H253610   1.322   2.950   2.810
17790WAT      O53611   3.667   6.860   7.979
17790WAT     H153612   3.709   6.793   7.919
17790WAT     H253613   3.641   6.941   7.926
17791WAT      O53614   2.206   6.378   8.385
17791WAT     H153615   2.192   6.280   8.403
17791WAT     H253616   2.297   6.392   8.347
17792WAT      O53617   5.253   4.388   2.334
17792WAT     H153618   5.155   4.402   2.321
17792WAT     H253619   5.272   4.290   2.341
17793WAT      O53620   7.312   5.414   5.885
17793WAT     H153621   7.265   5.327   5.872
17793WAT     H253622   7.253   5.477   5.935
17794WAT      O53623   0.943   7.483   1.341
17794WAT     H153624   1.001   7.551   1.386
17794WAT     H253625   0.943   7.399   1.395
17795WAT      O53626   1.519   8.076   5.858
17795WAT     H153627   1.599   8.036   5.813
17795WAT     H253628   1.445   8.009   5.860
17796WAT      O53629   9.807   9.495   0.029
17796WAT     H153630   9.746   9.419   0.051
17796WAT     H253631   9.753   9.577   0.009
17797WAT      O53632   5.337   8.461   5.956
17797WAT     H153633   5.301   8.387   5.899
17797WAT     H253634   5.368   8.424   6.043
17798WAT      O53635   5.086   0.179   8.388
17798WAT     H153636   4.997   0.187   8.343
17798WAT     H253637   5.157   0.218   8.328
17799WAT      O53638   5.966   2.661   3.297
17799WAT     H153639   5.944   2.612   3.214
17799WAT     H253640   5.972   2.759   3.277
17800WAT      O53641   0.785   7.707   6.047
17800WAT     H153642   0.723   7.629   6.038
17800WAT     H253643   0.877   7.679   6.019
17801WAT      O53644   0.200   1.647   1.679
17801WAT     H153645   0.265   1.720   1.658
17801WAT     H253646   0.249   1.559   1.682
17802WAT      O53647   9.381   3.662   6.899
17802WAT     H153648   9.358   3.573   6.861
17802WAT     H253649   9.432   3.650   6.984
17803WAT      O53650   3.229   5.695   7.763
17803WAT     H153651   3.182   5.744   7.689
17803WAT     H253652   3.161   5.656   7.825
17804WAT      O53653   7.183   0.751   6.539
17804WAT     H153654   7.175   0.653   6.523
17804WAT     H253655   7.164   0.771   6.635
17805WAT      O53656   5.758   1.959   9.529
17805WAT     H153657   5.809   1.969   9.615
17805WAT     H253658   5.810   2.002   9.455
17806WAT      O53659   5.317   4.771   1.834
17806WAT     H153660   5.258   4.837   1.879
17806WAT     H253661   5.285   4.756   1.740
17807WAT      O53662   2.767   6.171   4.074
17807WAT     H153663   2.840   6.238   4.062
17807WAT     H253664   2.751   6.123   3.988
17808WAT      O53665   6.283   3.114   2.116
17808WAT     H153666   6.266   3.024   2.074
17808WAT     H253667   6.198   3.166   2.120
17809WAT      O53668   6.404   6.765   3.494
17809WAT     H153669   6.494   6.721   3.498
17809WAT     H253670   6.333   6.699   3.519
17810WAT      O53671   3.464   5.795   4.050
17810WAT     H153672   3.473   5.770   4.146
17810WAT     H253673   3.533   5.864   4.027
17811WAT      O53674   9.334   2.246   7.790
17811WAT     H153675   9.332   2.237   7.690
17811WAT     H253676   9.370   2.335   7.815
17812WAT      O53677   8.154   2.249   2.284
17812WAT     H153678   8.074   2.229   2.341
17812WAT     H253679   8.200   2.331   2.318
17813WAT      O53680   1.044   6.394   7.423
17813WAT     H153681   1.044   6.294   7.419
17813WAT     H253682   0.998   6.424   7.507
17814WAT      O53683   7.382   9.580   2.437
17814WAT     H153684   7.446   9.557   2.364
17814WAT     H253685   7.291   9.547   2.412
17815WAT      O53686   0.520   9.405   3.811
17815WAT     H153687   0.431   9.375   3.845
17815WAT     H253688   0.512   9.433   3.715
17816WAT      O53689   9.500   1.979   9.383
17816WAT     H153690   9.526   2.047   9.451
17816WAT     H253691   9.439   1.911   9.424
17817WAT      O53692   9.347   1.361   8.689
17817WAT     H153693   9.409   1.391   8.762
17817WAT     H253694   9.391   1.288   8.636
17818WAT      O53695   0.307   4.629   0.213
17818WAT     H153696   0.299   4.645   0.311
17818WAT     H253697   0.401   4.605   0.190
17819WAT      O53698   0.784   4.883   2.730
17819WAT     H153699   0.824   4.801   2.773
17819WAT     H253700   0.722   4.856   2.657
17820WAT      O53701   3.416   3.461   2.814
17820WAT     H153702   3.329   3.498   2.784
17820WAT     H253703   3.437   3.378   2.763
17821WAT      O53704   3.515   5.276   1.780
17821WAT     H153705   3.503   5.271   1.879
17821WAT     H253706   3.599   5.229   1.754
17822WAT      O53707   5.306   1.243   6.232
17822WAT     H153708   5.396   1.261   6.194
17822WAT     H253709   5.312   1.171   6.301
17823WAT      O53710   1.725   9.587   2.575
17823WAT     H153711   1.726   9.518   2.502
17823WAT     H253712   1.701   9.542   2.662
17824WAT      O53713   1.395   0.674   7.598
17824WAT     H153714   1.413   0.766   7.565
17824WAT     H253715   1.434   0.663   7.689
17825WAT      O53716   9.016   0.282   9.227
17825WAT     H153717   8.953   0.351   9.192
17825WAT     H253718   8.990   0.257   9.321
17826WAT      O53719   9.538   1.133   7.045
17826WAT     H153720   9.474   1.058   7.065
17826WAT     H253721   9.590   1.155   7.127
17827WAT      O53722   7.035   3.352   3.246
17827WAT     H153723   6.936   3.348   3.263
17827WAT     H253724   7.083   3.300   3.317
17828WAT      O53725   8.685   3.637   1.979
17828WAT     H153726   8.737   3.691   2.045
17828WAT     H253727   8.602   3.602   2.023
17829WAT      O53728   7.193   9.843   8.796
17829WAT     H153729   7.206   9.745   8.779
17829WAT     H253730   7.095   9.862   8.803
17830WAT      O53731   4.353   3.250   7.858
17830WAT     H153732   4.375   3.159   7.892
17830WAT     H253733   4.277   3.288   7.911
17831WAT      O53734   1.173   4.520   8.676
17831WAT     H153735   1.156   4.595   8.739
17831WAT     H253736   1.108   4.446   8.694
17832WAT      O53737   2.047   5.248   8.128
17832WAT     H153738   2.141   5.217   8.116
17832WAT     H253739   2.045   5.348   8.132
17833WAT      O53740   6.416   2.375   0.122
17833WAT     H153741   6.337   2.336   0.076
17833WAT     H253742   6.403   2.369   0.221
17834WAT      O53743   6.746   8.481   8.355
17834WAT     H153744   6.784   8.507   8.444
17834WAT     H253745   6.654   8.521   8.345
17835WAT      O53746   4.140   8.636   3.515
17835WAT     H153747   4.099   8.567   3.457
17835WAT     H253748   4.090   8.722   3.505
17836WAT      O53749   1.241   7.656   9.004
17836WAT     H153750   1.177   7.640   8.929
17836WAT     H253751   1.319   7.594   8.994
17837WAT      O53752   2.834   5.512   6.981
17837WAT     H153753   2.928   5.525   7.013
17837WAT     H253754   2.792   5.438   7.032
17838WAT      O53755   4.112   5.380   1.422
17838WAT     H153756   4.102   5.391   1.323
17838WAT     H253757   4.092   5.285   1.447
17839WAT      O53758   6.714   7.994   7.938
17839WAT     H153759   6.719   8.083   7.984
17839WAT     H253760   6.806   7.964   7.913
17840WAT      O53761   0.742   6.754   4.890
17840WAT     H153762   0.802   6.780   4.966
17840WAT     H253763   0.754   6.818   4.814
17841WAT      O53764   3.131   6.493   1.011
17841WAT     H153765   3.178   6.559   1.070
17841WAT     H253766   3.198   6.449   0.951
17842WAT      O53767   7.147   4.855   8.932
17842WAT     H153768   7.057   4.813   8.918
17842WAT     H253769   7.146   4.948   8.897
17843WAT      O53770   6.244   4.310   5.525
17843WAT     H153771   6.151   4.286   5.551
17843WAT     H253772   6.244   4.352   5.434
17844WAT      O53773   3.364   6.165   7.692
17844WAT     H153774   3.358   6.081   7.746
17844WAT     H253775   3.273   6.191   7.661
17845WAT      O53776   7.662   0.144   4.369
17845WAT     H153777   7.756   0.115   4.391
17845WAT     H253778   7.647   0.137   4.271
17846WAT      O53779   0.397   7.285   9.590
17846WAT     H153780   0.425   7.362   9.533
17846WAT     H253781   0.343   7.319   9.667
17847WAT      O53782   4.052   5.823   2.094
17847WAT     H153783   4.138   5.838   2.143
17847WAT     H253784   4.025   5.908   2.048
17848WAT      O53785   3.725   1.626   0.944
17848WAT     H153786   3.626   1.639   0.937
17848WAT     H253787   3.758   1.665   1.031
17849WAT      O53788   7.370   1.713   5.275
17849WAT     H153789   7.438   1.761   5.331
17849WAT     H253790   7.413   1.678   5.192
17850WAT      O53791   1.316   3.007   0.626
17850WAT     H153792   1.305   2.964   0.537
17850WAT     H253793   1.405   2.982   0.664
17851WAT      O53794   4.231   7.748   2.355
17851WAT     H153795   4.211   7.813   2.428
17851WAT     H253796   4.209   7.655   2.387
17852WAT      O53797   1.673   1.160   9.305
17852WAT     H153798   1.609   1.151   9.382
17852WAT     H253799   1.765   1.173   9.341
17853WAT      O53800   1.354   7.575   0.257
17853WAT     H153801   1.308   7.592   0.170
17853WAT     H253802   1.364   7.477   0.271
17854WAT      O53803   3.528   5.784   7.088
17854WAT     H153804   3.514   5.826   7.178
17854WAT     H253805   3.574   5.696   7.099
17855WAT      O53806   9.323   9.149   2.889
17855WAT     H153807   9.319   9.051   2.909
17855WAT     H253808   9.243   9.177   2.836
17856WAT      O53809   2.919   2.256   5.499
17856WAT     H153810   2.834   2.215   5.532
17856WAT     H253811   2.970   2.188   5.447
17857WAT      O53812   3.799   2.405   5.011
17857WAT     H153813   3.795   2.499   4.976
17857WAT     H253814   3.893   2.384   5.039
17858WAT      O53815   5.581   8.100   5.333
17858WAT     H153816   5.658   8.124   5.392
17858WAT     H253817   5.584   8.154   5.249
17859WAT      O53818   5.226   7.110   8.449
17859WAT     H153819   5.322   7.082   8.451
17859WAT     H253820   5.213   7.186   8.512
17860WAT      O53821   8.969   0.736   1.436
17860WAT     H153822   8.966   0.734   1.536
17860WAT     H253823   9.042   0.798   1.405
17861WAT      O53824   2.698   1.229   3.454
17861WAT     H153825   2.795   1.201   3.455
17861WAT     H253826   2.641   1.150   3.430
17862WAT      O53827   4.810   0.201   5.365
17862WAT     H153828   4.777   0.249   5.446
17862WAT     H253829   4.776   0.107   5.365
17863WAT      O53830   8.924   8.648   5.656
17863WAT     H153831   8.854   8.581   5.682
17863WAT     H253832   8.947   8.705   5.735
17864WAT      O53833   7.162   7.297   5.150
17864WAT     H153834   7.246   7.243   5.141
17864WAT     H253835   7.166   7.352   5.233
17865WAT      O53836   7.558   6.454   3.422
17865WAT     H153837   7.624   6.411   3.485
17865WAT     H253838   7.602   6.531   3.376
17866WAT      O53839   5.856   1.103   9.233
17866WAT     H153840   5.789   1.129   9.302
17866WAT     H253841   5.889   1.185   9.187
17867WAT      O53842   5.383   3.194   8.982
17867WAT     H153843   5.433   3.131   9.042
17867WAT     H253844   5.435   3.278   8.971
17868WAT      O53845   4.693   2.282   4.192
17868WAT     H153846   4.602   2.306   4.159
17868WAT     H253847   4.734   2.361   4.237
17869WAT      O53848   3.099   2.775   0.271
17869WAT     H153849   3.101   2.687   0.318
17869WAT     H253850   3.172   2.778   0.203
17870WAT      O53851   4.201   3.345   0.448
17870WAT     H153852   4.169   3.318   0.356
17870WAT     H253853   4.224   3.263   0.500
17871WAT      O53854   7.794   3.112   0.850
17871WAT     H153855   7.712   3.065   0.819
17871WAT     H253856   7.774   3.209   0.863
17872WAT      O53857   9.862   4.182   7.083
17872WAT     H153858   9.866   4.153   7.178
17872WAT     H253859   9.794   4.255   7.073
17873WAT      O53860   5.121   3.896   6.021
17873WAT     H153861   5.106   3.992   5.999
17873WAT     H253862   5.135   3.844   5.936
17874WAT      O53863   3.821   7.355   4.756
17874WAT     H153864   3.732   7.400   4.756
17874WAT     H253865   3.827   7.293   4.677
17875WAT      O53866   7.439   9.379   5.530
17875WAT     H153867   7.440   9.279   5.532
17875WAT     H253868   7.532   9.413   5.513
17876WAT      O53869   7.683   0.870   4.308
17876WAT     H153870   7.625   0.917   4.241
17876WAT     H253871   7.690   0.926   4.391
17877WAT      O53872   8.618   2.892   7.105
17877WAT     H153873   8.633   2.867   7.201
17877WAT     H253874   8.701   2.872   7.053
17878WAT      O53875   2.752   6.588   5.914
17878WAT     H153876   2.771   6.601   5.817
17878WAT     H253877   2.837   6.598   5.966
17879WAT      O53878   7.031   8.117   8.861
17879WAT     H153879   6.980   8.031   8.867
17879WAT     H253880   7.026   8.151   8.767
17880WAT      O53881   1.800   6.217   8.854
17880WAT     H153882   1.787   6.163   8.771
17880WAT     H253883   1.834   6.159   8.928
17881WAT      O53884   7.859   6.602   7.588
17881WAT     H153885   7.856   6.587   7.687
17881WAT     H253886   7.914   6.530   7.546
17882WAT      O53887   5.273   4.099   1.733
17882WAT     H153888   5.240   4.005   1.737
17882WAT     H253889   5.222   4.150   1.664
17883WAT      O53890   8.202   9.342   5.413
17883WAT     H153891   8.259   9.358   5.494
17883WAT     H253892   8.155   9.254   5.423
17884WAT      O53893   6.962   4.168   4.117
17884WAT     H153894   6.914   4.255   4.125
17884WAT     H253895   7.009   4.149   4.203
17885WAT      O53896   1.228   4.511   9.296
17885WAT     H153897   1.149   4.517   9.358
17885WAT     H253898   1.309   4.484   9.348
17886WAT      O53899   9.022   5.370   6.023
17886WAT     H153900   9.079   5.289   6.009
17886WAT     H253901   8.993   5.375   6.119
17887WAT      O53902   8.318   2.153   0.213
17887WAT     H153903   8.351   2.110   0.129
17887WAT     H253904   8.218   2.159   0.211
17888WAT      O53905   4.287   6.472   9.474
17888WAT     H153906   4.287   6.428   9.564
17888WAT     H253907   4.372   6.523   9.462
17889WAT      O53908   3.346   7.001   5.453
17889WAT     H153909   3.444   7.021   5.458
17889WAT     H253910   3.294   7.085   5.464
17890WAT      O53911   5.072   8.325   9.571
17890WAT     H153912   5.103   8.310   9.665
17890WAT     H253913   5.137   8.385   9.524
17891WAT      O53914   6.242   5.605   1.405
17891WAT     H153915   6.218   5.666   1.330
17891WAT     H253916   6.322   5.642   1.453
17892WAT      O53917   2.470   6.245   4.992
17892WAT     H153918   2.522   6.237   4.907
17892WAT     H253919   2.460   6.155   5.034
17893WAT      O53920   9.802   3.152   5.650
17893WAT     H153921   9.822   3.091   5.574
17893WAT     H253922   9.853   3.122   5.731
17894WAT      O53923   4.852   1.112   8.173
17894WAT     H153924   4.842   1.013   8.184
17894WAT     H253925   4.924   1.131   8.105
17895WAT      O53926   2.579   0.933   6.350
17895WAT     H153927   2.673   0.958   6.374
17895WAT     H253928   2.530   0.905   6.433
17896WAT      O53929   9.854   4.114   6.804
17896WAT     H153930   9.863   4.157   6.894
17896WAT     H253931   9.939   4.125   6.752
17897WAT      O53932   0.857   1.320   8.492
17897WAT     H153933   0.761   1.331   8.467
17897WAT     H253934   0.896   1.408   8.519
17898WAT      O53935   0.990   6.356   3.769
17898WAT     H153936   1.004   6.455   3.763
17898WAT     H253937   1.074   6.309   3.743
17899WAT      O53938   7.323   4.547   9.724
17899WAT     H153939   7.363   4.481   9.787
17899WAT     H253940   7.246   4.592   9.768
17900WAT      O53941   7.406   7.850   9.155
17900WAT     H153942   7.351   7.873   9.235
17900WAT     H253943   7.379   7.760   9.120
17901WAT      O53944   7.021   1.318   2.542
17901WAT     H153945   7.020   1.249   2.469
17901WAT     H253946   6.974   1.401   2.510
17902WAT      O53947   8.084   5.748   5.406
17902WAT     H153948   8.131   5.677   5.353
17902WAT     H253949   8.115   5.744   5.501
17903WAT      O53950   6.231   5.565   6.769
17903WAT     H153951   6.290   5.563   6.850
17903WAT     H253952   6.139   5.593   6.796
17904WAT      O53953   5.212   2.931   9.086
17904WAT     H153954   5.244   2.862   9.150
17904WAT     H253955   5.278   3.007   9.082
17905WAT      O53956   0.870   7.426   9.578
17905WAT     H153957   0.862   7.526   9.580
17905WAT     H253958   0.815   7.389   9.503
17906WAT      O53959   1.198   5.296   4.029
17906WAT     H153960   1.159   5.255   4.111
17906WAT     H253961   1.265   5.366   4.055
17907WAT      O53962   9.299   4.472   6.518
17907WAT     H153963   9.308   4.566   6.551
17907WAT     H253964   9.206   4.440   6.534
17908WAT      O53965   9.327   6.848   3.115
17908WAT     H153966   9.341   6.761   3.161
17908WAT     H253967   9.327   6.922   3.183
17909WAT      O53968   5.922   3.802   5.621
17909WAT     H153969   5.858   3.856   5.675
17909WAT     H253970   5.876   3.764   5.541
17910WAT      O53971   3.125   6.598   9.063
17910WAT     H153972   3.186   6.649   9.124
17910WAT     H253973   3.141   6.627   8.968
17911WAT      O53974   8.939   0.216   2.034
17911WAT     H153975   9.001   0.251   2.104
17911WAT     H253976   8.872   0.286   2.010
17912WAT      O53977   1.715   4.320   4.659
17912WAT     H153978   1.792   4.381   4.643
17912WAT     H253979   1.706   4.256   4.582
17913WAT      O53980   1.826   9.290   1.444
17913WAT     H153981   1.882   9.333   1.373
17913WAT     H253982   1.747   9.348   1.463
17914WAT      O53983   9.633   3.375   0.190
17914WAT     H153984   9.635   3.425   0.104
17914WAT     H253985   9.722   3.383   0.236
17915WAT      O53986   2.413   0.907   5.290
17915WAT     H153987   2.434   0.827   5.234
17915WAT     H253988   2.383   0.982   5.231
17916WAT      O53989   5.936   4.993   0.219
17916WAT     H153990   5.963   4.908   0.175
17916WAT     H253991   5.845   4.984   0.257
17917WAT      O53992   1.463   3.367   6.889
17917WAT     H153993   1.378   3.336   6.847
17917WAT     H253994   1.505   3.437   6.831
17918WAT      O53995   0.073   1.576   0.439
17918WAT     H153996   0.094   1.634   0.517
17918WAT     H253997   0.030   1.630   0.367
17919WAT      O53998   7.207   5.919   1.138
17919WAT     H153999   7.174   5.857   1.067
17919WAT     H254000   7.210   5.870   1.226
17920WAT      O54001   0.610   5.339   2.861
17920WAT     H154002   0.562   5.311   2.777
17920WAT     H254003   0.568   5.293   2.939
17921WAT      O54004   8.533   8.302   5.017
17921WAT     H154005   8.619   8.349   5.001
17921WAT     H254006   8.548   8.223   5.076
17922WAT      O54007   7.680   3.901   9.106
17922WAT     H154008   7.728   3.989   9.107
17922WAT     H254009   7.705   3.849   9.188
17923WAT      O54010   1.479   8.195   7.944
17923WAT     H154011   1.480   8.271   7.878
17923WAT     H254012   1.387   8.158   7.950
17924WAT      O54013   8.245   4.230   9.787
17924WAT     H154014   8.227   4.164   9.860
17924WAT     H254015   8.159   4.270   9.757
17925WAT      O54016   1.148   1.136   4.644
17925WAT     H154017   1.208   1.197   4.593
17925WAT     H254018   1.159   1.043   4.609
17926WAT      O54019   4.940   8.148   3.465
17926WAT     H154020   5.007   8.140   3.539
17926WAT     H254021   4.985   8.132   3.377
17927WAT      O54022   0.402   4.394   7.005
17927WAT     H154023   0.363   4.303   7.011
17927WAT     H254024   0.337   4.456   6.961
17928WAT      O54025   3.762   5.790   5.380
17928WAT     H154026   3.742   5.697   5.351
17928WAT     H254027   3.861   5.806   5.373
17929WAT      O54028   8.421   6.452   3.661
17929WAT     H154029   8.354   6.419   3.594
17929WAT     H254030   8.460   6.374   3.711
17930WAT      O54031   2.261   5.530   4.798
17930WAT     H154032   2.319   5.574   4.866
17930WAT     H254033   2.175   5.580   4.791
17931WAT      O54034   5.912   5.486   4.982
17931WAT     H154035   5.928   5.540   5.065
17931WAT     H254036   5.815   5.483   4.962
17932WAT      O54037   2.985   9.200   4.223
17932WAT     H154038   2.989   9.100   4.229
17932WAT     H254039   2.909   9.226   4.164
17933WAT      O54040   4.454   9.454   5.592
17933WAT     H154041   4.384   9.384   5.606
17933WAT     H254042   4.517   9.424   5.519
17934WAT      O54043   0.060   8.101   3.093
17934WAT     H154044   0.038   8.167   3.165
17934WAT     H254045   0.057   8.147   3.004
17935WAT      O54046   5.116   9.634   1.365
17935WAT     H154047   5.143   9.539   1.382
17935WAT     H254048   5.117   9.652   1.267
17936WAT      O54049   7.353   7.302   2.301
17936WAT     H154050   7.381   7.228   2.241
17936WAT     H254051   7.420   7.376   2.297
17937WAT      O54052   1.530   9.523   9.691
17937WAT     H154053   1.570   9.492   9.605
17937WAT     H254054   1.505   9.620   9.684
17938WAT      O54055   4.177   3.846   7.743
17938WAT     H154056   4.169   3.789   7.662
17938WAT     H254057   4.172   3.943   7.717
17939WAT      O54058   2.148   2.388   5.602
17939WAT     H154059   2.185   2.297   5.586
17939WAT     H254060   2.163   2.444   5.520
17940WAT      O54061   0.694   7.778   6.558
17940WAT     H154062   0.704   7.830   6.643
17940WAT     H254063   0.597   7.766   6.537
17941WAT      O54064   0.270   1.316   4.597
17941WAT     H154065   0.279   1.294   4.694
17941WAT     H254066   0.358   1.351   4.563
17942WAT      O54067   5.650   9.366   4.542
17942WAT     H154068   5.599   9.318   4.471
17942WAT     H254069   5.747   9.371   4.517
17943WAT      O54070   7.296   2.440   6.427
17943WAT     H154071   7.273   2.500   6.503
17943WAT     H254072   7.377   2.475   6.380
17944WAT      O54073   4.969   0.365   2.157
17944WAT     H154074   5.068   0.354   2.147
17944WAT     H254075   4.950   0.431   2.230
17945WAT      O54076   2.682   2.113   3.127
17945WAT     H154077   2.741   2.193   3.131
17945WAT     H254078   2.640   2.097   3.216
17946WAT      O54079   2.029   9.443   7.853
17946WAT     H154080   1.966   9.403   7.921
17946WAT     H254081   1.997   9.419   7.761
17947WAT      O54082   8.895   6.448   6.661
17947WAT     H154083   8.888   6.436   6.562
17947WAT     H254084   8.987   6.478   6.685
17948WAT      O54085   1.559   1.219   0.839
17948WAT     H154086   1.465   1.206   0.807
17948WAT     H254087   1.605   1.287   0.782
17949WAT      O54088   4.246   8.212   1.130
17949WAT     H154089   4.149   8.229   1.145
17949WAT     H254090   4.300   8.270   1.191
17950WAT      O54091   7.883   3.460   4.519
17950WAT     H154092   7.946   3.409   4.577
17950WAT     H254093   7.811   3.502   4.575
17951WAT      O54094   8.110   4.021   0.087
17951WAT     H154095   8.037   3.998   0.023
17951WAT     H254096   8.079   4.093   0.149
17952WAT      O54097   5.416   3.379   4.051
17952WAT     H154098   5.325   3.413   4.028
17952WAT     H254099   5.464   3.447   4.106
17953WAT      O54100   7.433   3.993   0.429
17953WAT     H154101   7.412   3.964   0.523
17953WAT     H254102   7.531   3.983   0.412
17954WAT      O54103   9.182   8.910   4.583
17954WAT     H154104   9.271   8.869   4.603
17954WAT     H254105   9.167   8.912   4.485
17955WAT      O54106   4.427   0.503   6.659
17955WAT     H154107   4.487   0.521   6.581
17955WAT     H254108   4.348   0.450   6.628
17956WAT      O54109   7.219   3.153   4.486
17956WAT     H154110   7.131   3.176   4.444
17956WAT     H254111   7.218   3.059   4.518
17957WAT      O54112   9.419   3.748   1.144
17957WAT     H154113   9.381   3.728   1.235
17957WAT     H254114   9.493   3.814   1.153
17958WAT      O54115   7.652   1.348   1.114
17958WAT     H154116   7.614   1.432   1.076
17958WAT     H254117   7.750   1.344   1.093
17959WAT      O54118   9.792   1.502   4.450
17959WAT     H154119   9.870   1.442   4.432
17959WAT     H254120   9.750   1.477   4.537
17960WAT      O54121   3.817   4.403   0.249
17960WAT     H154122   3.913   4.430   0.243
17960WAT     H254123   3.807   4.328   0.314
17961WAT      O54124   5.674   4.799   7.514
17961WAT     H154125   5.608   4.848   7.571
17961WAT     H254126   5.673   4.702   7.539
17962WAT      O54127   6.884   6.792   6.989
17962WAT     H154128   6.807   6.856   6.983
17962WAT     H254129   6.966   6.835   6.950
17963WAT      O54130   6.612   8.436   7.275
17963WAT     H154131   6.534   8.469   7.222
17963WAT     H254132   6.691   8.495   7.259
17964WAT      O54133   3.355   1.246   5.700
17964WAT     H154134   3.392   1.324   5.650
17964WAT     H254135   3.429   1.197   5.745
17965WAT      O54136   0.523   3.764   3.568
17965WAT     H154137   0.600   3.783   3.508
17965WAT     H254138   0.554   3.767   3.663
17966WAT      O54139   8.029   1.944   5.121
17966WAT     H154140   8.046   1.958   5.024
17966WAT     H254141   7.981   2.024   5.158
17967WAT      O54142   9.297   8.645   8.244
17967WAT     H154143   9.349   8.567   8.208
17967WAT     H254144   9.200   8.620   8.250
17968WAT      O54145   6.922   4.151   1.305
17968WAT     H154146   7.001   4.173   1.248
17968WAT     H254147   6.902   4.053   1.298
17969WAT      O54148   8.382   7.640   2.217
17969WAT     H154149   8.454   7.615   2.153
17969WAT     H254150   8.318   7.564   2.227
17970WAT      O54151   6.968   9.624   9.222
17970WAT     H154152   6.875   9.592   9.239
17970WAT     H254153   7.022   9.549   9.184
17971WAT      O54154   0.100   1.705   3.150
17971WAT     H154155   0.100   1.653   3.064
17971WAT     H254156   0.125   1.800   3.131
17972WAT      O54157   3.071   7.644   3.222
17972WAT     H154158   3.082   7.740   3.197
17972WAT     H254159   3.122   7.625   3.306
17973WAT      O54160   3.654   1.491   1.791
17973WAT     H154161   3.562   1.458   1.768
17973WAT     H254162   3.690   1.545   1.714
17974WAT      O54163   6.271   8.792   4.763
17974WAT     H154164   6.352   8.734   4.768
17974WAT     H254165   6.249   8.812   4.668
17975WAT      O54166   2.369   8.387   1.144
17975WAT     H154167   2.318   8.390   1.230
17975WAT     H254168   2.359   8.474   1.096
17976WAT      O54169   2.546   0.713   3.162
17976WAT     H154170   2.469   0.661   3.197
17976WAT     H254171   2.512   0.797   3.119
17977WAT      O54172   9.215   0.424   5.657
17977WAT     H154173   9.130   0.460   5.620
17977WAT     H254174   9.195   0.359   5.730
17978WAT      O54175   4.825   4.285   2.939
17978WAT     H154176   4.857   4.376   2.914
17978WAT     H254177   4.799   4.284   3.036
17979WAT      O54178   7.214   4.587   5.042
17979WAT     H154179   7.198   4.677   5.081
17979WAT     H254180   7.127   4.543   5.020
17980WAT      O54181   2.025   7.965   1.272
17980WAT     H154182   1.932   7.929   1.268
17980WAT     H254183   2.024   8.055   1.315
17981WAT      O54184   1.999   5.610   4.236
17981WAT     H154185   1.906   5.580   4.214
17981WAT     H254186   2.061   5.532   4.226
17982WAT      O54187   7.779   1.783   3.730
17982WAT     H154188   7.818   1.799   3.820
17982WAT     H254189   7.689   1.740   3.740
17983WAT      O54190   6.290   4.636   9.340
17983WAT     H154191   6.376   4.632   9.390
17983WAT     H254192   6.262   4.544   9.313
17984WAT      O54193   0.496   6.638   4.919
17984WAT     H154194   0.492   6.547   4.960
17984WAT     H254195   0.592   6.667   4.913
17985WAT      O54196   7.230   5.096   6.411
17985WAT     H154197   7.143   5.145   6.402
17985WAT     H254198   7.231   5.048   6.499
17986WAT      O54199   4.875   0.121   5.101
17986WAT     H154200   4.801   0.141   5.038
17986WAT     H254201   4.854   0.160   5.191
17987WAT      O54202   0.970   5.598   4.430
17987WAT     H154203   0.939   5.687   4.463
17987WAT     H254204   0.955   5.529   4.500
17988WAT      O54205   0.313   7.385   6.661
17988WAT     H154206   0.246   7.445   6.618
17988WAT     H254207   0.270   7.297   6.682
17989WAT      O54208   2.059   4.057   0.711
17989WAT     H154209   1.997   3.995   0.758
17989WAT     H254210   2.153   4.043   0.744
17990WAT      O54211   5.175   7.187   9.074
17990WAT     H154212   5.216   7.099   9.052
17990WAT     H254213   5.190   7.207   9.170
17991WAT      O54214   6.421   2.455   0.411
17991WAT     H154215   6.351   2.523   0.432
17991WAT     H254216   6.511   2.490   0.438
17992WAT      O54217   9.118   0.338   2.194
17992WAT     H154218   9.098   0.435   2.184
17992WAT     H254219   9.096   0.309   2.287
17993WAT      O54220   2.796   0.159   6.974
17993WAT     H154221   2.853   0.153   7.056
17993WAT     H254222   2.826   0.091   6.907
17994WAT      O54223   4.457   0.127   0.153
17994WAT     H154224   4.388   0.198   0.168
17994WAT     H254225   4.515   0.120   0.235
17995WAT      O54226   6.618   0.253   1.237
17995WAT     H154227   6.559   0.324   1.198
17995WAT     H254228   6.669   0.291   1.314
17996WAT      O54229   4.238   6.824   3.383
17996WAT     H154230   4.257   6.917   3.414
17996WAT     H254231   4.292   6.760   3.437
17997WAT      O54232   1.204   7.446   6.999
17997WAT     H154233   1.219   7.544   7.012
17997WAT     H254234   1.124   7.432   6.941
17998WAT      O54235   7.570   3.087   1.834
17998WAT     H154236   7.621   3.031   1.899
17998WAT     H254237   7.617   3.088   1.746
17999WAT      O54238   5.335   6.892   5.816
17999WAT     H154239   5.351   6.944   5.733
17999WAT     H254240   5.276   6.944   5.877
18000WAT      O54241   9.856   4.147   3.934
18000WAT     H154242   9.908   4.221   3.977
18000WAT     H254243   9.816   4.180   3.848
18001WAT      O54244   8.399   3.893   0.998
18001WAT     H154245   8.417   3.795   1.011
18001WAT     H254246   8.482   3.945   1.017
18002WAT      O54247   2.399   7.053   1.429
18002WAT     H154248   2.483   7.085   1.386
18002WAT     H254249   2.325   7.051   1.361
18003WAT      O54250   7.234   2.763   2.954
18003WAT     H154251   7.237   2.830   2.881
18003WAT     H254252   7.140   2.731   2.967
18004WAT      O54253   0.877   1.308   5.592
18004WAT     H154254   0.858   1.224   5.643
18004WAT     H254255   0.972   1.306   5.560
18005WAT      O54256   8.333   3.642   1.159
18005WAT     H154257   8.331   3.692   1.245
18005WAT     H254258   8.240   3.615   1.134
18006WAT      O54259   4.955   9.648   2.447
18006WAT     H154260   4.918   9.617   2.534
18006WAT     H254261   5.039   9.599   2.427
18007WAT      O54262   2.179   9.272   2.139
18007WAT     H154263   2.232   9.262   2.055
18007WAT     H254264   2.094   9.321   2.120
18008WAT      O54265   8.668   3.520   2.519
18008WAT     H154266   8.597   3.479   2.576
18008WAT     H254267   8.682   3.464   2.437
18009WAT      O54268   6.706   2.227   8.930
18009WAT     H154269   6.757   2.242   8.846
18009WAT     H254270   6.653   2.143   8.924
18010WAT      O54271   1.675   5.782   0.995
18010WAT     H154272   1.740   5.772   0.919
18010WAT     H254273   1.589   5.737   0.971
18011WAT      O54274   2.335   6.336   8.045
18011WAT     H154275   2.370   6.300   8.132
18011WAT     H254276   2.246   6.295   8.025
18012WAT      O54277   4.518   7.526   0.511
18012WAT     H154278   4.575   7.497   0.588
18012WAT     H254279   4.422   7.529   0.540
18013WAT      O54280   8.285   8.357   4.906
18013WAT     H154281   8.370   8.318   4.941
18013WAT     H254282   8.293   8.456   4.904
18014WAT      O54283   7.380   5.841   9.422
18014WAT     H154284   7.287   5.822   9.389
18014WAT     H254285   7.386   5.936   9.452
18015WAT      O54286   3.100   7.519   2.017
18015WAT     H154287   3.102   7.598   2.078
18015WAT     H254288   3.182   7.463   2.031
18016WAT      O54289   5.637   2.287   3.895
18016WAT     H154290   5.580   2.238   3.830
18016WAT     H254291   5.698   2.349   3.846
18017WAT      O54292   8.786   9.374   7.656
18017WAT     H154293   8.748   9.282   7.667
18017WAT     H254294   8.886   9.370   7.656
18018WAT      O54295   7.657   3.663   6.357
18018WAT     H154296   7.621   3.583   6.405
18018WAT     H254297   7.741   3.693   6.401
18019WAT      O54298   8.403   5.006   0.391
18019WAT     H154299   8.384   4.978   0.297
18019WAT     H254300   8.334   4.968   0.452
18020WAT      O54301   3.528   9.084   2.895
18020WAT     H154302   3.462   9.022   2.936
18020WAT     H254303   3.481   9.159   2.849
18021WAT      O54304   0.840   3.879   7.278
18021WAT     H154305   0.821   3.814   7.352
18021WAT     H254306   0.775   3.865   7.203
18022WAT      O54307   5.958   3.943   9.664
18022WAT     H154308   6.028   3.912   9.599
18022WAT     H254309   5.999   3.955   9.754
18023WAT      O54310   8.141   9.236   5.730
18023WAT     H154311   8.223   9.283   5.697
18023WAT     H254312   8.128   9.256   5.827
18024WAT      O54313   1.044   2.344   9.584
18024WAT     H154314   1.031   2.442   9.594
18024WAT     H254315   1.100   2.325   9.503
18025WAT      O54316   9.851   0.256   9.464
18025WAT     H154317   9.925   0.189   9.452
18025WAT     H254318   9.785   0.221   9.530
18026WAT      O54319   7.978   5.906   0.307
18026WAT     H154320   7.996   5.973   0.379
18026WAT     H254321   7.895   5.855   0.329
18027WAT      O54322   1.165   3.370   4.654
18027WAT     H154323   1.125   3.420   4.577
18027WAT     H254324   1.239   3.424   4.694
18028WAT      O54325   0.574   5.809   0.455
18028WAT     H154326   0.558   5.769   0.545
18028WAT     H254327   0.640   5.753   0.405
18029WAT      O54328   0.846   9.328   6.361
18029WAT     H154329   0.870   9.255   6.297
18029WAT     H254330   0.832   9.289   6.452
18030WAT      O54331   1.331   7.930   1.641
18030WAT     H154332   1.232   7.938   1.632
18030WAT     H254333   1.362   7.843   1.602
18031WAT      O54334   4.262   3.171   0.651
18031WAT     H154335   4.174   3.128   0.668
18031WAT     H254336   4.273   3.251   0.710
18032WAT      O54337   7.990   9.605   4.275
18032WAT     H154338   7.965   9.566   4.364
18032WAT     H254339   8.086   9.585   4.256
18033WAT      O54340   7.306   9.691   7.577
18033WAT     H154341   7.304   9.660   7.673
18033WAT     H254342   7.327   9.789   7.574
18034WAT      O54343   8.813   8.007   5.584
18034WAT     H154344   8.910   8.011   5.559
18034WAT     H254345   8.761   8.067   5.524
18035WAT      O54346   5.239   5.009   7.817
18035WAT     H154347   5.199   5.060   7.741
18035WAT     H254348   5.182   4.929   7.838
18036WAT      O54349   1.171   7.794   9.217
18036WAT     H154350   1.194   7.723   9.150
18036WAT     H254351   1.189   7.884   9.178
18037WAT      O54352   2.129   5.469   7.507
18037WAT     H154353   2.152   5.374   7.529
18037WAT     H254354   2.075   5.508   7.582
18038WAT      O54355   7.483   8.376   6.766
18038WAT     H154356   7.447   8.381   6.859
18038WAT     H254357   7.441   8.299   6.717
18039WAT      O54358   6.126   2.185   7.826
18039WAT     H154359   6.065   2.106   7.813
18039WAT     H254360   6.212   2.169   7.778
18040WAT      O54361   9.709   7.458   9.811
18040WAT     H154362   9.641   7.524   9.778
18040WAT     H254363   9.782   7.506   9.860
18041WAT      O54364   3.170   3.769   4.185
18041WAT     H154365   3.128   3.679   4.172
18041WAT     H254366   3.164   3.794   4.282
18042WAT      O54367   8.022   1.657   4.775
18042WAT     H154368   8.002   1.732   4.712
18042WAT     H254369   7.952   1.654   4.847
18043WAT      O54370   1.509   9.227   2.568
18043WAT     H154371   1.531   9.310   2.517
18043WAT     H254372   1.594   9.183   2.597
18044WAT      O54373   4.172   0.129   8.747
18044WAT     H154374   4.206   0.194   8.679
18044WAT     H254375   4.249   0.078   8.785
18045WAT      O54376   8.667   6.259   2.071
18045WAT     H154377   8.707   6.240   1.982
18045WAT     H254378   8.589   6.199   2.087
18046WAT      O54379   4.489   3.484   8.097
18046WAT     H154380   4.467   3.576   8.131
18046WAT     H254381   4.481   3.482   7.998
18047WAT      O54382   1.425   0.352   3.786
18047WAT     H154383   1.389   0.298   3.710
18047WAT     H254384   1.449   0.444   3.755
18048WAT      O54385   9.450   1.206   0.753
18048WAT     H154386   9.408   1.269   0.687
18048WAT     H254387   9.523   1.254   0.802
18049WAT      O54388   4.115   0.226   8.072
18049WAT     H154389   4.153   0.308   8.116
18049WAT     H254390   4.030   0.200   8.118
18050WAT      O54391   4.857   2.760   9.324
18050WAT     H154392   4.864   2.766   9.225
18050WAT     H254393   4.931   2.811   9.367
18051WAT      O54394   1.585   4.421   5.565
18051WAT     H154395   1.543   4.444   5.653
18051WAT     H254396   1.519   4.440   5.492
18052WAT      O54397   7.050   5.053   3.239
18052WAT     H154398   6.989   5.102   3.177
18052WAT     H254399   6.996   5.003   3.306
18053WAT      O54400   6.819   7.072   3.804
18053WAT     H154401   6.823   7.064   3.904
18053WAT     H254402   6.881   7.006   3.762
18054WAT      O54403   7.813   0.738   0.570
18054WAT     H154404   7.830   0.687   0.487
18054WAT     H254405   7.727   0.787   0.563
18055WAT      O54406   8.938   6.352   4.835
18055WAT     H154407   8.958   6.260   4.869
18055WAT     H254408   8.878   6.399   4.900
18056WAT      O54409   2.481   9.225   4.972
18056WAT     H154410   2.448   9.219   4.878
18056WAT     H254411   2.517   9.136   5.000
18057WAT      O54412   9.337   2.058   7.240
18057WAT     H154413   9.399   2.110   7.298
18057WAT     H254414   9.292   2.120   7.175
18058WAT      O54415   1.342   7.129   9.317
18058WAT     H154416   1.316   7.214   9.273
18058WAT     H254417   1.326   7.137   9.416
18059WAT      O54418   3.407   4.848   0.771
18059WAT     H154419   3.357   4.921   0.817
18059WAT     H254420   3.389   4.851   0.673
18060WAT      O54421   0.356   7.715   9.609
18060WAT     H154422   0.416   7.779   9.561
18060WAT     H254423   0.333   7.753   9.699
18061WAT      O54424   0.163   4.373   8.272
18061WAT     H154425   0.095   4.315   8.228
18061WAT     H254426   0.126   4.465   8.285
18062WAT      O54427   5.778   8.203   9.696
18062WAT     H154428   5.703   8.171   9.755
18062WAT     H254429   5.753   8.187   9.601
18063WAT      O54430   5.145   7.451   8.240
18063WAT     H154431   5.180   7.439   8.333
18063WAT     H254432   5.184   7.381   8.180
18064WAT      O54433   4.947   6.069   6.135
18064WAT     H154434   4.854   6.080   6.168
18064WAT     H254435   4.951   5.994   6.069
18065WAT      O54436   3.446   9.692   4.357
18065WAT     H154437   3.497   9.652   4.280
18065WAT     H254438   3.384   9.763   4.323
18066WAT      O54439   5.147   4.897   2.225
18066WAT     H154440   5.220   4.830   2.214
18066WAT     H254441   5.100   4.882   2.312
18067WAT      O54442   5.941   2.659   9.697
18067WAT     H154443   5.971   2.690   9.787
18067WAT     H254444   5.954   2.560   9.690
18068WAT      O54445   2.563   8.452   1.455
18068WAT     H154446   2.624   8.398   1.514
18068WAT     H254447   2.470   8.414   1.461
18069WAT      O54448   7.526   6.914   6.276
18069WAT     H154449   7.573   6.860   6.207
18069WAT     H254450   7.554   6.884   6.368
18070WAT      O54451   0.449   5.665   2.086
18070WAT     H154452   0.533   5.625   2.125
18070WAT     H254453   0.378   5.669   2.156
18071WAT      O54454   9.783   1.985   7.158
18071WAT     H154455   9.824   1.913   7.214
18071WAT     H254456   9.711   1.945   7.100
18072WAT      O54457   6.963   8.791   0.165
18072WAT     H154458   6.996   8.886   0.165
18072WAT     H254459   6.874   8.787   0.209
18073WAT      O54460   4.143   4.481   7.966
18073WAT     H154461   4.118   4.534   7.885
18073WAT     H254462   4.160   4.542   8.043
18074WAT      O54463   6.009   8.938   0.314
18074WAT     H154464   6.058   9.000   0.252
18074WAT     H254465   6.003   8.979   0.405
18075WAT      O54466   4.590   1.843   4.041
18075WAT     H154467   4.624   1.766   3.987
18075WAT     H254468   4.619   1.928   3.999
18076WAT      O54469   8.505   2.393   4.941
18076WAT     H154470   8.525   2.297   4.918
18076WAT     H254471   8.539   2.413   5.033
18077WAT      O54472   0.376   4.528   2.837
18077WAT     H154473   0.316   4.471   2.781
18077WAT     H254474   0.465   4.482   2.848
18078WAT      O54475   5.778   5.367   3.984
18078WAT     H154476   5.729   5.409   3.908
18078WAT     H254477   5.761   5.420   4.067
18079WAT      O54478   7.833   9.281   2.556
18079WAT     H154479   7.787   9.261   2.469
18079WAT     H254480   7.920   9.231   2.559
18080WAT      O54481   8.648   1.690   8.629
18080WAT     H154482   8.738   1.728   8.606
18080WAT     H254483   8.654   1.590   8.629
18081WAT      O54484   5.343   5.096   3.230
18081WAT     H154485   5.415   5.139   3.175
18081WAT     H254486   5.323   5.005   3.195
18082WAT      O54487   0.860   0.951   6.072
18082WAT     H154488   0.928   0.926   6.003
18082WAT     H254489   0.838   0.870   6.128
18083WAT      O54490   0.155   2.657   9.878
18083WAT     H154491   0.140   2.625   9.785
18083WAT     H254492   0.078   2.715   9.907
18084WAT      O54493   6.904   6.144   7.039
18084WAT     H154494   6.818   6.190   7.016
18084WAT     H254495   6.886   6.046   7.050
18085WAT      O54496   6.264   8.069   7.870
18085WAT     H154497   6.178   8.119   7.861
18085WAT     H254498   6.341   8.130   7.850
18086WAT      O54499   3.198   0.481   2.966
18086WAT     H154500   3.169   0.534   2.886
18086WAT     H254501   3.122   0.474   3.031
18087WAT      O54502   2.536   5.889   3.637
18087WAT     H154503   2.597   5.815   3.608
18087WAT     H254504   2.542   5.964   3.572
18088WAT      O54505   8.309   6.425   8.592
18088WAT     H154506   8.365   6.491   8.541
18088WAT     H254507   8.213   6.453   8.588
18089WAT      O54508   1.369   2.193   9.364
18089WAT     H154509   1.467   2.199   9.348
18089WAT     H254510   1.320   2.243   9.292
18090WAT      O54511   4.056   6.579   1.038
18090WAT     H154512   4.034   6.652   1.103
18090WAT     H254513   4.153   6.580   1.017
18091WAT      O54514   5.633   0.552   4.129
18091WAT     H154515   5.548   0.564   4.179
18091WAT     H254516   5.652   0.455   4.118
18092WAT      O54517   4.251   3.282   3.696
18092WAT     H154518   4.226   3.314   3.787
18092WAT     H254519   4.338   3.232   3.700
18093WAT      O54520   0.616   0.745   3.208
18093WAT     H154521   0.625   0.843   3.223
18093WAT     H254522   0.703   0.708   3.176
18094WAT      O54523   5.281   5.371   5.054
18094WAT     H154524   5.276   5.288   5.110
18094WAT     H254525   5.373   5.410   5.062
18095WAT      O54526   7.815   0.196   3.729
18095WAT     H154527   7.857   0.120   3.779
18095WAT     H254528   7.883   0.266   3.711
18096WAT      O54529   0.968   9.551   2.497
18096WAT     H154530   0.893   9.614   2.477
18096WAT     H254531   0.937   9.484   2.565
18097WAT      O54532   1.419   3.007   8.240
18097WAT     H154533   1.505   2.966   8.212
18097WAT     H254534   1.343   2.947   8.213
18098WAT      O54535   1.316   5.993   7.865
18098WAT     H154536   1.404   6.014   7.824
18098WAT     H254537   1.250   6.066   7.842
18099WAT      O54538   9.180   6.120   7.138
18099WAT     H154539   9.116   6.192   7.109
18099WAT     H254540   9.227   6.148   7.222
18100WAT      O54541   6.663   6.517   5.268
18100WAT     H154542   6.736   6.449   5.269
18100WAT     H254543   6.626   6.525   5.176
18101WAT      O54544   9.870   4.001   5.805
18101WAT     H154545   9.865   4.099   5.785
18101WAT     H254546   9.881   3.988   5.903
18102WAT      O54547   7.401   9.329   6.852
18102WAT     H154548   7.496   9.306   6.871
18102WAT     H254549   7.397   9.414   6.799
18103WAT      O54550   4.839   8.934   1.006
18103WAT     H154551   4.783   8.949   0.925
18103WAT     H254552   4.914   8.871   0.984
18104WAT      O54553   2.039   6.622   9.186
18104WAT     H154554   2.106   6.551   9.205
18104WAT     H254555   1.979   6.634   9.266
18105WAT      O54556   8.150   0.615   4.147
18105WAT     H154557   8.117   0.693   4.199
18105WAT     H254558   8.104   0.532   4.178
18106WAT      O54559   0.088   6.641   8.935
18106WAT     H154560   0.029   6.714   8.969
18106WAT     H254561   0.183   6.663   8.954
18107WAT      O54562   0.687   5.391   8.364
18107WAT     H154563   0.751   5.466   8.345
18107WAT     H254564   0.652   5.400   8.457
18108WAT      O54565   1.409   0.736   6.384
18108WAT     H154566   1.333   0.755   6.446
18108WAT     H254567   1.495   0.732   6.435
18109WAT      O54568   7.531   3.140   5.306
18109WAT     H154569   7.566   3.204   5.238
18109WAT     H254570   7.572   3.159   5.395
18110WAT      O54571   6.507   1.207   2.444
18110WAT     H154572   6.414   1.219   2.481
18110WAT     H254573   6.528   1.283   2.383
18111WAT      O54574   7.512   4.179   4.444
18111WAT     H154575   7.585   4.143   4.387
18111WAT     H254576   7.449   4.233   4.388
18112WAT      O54577   7.027   5.222   2.682
18112WAT     H154578   7.123   5.249   2.690
18112WAT     H254579   7.020   5.123   2.671
18113WAT      O54580   3.482   3.802   7.868
18113WAT     H154581   3.475   3.850   7.955
18113WAT     H254582   3.568   3.825   7.823
18114WAT      O54583   4.842   0.872   8.759
18114WAT     H154584   4.940   0.854   8.751
18114WAT     H254585   4.790   0.800   8.714
18115WAT      O54586   7.789   8.813   8.750
18115WAT     H154587   7.741   8.742   8.802
18115WAT     H254588   7.883   8.784   8.733
18116WAT      O54589   2.199   9.084   6.611
18116WAT     H154590   2.141   9.117   6.687
18116WAT     H254591   2.185   9.143   6.532
18117WAT      O54592   5.739   6.428   6.543
18117WAT     H154593   5.835   6.429   6.569
18117WAT     H254594   5.683   6.412   6.624
18118WAT      O54595   0.190   6.883   4.491
18118WAT     H154596   0.108   6.838   4.455
18118WAT     H254597   0.164   6.954   4.556
18119WAT      O54598   4.669   2.472   3.472
18119WAT     H154599   4.758   2.457   3.428
18119WAT     H254600   4.625   2.552   3.431
18120WAT      O54601   3.246   2.679   7.698
18120WAT     H154602   3.292   2.755   7.745
18120WAT     H254603   3.147   2.684   7.715
18121WAT      O54604   6.019   9.249   6.871
18121WAT     H154605   6.031   9.180   6.799
18121WAT     H254606   5.922   9.273   6.879
18122WAT      O54607   8.739   3.489   8.768
18122WAT     H154608   8.660   3.479   8.707
18122WAT     H254609   8.792   3.404   8.767
18123WAT      O54610   5.498   9.019   4.693
18123WAT     H154611   5.433   8.966   4.747
18123WAT     H254612   5.452   9.099   4.654
18124WAT      O54613   2.790   2.118   3.493
18124WAT     H154614   2.803   2.032   3.442
18124WAT     H254615   2.760   2.097   3.586
18125WAT      O54616   1.010   2.785   8.794
18125WAT     H154617   0.932   2.845   8.778
18125WAT     H254618   1.084   2.809   8.731
18126WAT      O54619   4.376   1.348   7.687
18126WAT     H154620   4.458   1.295   7.710
18126WAT     H254621   4.295   1.300   7.721
18127WAT      O54622   8.568   7.736   0.463
18127WAT     H154623   8.607   7.745   0.371
18127WAT     H254624   8.593   7.816   0.518
18128WAT      O54625   6.177   6.739   3.123
18128WAT     H154626   6.118   6.755   3.202
18128WAT     H254627   6.154   6.804   3.051
18129WAT      O54628   6.939   0.589   0.616
18129WAT     H154629   6.978   0.544   0.536
18129WAT     H254630   6.871   0.528   0.658
18130WAT      O54631   1.164   4.864   0.960
18130WAT     H154632   1.199   4.794   1.023
18130WAT     H254633   1.238   4.924   0.933
18131WAT      O54634   9.708   0.805   4.951
18131WAT     H154635   9.711   0.873   5.024
18131WAT     H254636   9.797   0.762   4.941
18132WAT      O54637   8.659   1.556   1.979
18132WAT     H154638   8.699   1.543   1.888
18132WAT     H254639   8.627   1.468   2.014
18133WAT      O54640   3.932   6.457   8.534
18133WAT     H154641   3.844   6.490   8.500
18133WAT     H254642   3.917   6.381   8.597
18134WAT      O54643   9.758   9.486   2.359
18134WAT     H154644   9.722   9.400   2.395
18134WAT     H254645   9.786   9.546   2.435
18135WAT      O54646   2.597   1.786   2.567
18135WAT     H154647   2.518   1.767   2.626
18135WAT     H254648   2.675   1.730   2.597
18136WAT      O54649   2.116   8.378   3.608
18136WAT     H154650   2.034   8.345   3.655
18136WAT     H254651   2.090   8.447   3.540
18137WAT      O54652   6.159   5.762   6.383
18137WAT     H154653   6.170   5.664   6.402
18137WAT     H254654   6.186   5.815   6.463
18138WAT      O54655   9.347   1.364   1.053
18138WAT     H154656   9.324   1.268   1.066
18138WAT     H254657   9.264   1.418   1.046
18139WAT      O54658   0.864   5.527   0.908
18139WAT     H154659   0.940   5.471   0.940
18139WAT     H254660   0.863   5.614   0.957
18140WAT      O54661   6.533   1.313   1.522
18140WAT     H154662   6.514   1.328   1.619
18140WAT     H254663   6.617   1.360   1.496
18141WAT      O54664   5.066   4.748   7.226
18141WAT     H154665   5.112   4.683   7.166
18141WAT     H254666   5.001   4.699   7.285
18142WAT      O54667   1.427   8.594   2.777
18142WAT     H154668   1.444   8.505   2.734
18142WAT     H254669   1.456   8.667   2.715
18143WAT      O54670   5.220   5.548   0.335
18143WAT     H154671   5.120   5.550   0.326
18143WAT     H254672   5.247   5.467   0.387
18144WAT      O54673   3.994   2.787   9.177
18144WAT     H154674   3.898   2.758   9.171
18144WAT     H254675   4.031   2.761   9.266
18145WAT      O54676   6.783   1.402   7.165
18145WAT     H154677   6.689   1.372   7.181
18145WAT     H254678   6.788   1.450   7.077
18146WAT      O54679   5.103   4.647   8.544
18146WAT     H154680   5.059   4.576   8.600
18146WAT     H254681   5.045   4.668   8.465
18147WAT      O54682   8.985   2.222   9.624
18147WAT     H154683   8.886   2.230   9.612
18147WAT     H254684   9.028   2.310   9.608
18148WAT      O54685   3.070   6.224   4.920
18148WAT     H154686   3.019   6.304   4.951
18148WAT     H254687   3.094   6.167   4.999
18149WAT      O54688   4.018   1.466   5.652
18149WAT     H154689   3.943   1.498   5.709
18149WAT     H254690   3.993   1.379   5.609
18150WAT      O54691   0.216   9.483   7.765
18150WAT     H154692   0.249   9.553   7.702
18150WAT     H254693   0.122   9.504   7.792
18151WAT      O54694   4.076   3.590   0.534
18151WAT     H154695   4.103   3.499   0.505
18151WAT     H254696   4.158   3.645   0.553
18152WAT      O54697   9.476   0.979   8.324
18152WAT     H154698   9.504   0.904   8.263
18152WAT     H254699   9.501   0.956   8.418
18153WAT      O54700   4.364   7.397   2.949
18153WAT     H154701   4.399   7.484   2.912
18153WAT     H254702   4.353   7.405   3.048
18154WAT      O54703   1.163   4.947   6.208
18154WAT     H154704   1.258   4.932   6.180
18154WAT     H254705   1.147   5.045   6.220
18155WAT      O54706   6.829   3.483   0.021
18155WAT     H154707   6.880   3.514  -0.060
18155WAT     H254708   6.884   3.498   0.103
18156WAT      O54709   6.341   9.728   8.115
18156WAT     H154710   6.354   9.652   8.179
18156WAT     H254711   6.284   9.698   8.039
18157WAT      O54712   4.669   7.339   7.640
18157WAT     H154713   4.767   7.330   7.657
18157WAT     H254714   4.645   7.290   7.557
18158WAT      O54715   5.032   6.512   9.424
18158WAT     H154716   5.055   6.587   9.487
18158WAT     H254717   4.936   6.519   9.397
18159WAT      O54718   2.347   6.934   5.231
18159WAT     H154719   2.393   6.878   5.300
18159WAT     H254720   2.354   6.889   5.142
18160WAT      O54721   0.808   6.417   1.579
18160WAT     H154722   0.866   6.436   1.658
18160WAT     H254723   0.848   6.343   1.525
18161WAT      O54724   2.314   5.073   2.351
18161WAT     H154725   2.319   4.975   2.371
18161WAT     H254726   2.304   5.086   2.252
18162WAT      O54727   8.205   1.606   9.675
18162WAT     H154728   8.151   1.689   9.684
18162WAT     H254729   8.294   1.629   9.635
18163WAT      O54730   8.669   2.446   3.406
18163WAT     H154731   8.634   2.536   3.381
18163WAT     H254732   8.618   2.375   3.358
18164WAT      O54733   9.055   0.782   5.887
18164WAT     H154734   9.149   0.803   5.914
18164WAT     H254735   9.054   0.752   5.792
18165WAT      O54736   1.032   6.454   9.249
18165WAT     H154737   1.032   6.396   9.331
18165WAT     H254738   1.112   6.432   9.193
18166WAT      O54739   8.872   7.167   7.844
18166WAT     H154740   8.960   7.119   7.832
18166WAT     H254741   8.811   7.142   7.769
18167WAT      O54742   9.273   0.562   1.040
18167WAT     H154743   9.342   0.581   1.110
18167WAT     H254744   9.318   0.554   0.951
18168WAT      O54745   0.873   4.188   2.741
18168WAT     H154746   0.871   4.107   2.800
18168WAT     H254747   0.963   4.232   2.748
18169WAT      O54748   3.687   1.730   4.615
18169WAT     H154749   3.603   1.678   4.608
18169WAT     H254750   3.678   1.816   4.564
18170WAT      O54751   3.791   7.422   3.742
18170WAT     H154752   3.819   7.441   3.648
18170WAT     H254753   3.812   7.327   3.765
18171WAT      O54754   7.149   8.321   3.601
18171WAT     H154755   7.124   8.292   3.694
18171WAT     H254756   7.067   8.344   3.550
18172WAT      O54757   8.002   4.630   1.434
18172WAT     H154758   7.984   4.559   1.502
18172WAT     H254759   8.089   4.611   1.388
18173WAT      O54760   8.035   1.280   0.464
18173WAT     H154761   8.020   1.276   0.366
18173WAT     H254762   8.020   1.373   0.497
18174WAT      O54763   2.610   0.780   5.838
18174WAT     H154764   2.565   0.782   5.928
18174WAT     H254765   2.603   0.871   5.797
18175WAT      O54766   5.817   6.094   9.183
18175WAT     H154767   5.734   6.039   9.170
18175WAT     H254768   5.887   6.065   9.118
18176WAT      O54769   8.177   2.338   4.305
18176WAT     H154770   8.119   2.295   4.236
18176WAT     H254771   8.242   2.399   4.261
18177WAT      O54772   1.306   0.880   8.644
18177WAT     H154773   1.322   0.828   8.560
18177WAT     H254774   1.289   0.976   8.621
18178WAT      O54775   7.087   7.220   4.471
18178WAT     H154776   7.179   7.189   4.446
18178WAT     H254777   7.086   7.319   4.478
18179WAT      O54778   7.018   8.652   3.322
18179WAT     H154779   7.032   8.659   3.421
18179WAT     H254780   6.926   8.616   3.304
18180WAT      O54781   3.501   9.802   0.232
18180WAT     H154782   3.404   9.800   0.207
18180WAT     H254783   3.543   9.714   0.210
18181WAT      O54784   1.994   2.358   8.941
18181WAT     H154785   1.962   2.413   9.018
18181WAT     H254786   2.085   2.323   8.960
18182WAT      O54787   3.376   6.807   5.662
18182WAT     H154788   3.295   6.775   5.713
18182WAT     H254789   3.346   6.859   5.582
18183WAT      O54790   1.917   5.723   3.414
18183WAT     H154791   1.947   5.628   3.422
18183WAT     H254792   1.949   5.761   3.327
18184WAT      O54793   5.126   6.796   0.853
18184WAT     H154794   5.201   6.748   0.808
18184WAT     H254795   5.071   6.731   0.905
18185WAT      O54796   1.747   0.635   2.171
18185WAT     H154797   1.821   0.697   2.198
18185WAT     H254798   1.758   0.547   2.218
18186WAT      O54799   4.045   5.632   0.958
18186WAT     H154800   4.010   5.720   0.927
18186WAT     H254801   4.026   5.562   0.889
18187WAT      O54802   1.208   4.311   6.145
18187WAT     H154803   1.120   4.347   6.114
18187WAT     H254804   1.234   4.234   6.086
18188WAT      O54805   4.261   3.979   9.440
18188WAT     H154806   4.251   4.076   9.458
18188WAT     H254807   4.254   3.928   9.526
18189WAT      O54808   9.885   1.475   0.943
18189WAT     H154809   9.809   1.441   0.998
18189WAT     H254810   9.860   1.472   0.846
18190WAT      O54811   3.496   2.345   6.013
18190WAT     H154812   3.541   2.315   6.097
18190WAT     H254813   3.527   2.438   5.990
18191WAT      O54814   0.749   0.627   7.546
18191WAT     H154815   0.766   0.627   7.644
18191WAT     H254816   0.803   0.699   7.502
18192WAT      O54817   0.369   7.593   6.124
18192WAT     H154818   0.446   7.532   6.104
18192WAT     H254819   0.404   7.683   6.149
18193WAT      O54820   1.080   7.541   0.004
18193WAT     H154821   1.126   7.622   0.040
18193WAT     H254822   1.061   7.477   0.079
18194WAT      O54823   3.314   8.059   6.685
18194WAT     H154824   3.378   8.136   6.687
18194WAT     H254825   3.225   8.091   6.651
18195WAT      O54826   1.793   5.963   4.426
18195WAT     H154827   1.726   6.031   4.456
18195WAT     H254828   1.862   5.951   4.497
18196WAT      O54829   0.306   2.369   6.484
18196WAT     H154830   0.223   2.392   6.535
18196WAT     H254831   0.309   2.270   6.469
18197WAT      O54832   4.629   9.728   2.741
18197WAT     H154833   4.575   9.669   2.802
18197WAT     H254834   4.642   9.817   2.784
18198WAT      O54835   8.279   7.567   3.502
18198WAT     H154836   8.194   7.524   3.534
18198WAT     H254837   8.283   7.563   3.402
18199WAT      O54838   5.466   2.161   5.413
18199WAT     H154839   5.395   2.116   5.468
18199WAT     H254840   5.451   2.260   5.415
18200WAT      O54841   6.643   8.248   3.296
18200WAT     H154842   6.593   8.189   3.360
18200WAT     H254843   6.602   8.240   3.205
18201WAT      O54844   0.662   1.845   2.593
18201WAT     H154845   0.611   1.909   2.650
18201WAT     H254846   0.643   1.751   2.623
18202WAT      O54847   1.797   4.341   1.828
18202WAT     H154848   1.735   4.363   1.753
18202WAT     H254849   1.756   4.268   1.883
18203WAT      O54850   8.915   7.145   3.107
18203WAT     H154851   8.948   7.142   3.202
18203WAT     H254852   8.989   7.120   3.045
18204WAT      O54853   5.781   5.935   8.444
18204WAT     H154854   5.874   5.958   8.471
18204WAT     H254855   5.759   5.843   8.476
18205WAT      O54856   3.955   1.928   2.257
18205WAT     H154857   4.038   1.977   2.282
18205WAT     H254858   3.908   1.897   2.340
18206WAT      O54859   4.091   6.981   5.435
18206WAT     H154860   4.095   7.032   5.349
18206WAT     H254861   4.157   6.906   5.432
18207WAT      O54862   3.461   5.187   1.215
18207WAT     H154863   3.410   5.119   1.267
18207WAT     H254864   3.555   5.155   1.202
18208WAT      O54865   7.995   1.302   5.227
18208WAT     H154866   8.071   1.363   5.248
18208WAT     H254867   8.022   1.208   5.245
18209WAT      O54868   9.421   6.641   8.725
18209WAT     H154869   9.349   6.586   8.765
18209WAT     H254870   9.502   6.584   8.710
18210WAT      O54871   1.819   5.213   4.192
18210WAT     H154872   1.856   5.164   4.113
18210WAT     H254873   1.757   5.153   4.243
18211WAT      O54874   8.640   7.715   4.377
18211WAT     H154875   8.541   7.724   4.389
18211WAT     H254876   8.665   7.748   4.286
18212WAT      O54877   0.352   1.177   1.657
18212WAT     H154878   0.446   1.212   1.659
18212WAT     H254879   0.289   1.251   1.632
18213WAT      O54880   5.552   4.813   2.556
18213WAT     H154881   5.531   4.768   2.643
18213WAT     H254882   5.586   4.906   2.574
18214WAT      O54883   8.936   2.548   9.780
18214WAT     H154884   8.909   2.637   9.817
18214WAT     H254885   8.964   2.559   9.685
18215WAT      O54886   3.138   9.671   0.884
18215WAT     H154887   3.220   9.728   0.884
18215WAT     H254888   3.101   9.666   0.792
18216WAT      O54889   0.285   9.024   9.706
18216WAT     H154890   0.244   9.026   9.798
18216WAT     H254891   0.337   8.939   9.695
18217WAT      O54892   6.696   7.571   0.394
18217WAT     H154893   6.727   7.661   0.363
18217WAT     H254894   6.604   7.553   0.359
18218WAT      O54895   4.089   0.321   2.029
18218WAT     H154896   4.118   0.405   1.985
18218WAT     H254897   3.993   0.329   2.056
18219WAT      O54898   5.143   6.835   6.063
18219WAT     H154899   5.229   6.881   6.083
18219WAT     H254900   5.082   6.842   6.142
18220WAT      O54901   0.254   9.570   6.064
18220WAT     H154902   0.327   9.626   6.103
18220WAT     H254903   0.230   9.498   6.130
18221WAT      O54904   2.708   6.413   6.884
18221WAT     H154905   2.633   6.357   6.918
18221WAT     H254906   2.742   6.472   6.957
18222WAT      O54907   3.353   2.327   3.886
18222WAT     H154908   3.289   2.378   3.829
18222WAT     H254909   3.361   2.371   3.975
18223WAT      O54910   6.839   3.891   7.622
18223WAT     H154911   6.930   3.932   7.631
18223WAT     H254912   6.769   3.959   7.644
18224WAT      O54913   4.036   5.315   1.824
18224WAT     H154914   4.008   5.377   1.750
18224WAT     H254915   4.117   5.351   1.869
18225WAT      O54916   6.589   7.380   0.142
18225WAT     H154917   6.509   7.440   0.135
18225WAT     H254918   6.645   7.407   0.219
18226WAT      O54919   8.374   9.348   5.213
18226WAT     H154920   8.441   9.276   5.232
18226WAT     H254921   8.303   9.347   5.282
18227WAT      O54922   5.344   6.650   5.620
18227WAT     H154923   5.299   6.718   5.678
18227WAT     H254924   5.424   6.691   5.576
18228WAT      O54925   8.412   4.441   7.157
18228WAT     H154926   8.433   4.384   7.077
18228WAT     H254927   8.438   4.391   7.240
18229WAT      O54928   3.926   5.454   4.503
18229WAT     H154929   4.013   5.420   4.466
18229WAT     H254930   3.914   5.420   4.596
18230WAT      O54931   9.748   1.785   4.001
18230WAT     H154932   9.837   1.752   3.970
18230WAT     H254933   9.708   1.844   3.932
18231WAT      O54934   3.897   0.102   0.184
18231WAT     H154935   3.905   0.010   0.223
18231WAT     H254936   3.804   0.115   0.149
18232WAT      O54937   3.332   1.033   9.427
18232WAT     H154938   3.309   1.057   9.521
18232WAT     H254939   3.274   1.085   9.364
18233WAT      O54940   8.987   6.550   6.257
18233WAT     H154941   8.920   6.569   6.186
18233WAT     H254942   8.952   6.479   6.318
18234WAT      O54943   6.750   5.777   5.632
18234WAT     H154944   6.849   5.766   5.631
18234WAT     H254945   6.714   5.754   5.723
18235WAT      O54946   9.714   1.717   1.178
18235WAT     H154947   9.796   1.664   1.199
18235WAT     H254948   9.636   1.655   1.170
18236WAT      O54949   9.272   0.819   3.270
18236WAT     H154950   9.255   0.898   3.210
18236WAT     H254951   9.312   0.745   3.216
18237WAT      O54952   3.988   6.466   5.287
18237WAT     H154953   4.086   6.482   5.274
18237WAT     H254954   3.938   6.551   5.268
18238WAT      O54955   7.640   4.946   2.053
18238WAT     H154956   7.706   5.021   2.063
18238WAT     H254957   7.562   4.962   2.113
18239WAT      O54958   7.992   3.427   0.081
18239WAT     H154959   8.032   3.490   0.147
18239WAT     H254960   7.921   3.474   0.029
18240WAT      O54961   9.254   6.773   8.306
18240WAT     H154962   9.237   6.742   8.212
18240WAT     H254963   9.169   6.768   8.359
18241WAT      O54964   0.126   4.192   7.869
18241WAT     H154965   0.165   4.232   7.786
18241WAT     H254966   0.199   4.156   7.927
18242WAT      O54967   6.190   0.699   5.999
18242WAT     H154968   6.100   0.700   5.955
18242WAT     H254969   6.228   0.791   5.998
18243WAT      O54970   1.087   1.654   6.717
18243WAT     H154971   1.031   1.645   6.635
18243WAT     H254972   1.173   1.699   6.693
18244WAT      O54973   6.336   0.521   1.691
18244WAT     H154974   6.339   0.422   1.706
18244WAT     H254975   6.428   0.555   1.670
18245WAT      O54976   0.587   0.457   1.264
18245WAT     H154977   0.530   0.463   1.346
18245WAT     H254978   0.594   0.362   1.235
18246WAT      O54979   2.597   6.908   4.711
18246WAT     H154980   2.664   6.842   4.678
18246WAT     H254981   2.507   6.866   4.713
18247WAT      O54982   0.658   6.338   5.673
18247WAT     H154983   0.625   6.348   5.579
18247WAT     H254984   0.678   6.242   5.690
18248WAT      O54985   8.154   4.851   3.312
18248WAT     H154986   8.128   4.814   3.401
18248WAT     H254987   8.251   4.876   3.313
18249WAT      O54988   2.387   8.485   6.412
18249WAT     H154989   2.414   8.389   6.404
18249WAT     H254990   2.321   8.507   6.339
18250WAT      O54991   3.914   1.129   4.432
18250WAT     H154992   3.825   1.164   4.405
18250WAT     H254993   3.912   1.101   4.528
18251WAT      O54994   1.473   3.520   3.480
18251WAT     H154995   1.393   3.465   3.502
18251WAT     H254996   1.445   3.615   3.463
18252WAT      O54997   2.660   5.449   0.890
18252WAT     H154998   2.565   5.429   0.863
18252WAT     H254999   2.663   5.539   0.933
18253WAT      O55000   4.244   7.017   7.182
18253WAT     H155001   4.182   6.996   7.258
18253WAT     H255002   4.232   6.949   7.109
18254WAT      O55003   1.217   7.482   9.384
18254WAT     H155004   1.289   7.441   9.439
18254WAT     H255005   1.158   7.538   9.443
18255WAT      O55006   7.628   4.483   4.553
18255WAT     H155007   7.671   4.396   4.578
18255WAT     H255008   7.557   4.467   4.485
18256WAT      O55009   3.678   4.430   2.904
18256WAT     H155010   3.719   4.493   2.969
18256WAT     H255011   3.588   4.401   2.937
18257WAT      O55012   2.376   2.695   5.826
18257WAT     H155013   2.336   2.786   5.835
18257WAT     H255014   2.430   2.674   5.907
18258WAT      O55015   4.971   5.091   2.867
18258WAT     H155016   5.023   5.107   2.950
18258WAT     H255017   4.883   5.049   2.889
18259WAT      O55018   5.747   8.435   8.903
18259WAT     H155019   5.818   8.494   8.863
18259WAT     H255020   5.774   8.340   8.894
18260WAT      O55021   5.007   8.687   6.184
18260WAT     H155022   5.068   8.765   6.203
18260WAT     H255023   4.962   8.700   6.096
18261WAT      O55024   9.452   7.257   4.255
18261WAT     H155025   9.453   7.180   4.190
18261WAT     H255026   9.533   7.314   4.240
18262WAT      O55027   0.451   4.543   5.971
18262WAT     H155028   0.404   4.587   5.895
18262WAT     H255029   0.485   4.453   5.942
18263WAT      O55030   0.502   0.547   7.447
18263WAT     H155031   0.592   0.585   7.469
18263WAT     H255032   0.485   0.468   7.506
18264WAT      O55033   1.300   2.601   4.894
18264WAT     H155034   1.273   2.515   4.937
18264WAT     H255035   1.392   2.592   4.856
18265WAT      O55036   4.723   3.039   7.981
18265WAT     H155037   4.772   2.985   7.912
18265WAT     H255038   4.755   3.014   8.072
18266WAT      O55039   3.760   5.476   4.284
18266WAT     H155040   3.823   5.462   4.360
18266WAT     H255041   3.667   5.456   4.313
18267WAT      O55042   0.842   8.299   7.980
18267WAT     H155043   0.846   8.200   7.966
18267WAT     H255044   0.898   8.324   8.059
18268WAT      O55045   7.081   7.683   7.739
18268WAT     H155046   7.097   7.664   7.642
18268WAT     H255047   7.131   7.616   7.794
18269WAT      O55048   2.839   6.415   9.763
18269WAT     H155049   2.857   6.370   9.676
18269WAT     H255050   2.922   6.460   9.796
18270WAT      O55051   5.375   1.690   6.776
18270WAT     H155052   5.412   1.604   6.742
18270WAT     H255053   5.290   1.711   6.727
18271WAT      O55054   8.720   3.996   5.761
18271WAT     H155055   8.681   4.075   5.807
18271WAT     H255056   8.648   3.929   5.741
18272WAT      O55057   5.078   4.957   1.686
18272WAT     H155058   5.106   4.957   1.782
18272WAT     H255059   4.985   4.921   1.679
18273WAT      O55060   7.952   2.501   7.580
18273WAT     H155061   7.860   2.526   7.549
18273WAT     H255062   7.950   2.475   7.676
18274WAT      O55063   5.583   5.788   3.455
18274WAT     H155064   5.648   5.823   3.388
18274WAT     H255065   5.601   5.829   3.544
18275WAT      O55066   0.939   7.747   1.608
18275WAT     H155067   0.905   7.660   1.644
18275WAT     H255068   0.907   7.822   1.666
18276WAT      O55069   1.435   1.947   1.743
18276WAT     H155070   1.427   1.861   1.693
18276WAT     H255071   1.452   2.021   1.678
18277WAT      O55072   6.243   1.190   4.149
18277WAT     H155073   6.208   1.119   4.088
18277WAT     H255074   6.170   1.221   4.210
18278WAT      O55075   9.858   7.773   5.880
18278WAT     H155076   9.872   7.780   5.781
18278WAT     H255077   9.869   7.863   5.922
18279WAT      O55078   4.562   2.812   5.811
18279WAT     H155079   4.469   2.845   5.793
18279WAT     H255080   4.562   2.712   5.815
18280WAT      O55081   3.503   1.446   8.233
18280WAT     H155082   3.469   1.530   8.189
18280WAT     H255083   3.494   1.370   8.168
18281WAT      O55084   0.668   0.537   4.552
18281WAT     H155085   0.719   0.536   4.466
18281WAT     H255086   0.721   0.488   4.622
18282WAT      O55087   0.219   0.418   4.151
18282WAT     H155088   0.225   0.367   4.066
18282WAT     H255089   0.311   0.430   4.189
18283WAT      O55090   7.260   4.740   2.727
18283WAT     H155091   7.308   4.809   2.782
18283WAT     H255092   7.287   4.649   2.757
18284WAT      O55093   7.010   2.865   7.836
18284WAT     H155094   7.006   2.900   7.929
18284WAT     H255095   7.033   2.768   7.838
18285WAT      O55096   0.706   5.320   7.538
18285WAT     H155097   0.703   5.229   7.577
18285WAT     H255098   0.754   5.317   7.450
18286WAT      O55099   6.219   1.587   4.425
18286WAT     H155100   6.124   1.606   4.449
18286WAT     H255101   6.222   1.521   4.351
18287WAT      O55102   9.776   1.329   8.612
18287WAT     H155103   9.722   1.392   8.557
18287WAT     H255104   9.742   1.236   8.599
18288WAT      O55105   0.666   4.739   5.379
18288WAT     H155106   0.754   4.708   5.341
18288WAT     H255107   0.635   4.675   5.449
18289WAT      O55108   4.879   7.367   4.852
18289WAT     H155109   4.979   7.369   4.849
18289WAT     H255110   4.845   7.446   4.904
18290WAT      O55111   3.682   1.447   7.574
18290WAT     H155112   3.709   1.537   7.540
18290WAT     H255113   3.634   1.398   7.501
18291WAT      O55114   6.404   5.883   8.990
18291WAT     H155115   6.329   5.883   8.923
18291WAT     H255116   6.443   5.791   8.995
18292WAT      O55117   4.079   8.130   2.050
18292WAT     H155118   4.137   8.049   2.042
18292WAT     H255119   3.986   8.102   2.072
18293WAT      O55120   9.885   0.112   3.132
18293WAT     H155121   9.885   0.081   3.227
18293WAT     H255122   9.882   0.033   3.071
18294WAT      O55123   7.204   7.492   6.632
18294WAT     H155124   7.257   7.428   6.688
18294WAT     H255125   7.264   7.565   6.600
18295WAT      O55126   3.010   7.436   6.297
18295WAT     H155127   2.990   7.384   6.215
18295WAT     H255128   3.060   7.519   6.272
18296WAT      O55129   0.874   1.814   1.926
18296WAT     H155130   0.882   1.741   1.859
18296WAT     H255131   0.852   1.900   1.880
18297WAT      O55132   1.656   9.675   5.923
18297WAT     H155133   1.566   9.632   5.913
18297WAT     H255134   1.646   9.762   5.971
18298WAT      O55135   3.283   6.892   0.963
18298WAT     H155136   3.220   6.890   1.041
18298WAT     H255137   3.377   6.875   0.995
18299WAT      O55138   1.150   3.475   4.018
18299WAT     H155139   1.233   3.529   4.004
18299WAT     H255140   1.102   3.508   4.099
18300WAT      O55141   2.733   6.960   0.626
18300WAT     H155142   2.782   6.925   0.546
18300WAT     H255143   2.776   7.043   0.659
18301WAT      O55144   7.465   6.930   0.199
18301WAT     H155145   7.533   6.926   0.272
18301WAT     H255146   7.459   6.841   0.154
18302WAT      O55147   8.970   4.993   6.112
18302WAT     H155148   8.961   4.970   6.208
18302WAT     H255149   9.025   5.077   6.103
18303WAT      O55150   1.210   8.900   5.623
18303WAT     H155151   1.163   8.967   5.565
18303WAT     H255152   1.204   8.809   5.581
18304WAT      O55153   7.335   7.435   6.878
18304WAT     H155154   7.380   7.511   6.926
18304WAT     H255155   7.403   7.365   6.856
18305WAT      O55156   9.282   2.783   8.045
18305WAT     H155157   9.376   2.755   8.067
18305WAT     H255158   9.217   2.728   8.096
18306WAT      O55159   9.430   2.913   2.826
18306WAT     H155160   9.468   2.822   2.843
18306WAT     H255161   9.365   2.936   2.899
18307WAT      O55162   6.058   9.617   1.960
18307WAT     H155163   6.125   9.690   1.961
18307WAT     H255164   5.972   9.650   2.001
18308WAT      O55165   1.075   0.519   9.190
18308WAT     H155166   1.147   0.497   9.124
18308WAT     H255167   1.109   0.587   9.255
18309WAT      O55168   8.789   0.984   3.915
18309WAT     H155169   8.813   1.045   3.990
18309WAT     H255170   8.711   0.928   3.941
18310WAT      O55171   6.403   0.418   3.765
18310WAT     H155172   6.484   0.417   3.706
18310WAT     H255173   6.352   0.503   3.749
18311WAT      O55174   0.891   7.905   6.425
18311WAT     H155175   0.828   7.851   6.482
18311WAT     H255176   0.980   7.860   6.424
18312WAT      O55177   6.302   5.898   0.145
18312WAT     H155178   6.229   5.966   0.161
18312WAT     H255179   6.330   5.859   0.233
18313WAT      O55180   8.624   3.872   1.470
18313WAT     H155181   8.679   3.951   1.499
18313WAT     H255182   8.632   3.799   1.539
18314WAT      O55183   2.150   6.720   1.028
18314WAT     H155184   2.209   6.642   1.012
18314WAT     H255185   2.073   6.718   0.964
18315WAT      O55186   9.797   7.120   6.613
18315WAT     H155187   9.719   7.174   6.645
18315WAT     H255188   9.807   7.132   6.514
18316WAT      O55189   4.547   1.905   9.703
18316WAT     H155190   4.487   1.833   9.668
18316WAT     H255191   4.596   1.947   9.626
18317WAT      O55192   8.929   9.834   8.461
18317WAT     H155193   8.862   9.869   8.396
18317WAT     H255194   8.907   9.740   8.484
18318WAT      O55195   7.668   1.200   4.972
18318WAT     H155196   7.719   1.271   5.019
18318WAT     H255197   7.580   1.237   4.942
18319WAT      O55198   5.597   5.894   6.729
18319WAT     H155199   5.507   5.851   6.731
18319WAT     H255200   5.623   5.922   6.822
18320WAT      O55201   6.957   6.077   9.445
18320WAT     H155202   7.056   6.076   9.460
18320WAT     H255203   6.937   6.129   9.361
18321WAT      O55204   8.238   2.024   8.654
18321WAT     H155205   8.288   2.077   8.722
18321WAT     H255206   8.182   2.086   8.598
18322WAT      O55207   5.229   9.332   9.434
18322WAT     H155208   5.220   9.291   9.344
18322WAT     H255209   5.294   9.408   9.431
18323WAT      O55210   1.819   6.301   6.192
18323WAT     H155211   1.740   6.259   6.147
18323WAT     H255212   1.903   6.272   6.146
18324WAT      O55213   4.336   4.197   5.161
18324WAT     H155214   4.241   4.223   5.146
18324WAT     H255215   4.342   4.131   5.236
18325WAT      O55216   2.533   6.855   0.405
18325WAT     H155217   2.566   6.794   0.478
18325WAT     H255218   2.524   6.947   0.442
18326WAT      O55219   0.481   9.534   6.745
18326WAT     H155220   0.575   9.557   6.772
18326WAT     H255221   0.479   9.512   6.648
18327WAT      O55222   5.731   3.958   3.299
18327WAT     H155223   5.636   3.948   3.331
18327WAT     H255224   5.776   4.030   3.351
18328WAT      O55225   8.542   1.936   6.064
18328WAT     H155226   8.607   1.964   6.135
18328WAT     H255227   8.520   2.014   6.005
18329WAT      O55228   1.268   1.334   1.579
18329WAT     H155229   1.274   1.254   1.640
18329WAT     H255230   1.250   1.416   1.633
18330WAT      O55231   8.069   9.238   5.100
18330WAT     H155232   8.143   9.281   5.050
18330WAT     H255233   8.014   9.308   5.146
18331WAT      O55234   7.925   5.036   1.881
18331WAT     H155235   7.964   4.966   1.942
18331WAT     H255236   7.985   5.048   1.802
18332WAT      O55237   1.946   1.180   7.962
18332WAT     H155238   2.043   1.173   7.988
18332WAT     H255239   1.938   1.178   7.863
18333WAT      O55240   1.183   0.335   0.963
18333WAT     H155241   1.128   0.408   1.003
18333WAT     H255242   1.279   0.361   0.963
18334WAT      O55243   2.586   6.820   5.726
18334WAT     H155244   2.629   6.888   5.786
18334WAT     H255245   2.636   6.816   5.640
18335WAT      O55246   8.946   7.075   0.289
18335WAT     H155247   8.902   7.047   0.374
18335WAT     H255248   8.973   6.994   0.237
18336WAT      O55249   4.716   7.004   7.612
18336WAT     H155250   4.729   7.083   7.552
18336WAT     H255251   4.804   6.961   7.630
18337WAT      O55252   1.734   0.059   5.468
18337WAT     H155253   1.832   0.046   5.485
18337WAT     H255254   1.682   0.002   5.531
18338WAT      O55255   7.308   8.440   2.952
18338WAT     H155256   7.384   8.500   2.927
18338WAT     H255257   7.256   8.482   3.026
18339WAT      O55258   4.283   2.581   1.801
18339WAT     H155259   4.254   2.666   1.758
18339WAT     H255260   4.377   2.560   1.775
18340WAT      O55261   3.777   3.752   1.957
18340WAT     H155262   3.844   3.734   2.030
18340WAT     H255263   3.825   3.785   1.876
18341WAT      O55264   3.156   1.068   5.228
18341WAT     H155265   3.135   0.972   5.241
18341WAT     H255266   3.111   1.123   5.298
18342WAT      O55267   0.946   6.490   2.029
18342WAT     H155268   0.977   6.396   2.025
18342WAT     H255269   0.880   6.500   2.104
18343WAT      O55270   9.079   6.929   8.081
18343WAT     H155271   8.994   6.903   8.035
18343WAT     H255272   9.059   6.991   8.156
18344WAT      O55273   9.646   6.276   8.873
18344WAT     H155274   9.740   6.246   8.859
18344WAT     H255275   9.583   6.203   8.844
18345WAT      O55276   4.204   2.257   9.769
18345WAT     H155277   4.282   2.301   9.814
18345WAT     H255278   4.122   2.271   9.824
18346WAT      O55279   0.643   8.471   7.988
18346WAT     H155280   0.701   8.392   7.968
18346WAT     H255281   0.688   8.529   8.056
18347WAT      O55282   7.341   2.144   8.820
18347WAT     H155283   7.272   2.214   8.837
18347WAT     H255284   7.424   2.188   8.785
18348WAT      O55285   3.267   7.812   7.362
18348WAT     H155286   3.282   7.717   7.389
18348WAT     H255287   3.342   7.842   7.303
18349WAT      O55288   4.683   0.634   4.464
18349WAT     H155289   4.731   0.555   4.426
18349WAT     H255290   4.609   0.603   4.524
18350WAT      O55291   6.277   3.375   7.625
18350WAT     H155292   6.185   3.338   7.640
18350WAT     H255293   6.332   3.364   7.707
18351WAT      O55294   0.904   7.351   0.188
18351WAT     H155295   0.837   7.425   0.192
18351WAT     H255296   0.894   7.301   0.102
18352WAT      O55297   1.695   1.406   2.122
18352WAT     H155298   1.659   1.379   2.211
18352WAT     H255299   1.657   1.495   2.096
18353WAT      O55300   0.117   5.340   0.107
18353WAT     H155301   0.141   5.244   0.121
18353WAT     H255302   0.129   5.364   0.011
18354WAT      O55303   6.564   6.117   2.675
18354WAT     H155304   6.483   6.062   2.694
18354WAT     H255305   6.606   6.085   2.590
18355WAT      O55306   5.322   1.212   0.792
18355WAT     H155307   5.415   1.246   0.807
18355WAT     H255308   5.282   1.184   0.879
18356WAT      O55309   9.859   5.668   9.263
18356WAT     H155310   9.878   5.703   9.355
18356WAT     H255311   9.828   5.573   9.269
18357WAT      O55312   3.163   8.253   0.397
18357WAT     H155313   3.206   8.178   0.447
18357WAT     H255314   3.128   8.320   0.462
18358WAT      O55315   7.862   4.163   6.797
18358WAT     H155316   7.813   4.207   6.722
18358WAT     H255317   7.863   4.064   6.783
18359WAT      O55318   4.540   2.385   5.177
18359WAT     H155319   4.574   2.479   5.180
18359WAT     H255320   4.529   2.357   5.082
18360WAT      O55321   5.767   8.641   6.820
18360WAT     H155322   5.753   8.672   6.726
18360WAT     H255323   5.781   8.542   6.820
18361WAT      O55324   2.020   8.389   9.153
18361WAT     H155325   2.057   8.345   9.235
18361WAT     H255326   1.921   8.373   9.149
18362WAT      O55327   4.979   2.502   0.181
18362WAT     H155328   5.057   2.518   0.121
18362WAT     H255329   4.961   2.584   0.235
18363WAT      O55330   4.793   0.512   3.436
18363WAT     H155331   4.762   0.442   3.501
18363WAT     H255332   4.728   0.588   3.435
18364WAT      O55333   8.818   3.341   7.044
18364WAT     H155334   8.868   3.420   7.008
18364WAT     H255335   8.882   3.270   7.072
18365WAT      O55336   5.387   6.233   3.738
18365WAT     H155337   5.304   6.184   3.763
18365WAT     H255338   5.365   6.308   3.676
18366WAT      O55339   4.334   9.613   7.914
18366WAT     H155340   4.318   9.517   7.889
18366WAT     H255341   4.349   9.620   8.013
18367WAT      O55342   8.933   3.559   6.930
18367WAT     H155343   8.961   3.610   6.849
18367WAT     H255344   9.011   3.548   6.992
18368WAT      O55345   8.625   2.390   0.394
18368WAT     H155346   8.652   2.367   0.488
18368WAT     H255347   8.536   2.437   0.396
18369WAT      O55348   7.523   8.906   3.646
18369WAT     H155349   7.501   8.918   3.549
18369WAT     H255350   7.600   8.966   3.671
18370WAT      O55351   7.314   7.065   6.275
18370WAT     H155352   7.384   6.994   6.285
18370WAT     H255353   7.358   7.152   6.253
18371WAT      O55354   7.204   3.170   6.761
18371WAT     H155355   7.189   3.156   6.859
18371WAT     H255356   7.150   3.105   6.709
18372WAT      O55357   0.161   0.503   5.127
18372WAT     H155358   0.110   0.567   5.070
18372WAT     H255359   0.240   0.550   5.167
18373WAT      O55360   0.240   3.084   2.821
18373WAT     H155361   0.261   3.011   2.756
18373WAT     H255362   0.205   3.163   2.772
18374WAT      O55363   7.043   3.488   7.184
18374WAT     H155364   7.051   3.568   7.126
18374WAT     H255365   7.121   3.427   7.169
18375WAT      O55366   3.293   0.465   1.241
18375WAT     H155367   3.274   0.376   1.201
18375WAT     H255368   3.391   0.484   1.236
18376WAT      O55369   0.616   5.309   5.944
18376WAT     H155370   0.695   5.368   5.957
18376WAT     H255371   0.640   5.232   5.886
18377WAT      O55372   1.413   3.284   0.628
18377WAT     H155373   1.401   3.186   0.610
18377WAT     H255374   1.368   3.337   0.556
18378WAT      O55375   2.244   4.148   2.711
18378WAT     H155376   2.246   4.054   2.675
18378WAT     H255377   2.150   4.174   2.733
18379WAT      O55378   4.909   0.996   6.665
18379WAT     H155379   4.927   0.910   6.712
18379WAT     H255380   4.853   0.979   6.584
18380WAT      O55381   4.619   7.869   5.029
18380WAT     H155382   4.575   7.958   5.020
18380WAT     H255383   4.663   7.862   5.118
18381WAT      O55384   6.747   8.707   1.073
18381WAT     H155385   6.682   8.672   1.005
18381WAT     H255386   6.839   8.709   1.033
18382WAT      O55387   2.597   4.951   4.232
18382WAT     H155388   2.683   4.902   4.243
18382WAT     H255389   2.523   4.885   4.218
18383WAT      O55390   8.739   7.936   8.996
18383WAT     H155391   8.798   7.856   9.005
18383WAT     H255392   8.643   7.907   9.004
18384WAT      O55393   7.901   5.123   8.570
18384WAT     H155394   7.975   5.063   8.602
18384WAT     H255395   7.837   5.139   8.645
18385WAT      O55396   1.374   3.948   2.195
18385WAT     H155397   1.295   3.889   2.214
18385WAT     H255398   1.341   4.039   2.169
18386WAT      O55399   2.031   5.178   4.627
18386WAT     H155400   2.115   5.233   4.630
18386WAT     H255401   2.015   5.149   4.532
18387WAT      O55402   3.052   9.074   6.368
18387WAT     H155403   3.008   9.135   6.302
18387WAT     H255404   2.982   9.034   6.427
18388WAT      O55405   1.194   4.191   5.544
18388WAT     H155406   1.192   4.094   5.567
18388WAT     H255407   1.220   4.244   5.625
18389WAT      O55408   8.705   6.269   7.386
18389WAT     H155409   8.614   6.238   7.357
18389WAT     H255410   8.733   6.345   7.328
18390WAT      O55411   9.100   9.688   3.723
18390WAT     H155412   9.142   9.690   3.814
18390WAT     H255413   9.029   9.618   3.721
18391WAT      O55414   6.354   6.727   7.269
18391WAT     H155415   6.299   6.803   7.304
18391WAT     H255416   6.394   6.676   7.345
18392WAT      O55417   7.645   7.510   6.217
18392WAT     H155418   7.740   7.477   6.226
18392WAT     H255419   7.645   7.595   6.165
18393WAT      O55420   5.734   9.764   6.578
18393WAT     H155421   5.707   9.691   6.515
18393WAT     H255422   5.819   9.805   6.545
18394WAT      O55423   0.243   0.164   8.090
18394WAT     H155424   0.242   0.069   8.059
18394WAT     H255425   0.165   0.181   8.150
18395WAT      O55426   0.438   6.432   6.419
18395WAT     H155427   0.430   6.427   6.518
18395WAT     H255428   0.506   6.366   6.387
18396WAT      O55429   0.971   2.083   5.124
18396WAT     H155430   1.053   2.107   5.072
18396WAT     H255431   0.976   2.123   5.215
18397WAT      O55432   2.233   0.006   7.770
18397WAT     H155433   2.228   0.076   7.841
18397WAT     H255434   2.155   0.015   7.708
18398WAT      O55435   2.827   1.666   7.460
18398WAT     H155436   2.907   1.710   7.501
18398WAT     H255437   2.746   1.723   7.476
18399WAT      O55438   1.060   6.521   0.708
18399WAT     H155439   0.980   6.499   0.652
18399WAT     H255440   1.086   6.441   0.762
18400WAT      O55441   9.363   2.323   1.273
18400WAT     H155442   9.322   2.259   1.338
18400WAT     H255443   9.417   2.272   1.206
18401WAT      O55444   0.617   4.627   0.481
18401WAT     H155445   0.623   4.723   0.508
18401WAT     H255446   0.605   4.621   0.382
18402WAT      O55447   3.308   2.729   6.394
18402WAT     H155448   3.335   2.702   6.486
18402WAT     H255449   3.216   2.693   6.375
18403WAT      O55450   6.332   5.639   7.475
18403WAT     H155451   6.357   5.641   7.572
18403WAT     H255452   6.304   5.546   7.450
18404WAT      O55453   0.327   8.272   8.481
18404WAT     H155454   0.361   8.363   8.506
18404WAT     H255455   0.401   8.219   8.439
18405WAT      O55456   8.317   6.147   7.660
18405WAT     H155457   8.339   6.220   7.725
18405WAT     H255458   8.296   6.063   7.710
18406WAT      O55459   7.100   7.689   1.314
18406WAT     H155460   7.008   7.726   1.302
18406WAT     H255461   7.101   7.626   1.392
18407WAT      O55462   3.955   5.485   3.285
18407WAT     H155463   3.879   5.529   3.334
18407WAT     H255464   3.991   5.410   3.339
18408WAT      O55465   1.893   3.508   8.228
18408WAT     H155466   1.831   3.430   8.220
18408WAT     H255467   1.854   3.575   8.291
18409WAT      O55468   0.324   1.927   6.022
18409WAT     H155469   0.380   1.864   6.076
18409WAT     H255470   0.227   1.906   6.034
18410WAT      O55471   2.081   4.767   4.828
18410WAT     H155472   2.022   4.847   4.845
18410WAT     H255473   2.155   4.793   4.766
18411WAT      O55474   7.451   3.858   5.431
18411WAT     H155475   7.352   3.852   5.436
18411WAT     H255476   7.479   3.874   5.336
18412WAT      O55477   8.677   6.976   8.604
18412WAT     H155478   8.727   7.025   8.533
18412WAT     H255479   8.738   6.913   8.651
18413WAT      O55480   8.377   9.479   7.286
18413WAT     H155481   8.452   9.545   7.294
18413WAT     H255482   8.294   9.517   7.326
18414WAT      O55483   7.757   9.389   1.913
18414WAT     H155484   7.676   9.338   1.941
18414WAT     H255485   7.765   9.473   1.966
18415WAT      O55486   4.629   2.668   7.176
18415WAT     H155487   4.723   2.702   7.183
18415WAT     H255488   4.627   2.586   7.119
18416WAT      O55489   2.129   9.039   1.620
18416WAT     H155490   2.046   9.014   1.570
18416WAT     H255491   2.159   8.962   1.676
18417WAT      O55492   9.707   9.619   3.278
18417WAT     H155493   9.637   9.690   3.272
18417WAT     H255494   9.747   9.604   3.187
18418WAT      O55495   3.779   6.357   7.466
18418WAT     H155496   3.694   6.320   7.503
18418WAT     H255497   3.826   6.285   7.414
18419WAT      O55498   0.014   8.060   5.955
18419WAT     H155499  -0.032   8.062   6.043
18419WAT     H255500   0.106   8.098   5.964
18420WAT      O55501   1.713   9.093   5.008
18420WAT     H155502   1.726   9.157   4.932
18420WAT     H255503   1.751   9.133   5.092
18421WAT      O55504   0.714   4.510   4.714
18421WAT     H155505   0.638   4.516   4.779
18421WAT     H255506   0.691   4.443   4.643
18422WAT      O55507   5.799   6.953   3.661
18422WAT     H155508   5.779   6.964   3.563
18422WAT     H255509   5.894   6.925   3.672
18423WAT      O55510  -0.001   7.983   8.741
18423WAT     H155511   0.075   8.015   8.683
18423WAT     H255512   0.034   7.923   8.812
18424WAT      O55513   3.590   0.423   4.061
18424WAT     H155514   3.676   0.373   4.052
18424WAT     H255515   3.609   0.517   4.090
18425WAT      O55516   7.481   8.420   0.085
18425WAT     H155517   7.469   8.327   0.051
18425WAT     H255518   7.455   8.485   0.014
18426WAT      O55519   6.598   0.521   1.594
18426WAT     H155520   6.567   0.588   1.527
18426WAT     H255521   6.680   0.475   1.560
18427WAT      O55522   7.604   6.778   0.953
18427WAT     H155523   7.619   6.858   1.012
18427WAT     H255524   7.511   6.744   0.966
18428WAT      O55525   9.372   6.631   5.401
18428WAT     H155526   9.425   6.553   5.367
18428WAT     H255527   9.428   6.713   5.399
18429WAT      O55528   7.526   1.460   4.812
18429WAT     H155529   7.494   1.387   4.751
18429WAT     H255530   7.451   1.487   4.873
18430WAT      O55531   0.180   5.201   4.205
18430WAT     H155532   0.098   5.205   4.262
18430WAT     H255533   0.233   5.119   4.228
18431WAT      O55534   1.400   4.756   4.599
18431WAT     H155535   1.426   4.699   4.521
18431WAT     H255536   1.313   4.800   4.581
18432WAT      O55537   9.300   1.827   1.279
18432WAT     H155538   9.336   1.836   1.187
18432WAT     H255539   9.213   1.776   1.276
18433WAT      O55540   1.719   5.131   2.426
18433WAT     H155541   1.645   5.097   2.368
18433WAT     H255542   1.806   5.120   2.378
18434WAT      O55543   5.302   0.431   2.714
18434WAT     H155544   5.330   0.435   2.810
18434WAT     H255545   5.256   0.344   2.696
18435WAT      O55546   1.360   2.627   2.010
18435WAT     H155547   1.436   2.687   1.984
18435WAT     H255548   1.388   2.532   2.000
18436WAT      O55549   4.643   7.199   7.326
18436WAT     H155550   4.742   7.202   7.314
18436WAT     H255551   4.607   7.116   7.285
18437WAT      O55552   1.326   9.760   6.184
18437WAT     H155553   1.359   9.800   6.269
18437WAT     H255554   1.367   9.670   6.171
18438WAT      O55555   7.207   5.650   7.065
18438WAT     H155556   7.118   5.622   7.030
18438WAT     H255557   7.274   5.578   7.049
18439WAT      O55558   8.095   2.142   3.665
18439WAT     H155559   8.070   2.055   3.622
18439WAT     H255560   8.187   2.134   3.704
18440WAT      O55561   6.140   3.677   7.741
18440WAT     H155562   6.125   3.771   7.773
18440WAT     H255563   6.082   3.658   7.662
18441WAT      O55564   8.303   2.344   0.582
18441WAT     H155565   8.244   2.278   0.627
18441WAT     H255566   8.378   2.296   0.537
18442WAT      O55567   6.540   8.678   4.782
18442WAT     H155568   6.530   8.679   4.882
18442WAT     H255569   6.627   8.721   4.758
18443WAT      O55570   5.592   9.153   0.837
18443WAT     H155571   5.672   9.211   0.821
18443WAT     H255572   5.593   9.076   0.774
18444WAT      O55573   7.490   6.829   7.760
18444WAT     H155574   7.392   6.809   7.768
18444WAT     H255575   7.534   6.758   7.705
18445WAT      O55576   0.752   5.083   6.459
18445WAT     H155577   0.768   5.060   6.555
18445WAT     H255578   0.819   5.036   6.402
18446WAT      O55579   0.610   4.229   8.229
18446WAT     H155580   0.542   4.251   8.299
18446WAT     H255581   0.635   4.312   8.179
18447WAT      O55582   8.724   9.069   1.309
18447WAT     H155583   8.712   9.165   1.335
18447WAT     H255584   8.705   9.059   1.211
18448WAT      O55585   5.937   2.784   4.128
18448WAT     H155586   5.874   2.848   4.084
18448WAT     H255587   5.961   2.711   4.065
18449WAT      O55588   6.949   1.722   3.813
18449WAT     H155589   6.938   1.660   3.890
18449WAT     H255590   7.044   1.722   3.783
18450WAT      O55591   8.955   5.949   1.122
18450WAT     H155592   9.051   5.975   1.115
18450WAT     H255593   8.909   5.965   1.035
18451WAT      O55594   3.457   5.233   2.022
18451WAT     H155595   3.525   5.226   2.095
18451WAT     H255596   3.392   5.306   2.044
18452WAT      O55597   3.746   9.667   0.918
18452WAT     H155598   3.766   9.677   0.820
18452WAT     H255599   3.786   9.744   0.968
18453WAT      O55600   7.378   9.266   2.221
18453WAT     H155601   7.450   9.331   2.247
18453WAT     H255602   7.326   9.302   2.144
18454WAT      O55603   9.302   7.882   3.777
18454WAT     H155604   9.233   7.835   3.832
18454WAT     H255605   9.343   7.818   3.713
18455WAT      O55606   7.879   9.369   5.661
18455WAT     H155607   7.833   9.295   5.711
18455WAT     H255608   7.978   9.364   5.678
18456WAT      O55609   8.085   8.665   1.326
18456WAT     H155610   8.061   8.584   1.271
18456WAT     H255611   8.001   8.714   1.350
18457WAT      O55612   2.819   0.854   3.448
18457WAT     H155613   2.786   0.791   3.517
18457WAT     H255614   2.753   0.928   3.435
18458WAT      O55615   4.028   9.419   0.030
18458WAT     H155616   3.981   9.460  -0.048
18458WAT     H255617   3.962   9.399   0.103
18459WAT      O55618   2.339   1.911   8.260
18459WAT     H155619   2.247   1.906   8.299
18459WAT     H255620   2.380   1.820   8.260
18460WAT      O55621   1.674   9.781   0.498
18460WAT     H155622   1.664   9.814   0.591
18460WAT     H255623   1.685   9.860   0.436
18461WAT      O55624   5.796   2.300   5.716
18461WAT     H155625   5.766   2.241   5.641
18461WAT     H255626   5.848   2.245   5.782
18462WAT      O55627   4.808   9.793   8.163
18462WAT     H155628   4.903   9.765   8.147
18462WAT     H255629   4.807   9.886   8.199
18463WAT      O55630   2.550   0.273   0.472
18463WAT     H155631   2.620   0.234   0.531
18463WAT     H255632   2.560   0.235   0.380
18464WAT      O55633   9.019   7.671   0.921
18464WAT     H155634   9.084   7.740   0.888
18464WAT     H255635   8.946   7.660   0.854
18465WAT      O55636   0.237   8.658   8.306
18465WAT     H155637   0.305   8.719   8.265
18465WAT     H255638   0.162   8.644   8.241
18466WAT      O55639   8.529   0.291   8.652
18466WAT     H155640   8.477   0.221   8.700
18466WAT     H255641   8.470   0.368   8.630
18467WAT      O55642   6.195   5.054   0.341
18467WAT     H155643   6.262   5.082   0.272
18467WAT     H255644   6.105   5.043   0.298
18468WAT      O55645   5.833   4.620   1.223
18468WAT     H155646   5.865   4.649   1.313
18468WAT     H255647   5.749   4.567   1.233
18469WAT      O55648   8.554   2.766   7.703
18469WAT     H155649   8.548   2.855   7.656
18469WAT     H255650   8.650   2.741   7.715
18470WAT      O55651   3.687   2.750   7.937
18470WAT     H155652   3.779   2.777   7.968
18470WAT     H255653   3.679   2.765   7.839
18471WAT      O55654   2.382   5.925   8.538
18471WAT     H155655   2.363   5.842   8.486
18471WAT     H255656   2.307   5.990   8.527
18472WAT      O55657   6.257   4.867   7.379
18472WAT     H155658   6.344   4.818   7.378
18472WAT     H255659   6.182   4.802   7.391
18473WAT      O55660   2.956   7.579   5.186
18473WAT     H155661   2.896   7.625   5.251
18473WAT     H255662   2.903   7.552   5.105
18474WAT      O55663   8.819   3.696   9.500
18474WAT     H155664   8.788   3.662   9.412
18474WAT     H255665   8.740   3.722   9.556
18475WAT      O55666   4.078   7.115   5.181
18475WAT     H155667   4.130   7.132   5.097
18475WAT     H255668   3.980   7.115   5.159
18476WAT      O55669   6.092   7.863   9.437
18476WAT     H155670   6.134   7.776   9.413
18476WAT     H255671   6.001   7.847   9.476
18477WAT      O55672   2.756   3.938   6.620
18477WAT     H155673   2.848   3.960   6.586
18477WAT     H255674   2.687   3.972   6.556
18478WAT      O55675   9.258   9.237   8.611
18478WAT     H155676   9.162   9.221   8.634
18478WAT     H255677   9.280   9.333   8.627
18479WAT      O55678   7.355   0.751   3.731
18479WAT     H155679   7.435   0.808   3.712
18479WAT     H255680   7.277   0.785   3.679
18480WAT      O55681   6.328   2.052   5.548
18480WAT     H155682   6.252   2.002   5.505
18480WAT     H255683   6.413   2.032   5.499
18481WAT      O55684   1.642   7.353   1.190
18481WAT     H155685   1.720   7.302   1.154
18481WAT     H255686   1.577   7.371   1.117
18482WAT      O55687   6.256   6.618   4.804
18482WAT     H155688   6.288   6.610   4.710
18482WAT     H255689   6.281   6.707   4.841
18483WAT      O55690   1.109   3.180   2.644
18483WAT     H155691   1.186   3.119   2.666
18483WAT     H255692   1.024   3.127   2.644
18484WAT      O55693   7.908   6.641   1.924
18484WAT     H155694   7.846   6.707   1.882
18484WAT     H255695   7.870   6.610   2.011
18485WAT      O55696   9.401   3.784   8.259
18485WAT     H155697   9.369   3.714   8.194
18485WAT     H255698   9.499   3.797   8.248
18486WAT      O55699   7.866   8.421   9.426
18486WAT     H155700   7.893   8.444   9.520
18486WAT     H255701   7.943   8.377   9.380
18487WAT      O55702   9.643   0.172   5.226
18487WAT     H155703   9.730   0.221   5.223
18487WAT     H255704   9.571   0.228   5.185
18488WAT      O55705   1.630   6.830   0.997
18488WAT     H155706   1.697   6.756   1.008
18488WAT     H255707   1.582   6.844   1.084
18489WAT      O55708   7.657   2.772   6.786
18489WAT     H155709   7.727   2.749   6.853
18489WAT     H255710   7.685   2.855   6.737
18490WAT      O55711   3.141   8.968   5.331
18490WAT     H155712   3.118   8.956   5.427
18490WAT     H255713   3.121   9.062   5.303
18491WAT      O55714   0.623   1.344   8.380
18491WAT     H155715   0.528   1.316   8.364
18491WAT     H255716   0.675   1.337   8.295
18492WAT      O55717   3.562   1.968   1.915
18492WAT     H155718   3.638   2.011   1.964
18492WAT     H255719   3.594   1.937   1.825
18493WAT      O55720   5.133   0.926   0.541
18493WAT     H155721   5.168   1.019   0.528
18493WAT     H255722   5.083   0.898   0.459
18494WAT      O55723   2.957   4.216   1.607
18494WAT     H155724   2.993   4.127   1.578
18494WAT     H255725   3.031   4.283   1.610
18495WAT      O55726   4.571   6.447   9.085
18495WAT     H155727   4.558   6.527   9.143
18495WAT     H255728   4.572   6.364   9.142
18496WAT      O55729   3.739   1.254   9.561
18496WAT     H155730   3.833   1.253   9.527
18496WAT     H255731   3.702   1.161   9.559
18497WAT      O55732   6.934   6.685   1.466
18497WAT     H155733   6.941   6.589   1.438
18497WAT     H255734   6.883   6.736   1.397
18498WAT      O55735   3.090   6.303   3.481
18498WAT     H155736   3.127   6.231   3.541
18498WAT     H255737   3.127   6.391   3.509
18499WAT      O55738   9.414   4.786   9.390
18499WAT     H155739   9.473   4.787   9.310
18499WAT     H255740   9.466   4.814   9.471
18500WAT      O55741   5.492   5.810   9.798
18500WAT     H155742   5.591   5.814   9.783
18500WAT     H255743   5.445   5.838   9.714
18501WAT      O55744   7.769   8.174   0.537
18501WAT     H155745   7.691   8.112   0.549
18501WAT     H255746   7.796   8.174   0.441
18502WAT      O55747   5.547   5.716   3.136
18502WAT     H155748   5.472   5.724   3.202
18502WAT     H255749   5.634   5.732   3.182
18503WAT      O55750   6.315   5.231   7.853
18503WAT     H155751   6.346   5.325   7.837
18503WAT     H255752   6.217   5.232   7.874
18504WAT      O55753   6.086   5.834   4.907
18504WAT     H155754   6.132   5.895   4.972
18504WAT     H255755   6.113   5.740   4.925
18505WAT      O55756   8.540   5.772   9.396
18505WAT     H155757   8.501   5.726   9.316
18505WAT     H255758   8.479   5.758   9.474
18506WAT      O55759   7.734   9.497   0.494
18506WAT     H155760   7.697   9.479   0.585
18506WAT     H255761   7.711   9.590   0.466
18507WAT      O55762   1.952   0.337   4.557
18507WAT     H155763   1.968   0.365   4.462
18507WAT     H255764   1.885   0.263   4.559
18508WAT      O55765   0.213   4.872   6.022
18508WAT     H155766   0.298   4.921   6.002
18508WAT     H255767   0.161   4.922   6.092
18509WAT      O55768   0.498   4.430   3.181
18509WAT     H155769   0.417   4.473   3.141
18509WAT     H255770   0.580   4.470   3.141
18510WAT      O55771   3.395   6.331   3.868
18510WAT     H155772   3.484   6.302   3.832
18510WAT     H255773   3.406   6.414   3.922
18511WAT      O55774   1.575   1.184   0.419
18511WAT     H155775   1.606   1.090   0.424
18511WAT     H255776   1.593   1.220   0.327
18512WAT      O55777   0.642   4.383   1.068
18512WAT     H155778   0.585   4.457   1.031
18512WAT     H255779   0.718   4.422   1.120
18513WAT      O55780   0.979   1.681   4.949
18513WAT     H155781   1.057   1.720   4.999
18513WAT     H255782   0.922   1.755   4.913
18514WAT      O55783   7.397   8.149   0.453
18514WAT     H155784   7.426   8.118   0.543
18514WAT     H255785   7.302   8.120   0.437
18515WAT      O55786   6.008   7.879   3.369
18515WAT     H155787   5.927   7.921   3.329
18515WAT     H255788   6.021   7.913   3.462
18516WAT      O55789   6.648   2.271   7.945
18516WAT     H155790   6.649   2.177   7.909
18516WAT     H255791   6.637   2.269   8.044
18517WAT      O55792   2.581   3.717   3.765
18517WAT     H155793   2.602   3.619   3.757
18517WAT     H255794   2.522   3.732   3.844
18518WAT      O55795   1.254   8.348   7.459
18518WAT     H155796   1.244   8.323   7.363
18518WAT     H255797   1.171   8.396   7.490
18519WAT      O55798   4.609   8.228   3.965
18519WAT     H155799   4.695   8.268   3.932
18519WAT     H255800   4.620   8.197   4.059
18520WAT      O55801   4.498   6.842   4.341
18520WAT     H155802   4.447   6.776   4.285
18520WAT     H255803   4.544   6.793   4.415
18521WAT      O55804   3.023   5.998   3.145
18521WAT     H155805   2.992   6.056   3.220
18521WAT     H255806   3.103   5.945   3.175
18522WAT      O55807   8.775   6.766   8.296
18522WAT     H155808   8.774   6.788   8.198
18522WAT     H255809   8.784   6.850   8.349
18523WAT      O55810   2.852   6.386   0.737
18523WAT     H155811   2.894   6.440   0.664
18523WAT     H255812   2.923   6.333   0.784
18524WAT      O55813   2.020   8.146   7.393
18524WAT     H155814   1.985   8.053   7.399
18524WAT     H255815   2.120   8.145   7.396
18525WAT      O55816   9.265   1.768   6.898
18525WAT     H155817   9.236   1.864   6.908
18525WAT     H255818   9.282   1.748   6.802
18526WAT      O55819   3.586   1.899   6.413
18526WAT     H155820   3.515   1.920   6.346
18526WAT     H255821   3.620   1.806   6.398
18527WAT      O55822   9.097   0.063   6.044
18527WAT     H155823   9.114  -0.030   6.077
18527WAT     H255824   9.010   0.065   5.994
18528WAT      O55825   9.466   1.706   7.493
18528WAT     H155826   9.407   1.764   7.437
18528WAT     H255827   9.555   1.751   7.504
18529WAT      O55828   5.172   7.713   5.856
18529WAT     H155829   5.090   7.750   5.900
18529WAT     H255830   5.253   7.761   5.892
18530WAT      O55831   0.093   6.348   8.039
18530WAT     H155832   0.016   6.370   7.980
18530WAT     H255833   0.131   6.260   8.013
18531WAT      O55834   7.156   4.791   9.202
18531WAT     H155835   7.156   4.842   9.288
18531WAT     H255836   7.172   4.854   9.126
18532WAT      O55837   6.155   0.909   7.711
18532WAT     H155838   6.150   0.819   7.754
18532WAT     H255839   6.237   0.915   7.655
18533WAT      O55840   7.462   3.176   7.897
18533WAT     H155841   7.467   3.261   7.845
18533WAT     H255842   7.525   3.109   7.857
18534WAT      O55843   9.717   4.131   7.502
18534WAT     H155844   9.802   4.135   7.450
18534WAT     H255845   9.737   4.146   7.599
18535WAT      O55846   7.665   4.140   5.351
18535WAT     H155847   7.684   4.238   5.354
18535WAT     H255848   7.582   4.123   5.298
18536WAT      O55849   6.154   1.307   1.066
18536WAT     H155850   6.171   1.276   1.159
18536WAT     H255851   6.138   1.229   1.006
18537WAT      O55852   8.479   2.432   2.150
18537WAT     H155853   8.432   2.448   2.237
18537WAT     H255854   8.538   2.351   2.158
18538WAT      O55855   9.888   3.666   2.978
18538WAT     H155856   9.891   3.569   2.956
18538WAT     H255857   9.793   3.693   2.994
18539WAT      O55858   5.022   2.297   0.558
18539WAT     H155859   5.109   2.336   0.587
18539WAT     H255860   4.952   2.369   0.557
18540WAT      O55861   3.317   1.431   8.432
18540WAT     H155862   3.230   1.391   8.404
18540WAT     H255863   3.380   1.428   8.355
18541WAT      O55864   7.418   9.266   6.144
18541WAT     H155865   7.507   9.297   6.179
18541WAT     H255866   7.358   9.345   6.133
18542WAT      O55867   9.715   6.080   3.534
18542WAT     H155868   9.793   6.023   3.559
18542WAT     H255869   9.745   6.175   3.525
18543WAT      O55870   7.883   3.807   6.217
18543WAT     H155871   7.842   3.802   6.126
18543WAT     H255872   7.923   3.718   6.241
18544WAT      O55873   2.365   7.578   0.686
18544WAT     H155874   2.361   7.650   0.617
18544WAT     H255875   2.284   7.582   0.744
18545WAT      O55876   0.709   9.381   7.313
18545WAT     H155877   0.740   9.462   7.263
18545WAT     H255878   0.748   9.299   7.271
18546WAT      O55879   7.837   3.901   5.736
18546WAT     H155880   7.879   3.918   5.825
18546WAT     H255881   7.884   3.825   5.691
18547WAT      O55882   6.134   0.097   5.406
18547WAT     H155883   6.084   0.137   5.329
18547WAT     H255884   6.232   0.102   5.388
18548WAT      O55885   9.206   2.233   7.079
18548WAT     H155886   9.113   2.215   7.112
18548WAT     H255887   9.202   2.287   6.995
18549WAT      O55888   6.558   9.406   9.034
18549WAT     H155889   6.502   9.336   9.078
18549WAT     H255890   6.512   9.494   9.040
18550WAT      O55891   0.341   6.004   9.302
18550WAT     H155892   0.427   6.036   9.264
18550WAT     H255893   0.345   5.905   9.314
18551WAT      O55894   9.616   2.899   4.919
18551WAT     H155895   9.540   2.854   4.872
18551WAT     H255896   9.697   2.897   4.861
18552WAT      O55897   1.813   0.118   9.005
18552WAT     H155898   1.728   0.102   9.055
18552WAT     H255899   1.887   0.138   9.069
18553WAT      O55900   8.629   8.713   0.273
18553WAT     H155901   8.642   8.740   0.369
18553WAT     H255902   8.680   8.630   0.255
18554WAT      O55903   4.711   5.948   1.040
18554WAT     H155904   4.674   5.866   1.083
18554WAT     H255905   4.810   5.951   1.051
18555WAT      O55906   6.147   2.496   6.352
18555WAT     H155907   6.207   2.504   6.272
18555WAT     H255908   6.182   2.555   6.426
18556WAT      O55909   0.545   3.802   3.841
18556WAT     H155910   0.496   3.873   3.891
18556WAT     H255911   0.521   3.712   3.879
18557WAT      O55912   6.392   8.047   9.003
18557WAT     H155913   6.345   8.084   8.924
18557WAT     H255914   6.387   8.112   9.079
18558WAT      O55915   3.341   5.755   6.892
18558WAT     H155916   3.408   5.774   6.963
18558WAT     H255917   3.372   5.794   6.805
18559WAT      O55918   8.263   4.266   9.203
18559WAT     H155919   8.329   4.328   9.246
18559WAT     H255920   8.312   4.200   9.146
18560WAT      O55921   3.281   6.599   9.843
18560WAT     H155922   3.283   6.687   9.890
18560WAT     H255923   3.371   6.578   9.807
18561WAT      O55924   8.005   6.475   8.287
18561WAT     H155925   7.937   6.449   8.219
18561WAT     H255926   8.015   6.575   8.288
18562WAT      O55927   2.372   4.600   6.124
18562WAT     H155928   2.445   4.574   6.060
18562WAT     H255929   2.311   4.523   6.139
18563WAT      O55930   3.099   3.503   4.150
18563WAT     H155931   3.094   3.414   4.197
18563WAT     H255932   3.045   3.499   4.066
18564WAT      O55933   6.982   7.976   3.876
18564WAT     H155934   7.031   7.959   3.962
18564WAT     H255935   7.046   7.968   3.799
18565WAT      O55936   3.590   6.007   4.370
18565WAT     H155937   3.669   5.979   4.316
18565WAT     H255938   3.515   5.942   4.355
18566WAT      O55939   6.329   4.101   1.954
18566WAT     H155940   6.291   4.129   2.042
18566WAT     H255941   6.277   4.023   1.919
18567WAT      O55942   8.697   6.530   8.383
18567WAT     H155943   8.602   6.544   8.414
18567WAT     H255944   8.739   6.618   8.364
18568WAT      O55945   9.218   0.532   0.393
18568WAT     H155946   9.239   0.617   0.441
18568WAT     H255947   9.119   0.526   0.380
18569WAT      O55948   0.326   1.363   8.099
18569WAT     H155949   0.295   1.429   8.167
18569WAT     H255950   0.420   1.385   8.071
18570WAT      O55951   4.943   9.374   0.672
18570WAT     H155952   4.882   9.395   0.748
18570WAT     H255953   5.012   9.446   0.664
18571WAT      O55954   9.212   4.219   4.237
18571WAT     H155955   9.150   4.174   4.301
18571WAT     H255956   9.210   4.317   4.251
18572WAT      O55957   1.643   2.523   6.570
18572WAT     H155958   1.576   2.451   6.554
18572WAT     H255959   1.621   2.571   6.655
18573WAT      O55960   4.943   4.948   6.271
18573WAT     H155961   4.916   4.860   6.232
18573WAT     H255962   5.006   4.994   6.208
18574WAT      O55963   1.682   4.591   2.841
18574WAT     H155964   1.727   4.657   2.781
18574WAT     H255965   1.709   4.498   2.814
18575WAT      O55966   8.542   3.967   6.464
18575WAT     H155967   8.632   3.937   6.433
18575WAT     H255968   8.542   3.980   6.563
18576WAT      O55969   7.474   7.431   0.171
18576WAT     H155970   7.488   7.503   0.103
18576WAT     H255971   7.480   7.342   0.125
18577WAT      O55972   1.766   6.953   6.204
18577WAT     H155973   1.771   6.953   6.104
18577WAT     H255974   1.739   6.862   6.236
18578WAT      O55975   4.758   0.781   2.881
18578WAT     H155976   4.787   0.833   2.961
18578WAT     H255977   4.768   0.838   2.799
18579WAT      O55978   3.901   8.002   5.193
18579WAT     H155979   3.815   7.976   5.236
18579WAT     H255980   3.926   7.934   5.123
18580WAT      O55981   9.425   6.113   3.866
18580WAT     H155982   9.498   6.182   3.859
18580WAT     H255983   9.371   6.112   3.782
18581WAT      O55984   2.784   3.116   3.696
18581WAT     H155985   2.840   3.198   3.710
18581WAT     H255986   2.727   3.101   3.776
18582WAT      O55987   6.026   9.096   4.541
18582WAT     H155988   5.932   9.087   4.574
18582WAT     H255989   6.081   9.141   4.611
18583WAT      O55990   9.453   6.748   8.488
18583WAT     H155991   9.380   6.767   8.422
18583WAT     H255992   9.413   6.708   8.570
18584WAT      O55993   5.757   2.485   1.665
18584WAT     H155994   5.706   2.535   1.594
18584WAT     H255995   5.704   2.406   1.695
18585WAT      O55996   6.277   4.427   5.292
18585WAT     H155997   6.186   4.443   5.252
18585WAT     H255998   6.347   4.440   5.223
18586WAT      O55999   4.663   7.493   3.914
18586WAT     H156000   4.596   7.533   3.978
18586WAT     H256001   4.699   7.566   3.856
18587WAT      O56002   0.618   6.136   4.621
18587WAT     H156003   0.702   6.128   4.675
18587WAT     H256004   0.589   6.232   4.619
18588WAT      O56005   5.913   5.813   5.407
18588WAT     H156006   5.914   5.912   5.422
18588WAT     H256007   5.909   5.767   5.496
18589WAT      O56008   6.625   2.142   5.868
18589WAT     H156009   6.661   2.150   5.961
18589WAT     H256010   6.697   2.105   5.808
18590WAT      O56011   1.945   7.361   0.054
18590WAT     H156012   1.854   7.332   0.025
18590WAT     H256013   1.966   7.451   0.016
18591WAT      O56014   7.709   7.735   5.638
18591WAT     H156015   7.788   7.690   5.682
18591WAT     H256016   7.638   7.666   5.620
18592WAT      O56017   5.839   1.788   4.948
18592WAT     H156018   5.784   1.793   4.864
18592WAT     H256019   5.801   1.851   5.016
18593WAT      O56020   8.573   7.830   4.638
18593WAT     H156021   8.600   7.755   4.577
18593WAT     H256022   8.655   7.879   4.669
18594WAT      O56023   3.470   0.814   5.576
18594WAT     H156024   3.504   0.730   5.534
18594WAT     H256025   3.373   0.804   5.595
18595WAT      O56026   0.802   9.062   0.749
18595WAT     H156027   0.706   9.079   0.773
18595WAT     H256028   0.818   9.093   0.655
18596WAT      O56029   0.824   5.502   2.607
18596WAT     H156030   0.728   5.527   2.618
18596WAT     H256031   0.831   5.418   2.552
18597WAT      O56032   8.162   4.337   6.414
18597WAT     H156033   8.244   4.394   6.422
18597WAT     H256034   8.084   4.383   6.457
18598WAT      O56035   8.992   1.651   9.706
18598WAT     H156036   8.999   1.647   9.607
18598WAT     H256037   9.055   1.585   9.747
18599WAT      O56038   3.441   9.063   5.542
18599WAT     H156039   3.382   9.142   5.563
18599WAT     H256040   3.460   9.013   5.626
18600WAT      O56041   9.403   1.110   8.607
18600WAT     H156042   9.367   1.117   8.700
18600WAT     H256043   9.330   1.084   8.545
18601WAT      O56044   3.462   6.494   4.652
18601WAT     H156045   3.393   6.436   4.695
18601WAT     H256046   3.417   6.567   4.600
18602WAT      O56047   7.492   5.449   4.619
18602WAT     H156048   7.450   5.364   4.650
18602WAT     H256049   7.520   5.440   4.524
18603WAT      O56050   6.451   7.714   3.728
18603WAT     H156051   6.461   7.805   3.688
18603WAT     H256052   6.375   7.667   3.684
18604WAT      O56053   2.974   6.314   3.961
18604WAT     H156054   3.044   6.324   4.032
18604WAT     H256055   3.013   6.268   3.882
18605WAT      O56056   3.676   8.013   9.883
18605WAT     H156057   3.677   8.112   9.874
18605WAT     H256058   3.728   7.986   9.965
18606WAT      O56059   2.216   1.153   1.024
18606WAT     H156060   2.149   1.082   1.005
18606WAT     H256061   2.183   1.241   0.988
18607WAT      O56062   2.641   8.194   4.534
18607WAT     H156063   2.686   8.229   4.617
18607WAT     H256064   2.656   8.258   4.459
18608WAT      O56065   4.679   6.664   9.704
18608WAT     H156066   4.667   6.576   9.659
18608WAT     H256067   4.654   6.738   9.642
18609WAT      O56068   6.848   2.758   6.541
18609WAT     H156069   6.785   2.757   6.618
18609WAT     H256070   6.809   2.707   6.465
18610WAT      O56071   1.953   6.780   5.378
18610WAT     H156072   1.993   6.869   5.357
18610WAT     H256073   2.026   6.715   5.398
18611WAT      O56074   8.688   9.013   0.275
18611WAT     H156075   8.687   8.969   0.365
18611WAT     H256076   8.637   8.957   0.210
18612WAT      O56077   7.627   4.836   7.337
18612WAT     H156078   7.572   4.834   7.254
18612WAT     H256079   7.578   4.791   7.411
18613WAT      O56080   5.402   8.281   9.444
18613WAT     H156081   5.350   8.200   9.415
18613WAT     H256082   5.340   8.348   9.485
18614WAT      O56083   8.680   3.158   2.060
18614WAT     H156084   8.692   3.248   2.019
18614WAT     H256085   8.598   3.115   2.023
18615WAT      O56086   4.493   5.827   3.574
18615WAT     H156087   4.588   5.845   3.547
18615WAT     H256088   4.480   5.729   3.586
18616WAT      O56089   5.025   1.551   8.249
18616WAT     H156090   4.939   1.601   8.264
18616WAT     H256091   5.093   1.613   8.209
18617WAT      O56092   8.975   9.010   3.613
18617WAT     H156093   8.980   9.106   3.582
18617WAT     H256094   9.005   9.004   3.708
18618WAT      O56095   9.460   2.675   2.965
18618WAT     H156096   9.386   2.608   2.959
18618WAT     H256097   9.461   2.715   3.056
18619WAT      O56098   9.438   0.866   7.094
18619WAT     H156099   9.419   0.866   7.192
18619WAT     H256100   9.529   0.828   7.078
18620WAT      O56101   4.664   4.628   7.298
18620WAT     H156102   4.705   4.540   7.275
18620WAT     H256103   4.631   4.624   7.393
18621WAT      O56104   0.119   8.436   5.322
18621WAT     H156105   0.122   8.422   5.223
18621WAT     H256106   0.038   8.489   5.346
18622WAT      O56107   2.425   1.056   6.962
18622WAT     H156108   2.400   1.151   6.982
18622WAT     H256109   2.481   1.021   7.038
18623WAT      O56110   3.284   8.548   0.666
18623WAT     H156111   3.384   8.550   0.669
18623WAT     H256112   3.252   8.620   0.605
18624WAT      O56113   3.815   0.808   2.643
18624WAT     H156114   3.871   0.865   2.583
18624WAT     H256115   3.751   0.866   2.693
18625WAT      O56116   3.676   6.048   6.470
18625WAT     H156117   3.675   6.041   6.370
18625WAT     H256118   3.661   6.142   6.497
18626WAT      O56119   2.411   6.169   0.678
18626WAT     H156120   2.492   6.147   0.622
18626WAT     H256121   2.345   6.094   0.671
18627WAT      O56122   0.171   5.839   2.040
18627WAT     H156123   0.117   5.916   2.008
18627WAT     H256124   0.266   5.867   2.052
18628WAT      O56125   8.021   7.669   2.004
18628WAT     H156126   8.024   7.626   1.915
18628WAT     H256127   8.060   7.761   1.998
18629WAT      O56128   6.257   1.916   1.714
18629WAT     H156129   6.170   1.953   1.744
18629WAT     H256130   6.326   1.988   1.715
18630WAT      O56131   4.915   5.566   5.418
18630WAT     H156132   4.944   5.656   5.450
18630WAT     H256133   4.888   5.572   5.322
18631WAT      O56134   7.736   5.447   2.780
18631WAT     H156135   7.680   5.487   2.853
18631WAT     H256136   7.739   5.347   2.791
18632WAT      O56137   3.848   0.853   5.123
18632WAT     H156138   3.863   0.763   5.082
18632WAT     H256139   3.844   0.922   5.051
18633WAT      O56140   4.623   9.641   8.892
18633WAT     H156141   4.677   9.637   8.808
18633WAT     H256142   4.532   9.602   8.874
18634WAT      O56143   8.997   3.506   7.523
18634WAT     H156144   8.932   3.569   7.567
18634WAT     H256145   8.947   3.433   7.477
18635WAT      O56146   7.534   8.206   6.231
18635WAT     H156147   7.503   8.251   6.147
18635WAT     H256148   7.554   8.275   6.300
18636WAT      O56149   4.156   0.194   7.630
18636WAT     H156150   4.209   0.228   7.708
18636WAT     H256151   4.217   0.145   7.567
18637WAT      O56152   0.066   8.713   9.151
18637WAT     H156153   0.020   8.802   9.154
18637WAT     H256154   0.019   8.650   9.212
18638WAT      O56155   3.358   0.440   0.040
18638WAT     H156156   3.276   0.466   0.093
18638WAT     H256157   3.394   0.521  -0.007
18639WAT      O56158   8.922   7.754   3.520
18639WAT     H156159   8.906   7.672   3.464
18639WAT     H256160   8.949   7.726   3.612
18640WAT      O56161   6.835   0.286   7.141
18640WAT     H156162   6.920   0.302   7.190
18640WAT     H256163   6.791   0.203   7.176
18641WAT      O56164   5.884   1.128   8.147
18641WAT     H156165   5.873   1.061   8.221
18641WAT     H256166   5.795   1.145   8.105
18642WAT      O56167   5.740   8.672   8.574
18642WAT     H156168   5.745   8.756   8.520
18642WAT     H256169   5.830   8.627   8.575
18643WAT      O56170   9.678   9.186   5.579
18643WAT     H156171   9.759   9.213   5.528
18643WAT     H256172   9.647   9.263   5.636
18644WAT      O56173   6.555   2.938   5.940
18644WAT     H156174   6.483   2.988   5.989
18644WAT     H256175   6.537   2.940   5.842
18645WAT      O56176   6.857   1.465   5.987
18645WAT     H156177   6.931   1.441   6.050
18645WAT     H256178   6.895   1.479   5.895
18646WAT      O56179   8.825   0.590   5.025
18646WAT     H156180   8.766   0.605   4.945
18646WAT     H256181   8.831   0.492   5.043
18647WAT      O56182   8.632   9.806   1.235
18647WAT     H156183   8.714   9.858   1.212
18647WAT     H256184   8.551   9.853   1.200
18648WAT      O56185   8.600   0.181   0.877
18648WAT     H156186   8.559   0.245   0.942
18648WAT     H256187   8.581   0.211   0.784
18649WAT      O56188   6.540   0.785   3.646
18649WAT     H156189   6.522   0.811   3.552
18649WAT     H256190   6.633   0.814   3.672
18650WAT      O56191   6.811   0.245   6.634
18650WAT     H156192   6.816   0.305   6.554
18650WAT     H256193   6.833   0.297   6.716
18651WAT      O56194   3.269   4.002   1.742
18651WAT     H156195   3.255   4.069   1.814
18651WAT     H256196   3.365   3.973   1.741
18652WAT      O56197   1.679   3.457   0.425
18652WAT     H156198   1.657   3.550   0.452
18652WAT     H256199   1.700   3.403   0.507
18653WAT      O56200   6.005   8.260   5.625
18653WAT     H156201   6.056   8.286   5.543
18653WAT     H256202   5.908   8.255   5.603
18654WAT      O56203   0.585   6.734   0.019
18654WAT     H156204   0.668   6.753  -0.034
18654WAT     H256205   0.522   6.811   0.011
18655WAT      O56206   6.568   5.273   8.503
18655WAT     H156207   6.547   5.322   8.587
18655WAT     H256208   6.555   5.333   8.424
18656WAT      O56209   3.712   2.931   9.098
18656WAT     H156210   3.643   2.966   9.162
18656WAT     H256211   3.710   2.831   9.098
18657WAT      O56212   3.176   4.552   1.177
18657WAT     H156213   3.092   4.605   1.192
18657WAT     H256214   3.219   4.581   1.092
18658WAT      O56215   4.938   0.346   7.041
18658WAT     H156216   4.972   0.390   6.957
18658WAT     H256217   4.976   0.393   7.120
18659WAT      O56218   6.961   6.888   0.091
18659WAT     H156219   6.953   6.795   0.125
18659WAT     H256220   6.957   6.952   0.168
18660WAT      O56221   6.198   1.082   0.898
18660WAT     H156222   6.142   1.000   0.910
18660WAT     H256223   6.169   1.132   0.817
18661WAT      O56224   0.173   8.879   7.056
18661WAT     H156225   0.100   8.814   7.079
18661WAT     H256226   0.198   8.868   6.960
18662WAT      O56227   6.952   7.099   5.184
18662WAT     H156228   6.885   7.157   5.231
18662WAT     H256229   7.021   7.157   5.139
18663WAT      O56230   6.998   3.727   4.684
18663WAT     H156231   6.982   3.774   4.771
18663WAT     H256232   6.999   3.628   4.698
18664WAT      O56233   8.093   1.252   7.402
18664WAT     H156234   8.007   1.256   7.453
18664WAT     H256235   8.117   1.344   7.371
18665WAT      O56236   0.862   5.936   7.014
18665WAT     H156237   0.862   5.981   6.924
18665WAT     H256238   0.852   6.004   7.086
18666WAT      O56239   0.884   2.743   7.175
18666WAT     H156240   0.944   2.752   7.254
18666WAT     H256241   0.927   2.683   7.107
18667WAT      O56242   7.517   4.353   3.679
18667WAT     H156243   7.510   4.266   3.728
18667WAT     H256244   7.436   4.364   3.621
18668WAT      O56245   2.459   9.469   5.614
18668WAT     H156246   2.558   9.478   5.610
18668WAT     H256247   2.421   9.481   5.522
18669WAT      O56248   8.455   5.844   3.927
18669WAT     H156249   8.389   5.866   3.998
18669WAT     H256250   8.409   5.791   3.855
18670WAT      O56251   1.687   9.159   2.949
18670WAT     H156252   1.589   9.142   2.947
18670WAT     H256253   1.705   9.242   3.002
18671WAT      O56254   3.272   2.299   5.862
18671WAT     H156255   3.351   2.302   5.923
18671WAT     H256256   3.273   2.213   5.811
18672WAT      O56257   9.257   5.107   9.525
18672WAT     H156258   9.354   5.085   9.518
18672WAT     H256259   9.242   5.167   9.603
18673WAT      O56260   8.756   5.088   0.969
18673WAT     H156261   8.795   5.140   1.045
18673WAT     H256262   8.683   5.141   0.927
18674WAT      O56263   3.026   0.218   9.486
18674WAT     H156264   2.995   0.178   9.572
18674WAT     H256265   3.061   0.145   9.426
18675WAT      O56266   4.148   0.595   1.951
18675WAT     H156267   4.233   0.576   1.902
18675WAT     H256268   4.162   0.671   2.014
18676WAT      O56269   8.445   9.381   8.693
18676WAT     H156270   8.497   9.423   8.618
18676WAT     H256271   8.405   9.295   8.661
18677WAT      O56272   4.822   7.909   3.380
18677WAT     H156273   4.741   7.900   3.322
18677WAT     H256274   4.833   8.005   3.407
18678WAT      O56275   8.282   5.135   3.241
18678WAT     H156276   8.341   5.058   3.265
18678WAT     H256277   8.336   5.208   3.201
18679WAT      O56278   0.492   7.976   5.941
18679WAT     H156279   0.547   7.915   5.884
18679WAT     H256280   0.455   7.925   6.019
18680WAT      O56281   8.887   6.127   3.082
18680WAT     H156282   8.891   6.167   2.991
18680WAT     H256283   8.974   6.140   3.128
18681WAT      O56284   0.287   2.147   4.738
18681WAT     H156285   0.236   2.191   4.664
18681WAT     H256286   0.384   2.171   4.729
18682WAT      O56287   7.133   6.156   9.784
18682WAT     H156288   7.182   6.163   9.697
18682WAT     H256289   7.035   6.162   9.768
18683WAT      O56290   6.950   9.337   1.796
18683WAT     H156291   6.939   9.270   1.722
18683WAT     H256292   6.866   9.390   1.805
18684WAT      O56293   2.766   6.365   9.013
18684WAT     H156294   2.682   6.418   9.013
18684WAT     H256295   2.746   6.272   9.044
18685WAT      O56296   1.018   1.813   7.123
18685WAT     H156297   0.930   1.823   7.076
18685WAT     H256298   1.002   1.806   7.222
18686WAT      O56299   8.351   1.190   3.235
18686WAT     H156300   8.428   1.250   3.258
18686WAT     H256301   8.300   1.230   3.159
18687WAT      O56302   7.961   3.521   1.783
18687WAT     H156303   7.903   3.439   1.778
18687WAT     H256304   7.948   3.565   1.872
18688WAT      O56305   9.178   8.883   9.700
18688WAT     H156306   9.270   8.865   9.666
18688WAT     H256307   9.151   8.811   9.764
18689WAT      O56308   7.332   8.541   3.982
18689WAT     H156309   7.275   8.468   4.018
18689WAT     H256310   7.362   8.518   3.889
18690WAT      O56311   9.248   7.380   2.285
18690WAT     H156312   9.331   7.385   2.341
18690WAT     H256313   9.253   7.447   2.212
18691WAT      O56314   4.931   3.342   1.097
18691WAT     H156315   4.891   3.433   1.091
18691WAT     H256316   4.929   3.311   1.192
18692WAT      O56317   4.321   6.857   0.217
18692WAT     H156318   4.345   6.820   0.306
18692WAT     H256319   4.378   6.815   0.146
18693WAT      O56320   0.342   8.557   2.688
18693WAT     H156321   0.385   8.500   2.619
18693WAT     H256322   0.311   8.500   2.764
18694WAT      O56323   5.878   5.826   6.031
18694WAT     H156324   5.833   5.738   6.019
18694WAT     H256325   5.972   5.812   6.063
18695WAT      O56326   4.901   1.358   2.390
18695WAT     H156327   4.852   1.273   2.374
18695WAT     H256328   4.950   1.386   2.307
18696WAT      O56329   3.060   5.710   4.553
18696WAT     H156330   3.061   5.797   4.603
18696WAT     H256331   3.060   5.634   4.618
18697WAT      O56332   6.531   7.018   5.657
18697WAT     H156333   6.470   7.078   5.606
18697WAT     H256334   6.510   6.923   5.635
18698WAT      O56335   1.989   6.041   1.417
18698WAT     H156336   2.076   5.999   1.443
18698WAT     H256337   2.005   6.131   1.377
18699WAT      O56338   9.536   9.228   8.242
18699WAT     H156339   9.591   9.295   8.291
18699WAT     H256340   9.594   9.153   8.212
18700WAT      O56341   5.568   4.731   1.560
18700WAT     H156342   5.619   4.738   1.646
18700WAT     H256343   5.605   4.656   1.505
18701WAT      O56344   0.539   8.065   8.078
18701WAT     H156345   0.439   8.065   8.075
18701WAT     H256346   0.575   8.025   7.994
18702WAT      O56347   0.599   9.109   0.238
18702WAT     H156348   0.551   9.196   0.227
18702WAT     H256349   0.681   9.108   0.180
18703WAT      O56350   6.313   3.068   7.737
18703WAT     H156351   6.297   3.050   7.639
18703WAT     H256352   6.257   3.145   7.766
18704WAT      O56353   6.454   9.133   4.451
18704WAT     H156354   6.487   9.146   4.544
18704WAT     H256355   6.477   9.041   4.420
18705WAT      O56356   9.239   3.969   5.687
18705WAT     H156357   9.262   4.000   5.594
18705WAT     H256358   9.316   3.920   5.726
18706WAT      O56359   2.717   6.396   5.637
18706WAT     H156360   2.681   6.423   5.548
18706WAT     H256361   2.670   6.313   5.668
18707WAT      O56362   2.992   3.703   7.192
18707WAT     H156363   3.018   3.633   7.258
18707WAT     H256364   3.059   3.704   7.117
18708WAT      O56365   2.342   6.709   5.768
18708WAT     H156366   2.428   6.738   5.726
18708WAT     H256367   2.342   6.736   5.864
18709WAT      O56368   3.001   7.303   0.043
18709WAT     H156369   2.909   7.278   0.076
18709WAT     H256370   3.030   7.387   0.088
18710WAT      O56371   1.701   7.882   8.812
18710WAT     H156372   1.727   7.802   8.757
18710WAT     H256373   1.663   7.852   8.899
18711WAT      O56374   3.082   2.160   4.225
18711WAT     H156375   3.071   2.251   4.263
18711WAT     H256376   3.179   2.136   4.222
18712WAT      O56377   1.542   7.157   6.277
18712WAT     H156378   1.450   7.140   6.242
18712WAT     H256379   1.608   7.155   6.202
18713WAT      O56380   2.812   0.651   2.023
18713WAT     H156381   2.755   0.572   2.001
18713WAT     H256382   2.823   0.657   2.123
18714WAT      O56383   3.887   0.802   2.221
18714WAT     H156384   3.911   0.844   2.309
18714WAT     H256385   3.793   0.825   2.197
18715WAT      O56386   9.318   1.394   0.583
18715WAT     H156387   9.358   1.481   0.555
18715WAT     H256388   9.221   1.407   0.604
18716WAT      O56389   2.944   2.668   5.433
18716WAT     H156390   2.951   2.760   5.394
18716WAT     H256391   2.923   2.675   5.531
18717WAT      O56392   9.871   3.595   6.634
18717WAT     H156393   9.804   3.636   6.572
18717WAT     H256394   9.907   3.666   6.695
18718WAT      O56395   8.280   1.043   2.819
18718WAT     H156396   8.325   0.996   2.896
18718WAT     H256397   8.181   1.027   2.825
18719WAT      O56398   3.964   6.180   4.124
18719WAT     H156399   3.878   6.231   4.116
18719WAT     H256400   4.033   6.238   4.169
18720WAT      O56401   4.393   2.242   4.390
18720WAT     H156402   4.372   2.327   4.438
18720WAT     H256403   4.335   2.234   4.309
18721WAT      O56404   0.215   4.042   1.344
18721WAT     H156405   0.158   3.960   1.343
18721WAT     H256406   0.160   4.121   1.371
18722WAT      O56407   3.835   6.919   5.518
18722WAT     H156408   3.835   6.838   5.576
18722WAT     H256409   3.929   6.945   5.496
18723WAT      O56410   9.535   7.101   8.497
18723WAT     H156411   9.516   7.017   8.447
18723WAT     H256412   9.616   7.089   8.554
18724WAT      O56413   4.934   3.989   4.157
18724WAT     H156414   4.906   4.084   4.172
18724WAT     H256415   5.021   3.987   4.109
18725WAT      O56416   3.359   3.156   1.331
18725WAT     H156417   3.379   3.252   1.312
18725WAT     H256418   3.435   3.116   1.381
18726WAT      O56419   7.148   2.070   3.092
18726WAT     H156420   7.106   2.094   3.179
18726WAT     H256421   7.173   1.973   3.092
18727WAT      O56422   4.760   2.809   1.162
18727WAT     H156423   4.843   2.854   1.195
18727WAT     H256424   4.700   2.790   1.239
18728WAT      O56425   2.886   9.541   4.557
18728WAT     H156426   2.970   9.488   4.567
18728WAT     H256427   2.858   9.576   4.647
18729WAT      O56428   9.570   3.505   1.558
18729WAT     H156429   9.627   3.583   1.532
18729WAT     H256430   9.629   3.429   1.585
18730WAT      O56431   0.389   8.377   1.155
18730WAT     H156432   0.484   8.367   1.184
18730WAT     H256433   0.328   8.335   1.223
18731WAT      O56434   7.687   8.916   2.621
18731WAT     H156435   7.737   8.899   2.536
18731WAT     H256436   7.680   8.832   2.674
18732WAT      O56437   3.879   3.690   4.081
18732WAT     H156438   3.833   3.778   4.088
18732WAT     H256439   3.821   3.619   4.120
18733WAT      O56440   4.235   4.273   8.586
18733WAT     H156441   4.274   4.339   8.522
18733WAT     H256442   4.261   4.298   8.679
18734WAT      O56443   8.868   0.918   5.334
18734WAT     H156444   8.827   0.966   5.257
18734WAT     H256445   8.960   0.954   5.351
18735WAT      O56446   4.873   0.975   2.671
18735WAT     H156447   4.947   1.039   2.649
18735WAT     H256448   4.792   1.027   2.700
18736WAT      O56449   6.260   7.113   4.898
18736WAT     H156450   6.321   7.192   4.887
18736WAT     H256451   6.182   7.122   4.837
18737WAT      O56452   4.787   6.521   9.282
18737WAT     H156453   4.772   6.470   9.198
18737WAT     H256454   4.722   6.597   9.288
18738WAT      O56455   0.503   4.555   9.784
18738WAT     H156456   0.492   4.489   9.859
18738WAT     H256457   0.491   4.507   9.696
18739WAT      O56458   3.369   8.350   1.071
18739WAT     H156459   3.269   8.354   1.071
18739WAT     H256460   3.406   8.440   1.095
18740WAT      O56461   0.463   7.485   4.144
18740WAT     H156462   0.490   7.519   4.054
18740WAT     H256463   0.513   7.400   4.164
18741WAT      O56464   2.725   4.086   2.578
18741WAT     H156465   2.714   3.988   2.590
18741WAT     H256466   2.711   4.110   2.482
18742WAT      O56467   5.126   3.483   5.552
18742WAT     H156468   5.109   3.461   5.456
18742WAT     H256469   5.073   3.563   5.578
18743WAT      O56470   2.551   8.755   9.587
18743WAT     H156471   2.589   8.681   9.532
18743WAT     H256472   2.533   8.722   9.679
18744WAT      O56473   0.678   9.428   9.079
18744WAT     H156474   0.756   9.445   9.139
18744WAT     H256475   0.630   9.514   9.061
18745WAT      O56476   7.289   3.042   2.546
18745WAT     H156477   7.300   3.038   2.646
18745WAT     H256478   7.277   3.137   2.519
18746WAT      O56479   8.839   2.913   3.971
18746WAT     H156480   8.938   2.905   3.964
18746WAT     H256481   8.800   2.828   4.006
18747WAT      O56482   8.808   9.469   9.597
18747WAT     H156483   8.832   9.382   9.553
18747WAT     H256484   8.724   9.457   9.650
18748WAT      O56485   2.089   1.040   5.528
18748WAT     H156486   2.061   1.076   5.439
18748WAT     H256487   2.134   0.952   5.516
18749WAT      O56488   2.940   4.560   1.662
18749WAT     H156489   2.937   4.482   1.724
18749WAT     H256490   2.897   4.536   1.575
18750WAT      O56491   3.206   4.590   8.301
18750WAT     H156492   3.157   4.510   8.335
18750WAT     H256493   3.265   4.564   8.225
18751WAT      O56494   6.429   3.620   6.529
18751WAT     H156495   6.478   3.660   6.452
18751WAT     H256496   6.491   3.612   6.607
18752WAT      O56497   6.558   5.744   8.552
18752WAT     H156498   6.631   5.752   8.485
18752WAT     H256499   6.501   5.827   8.549
18753WAT      O56500   3.064   8.732   2.734
18753WAT     H156501   3.021   8.813   2.695
18753WAT     H256502   3.071   8.661   2.665
18754WAT      O56503   6.173   7.148   7.822
18754WAT     H156504   6.196   7.228   7.877
18754WAT     H256505   6.245   7.134   7.753
18755WAT      O56506   7.212   8.827   3.921
18755WAT     H156507   7.131   8.836   3.863
18755WAT     H256508   7.255   8.738   3.906
18756WAT      O56509   3.712   4.294   8.472
18756WAT     H156510   3.697   4.262   8.565
18756WAT     H256511   3.796   4.349   8.469
18757WAT      O56512   3.969   3.529   5.701
18757WAT     H156513   4.061   3.526   5.662
18757WAT     H256514   3.911   3.588   5.645
18758WAT      O56515   5.987   1.242   6.329
18758WAT     H156516   5.967   1.340   6.329
18758WAT     H256517   5.903   1.191   6.310
18759WAT      O56518   5.625   0.604   1.620
18759WAT     H156519   5.684   0.561   1.551
18759WAT     H256520   5.582   0.685   1.580
18760WAT      O56521   9.893   1.937   3.724
18760WAT     H156522   9.802   1.956   3.760
18760WAT     H256523   9.885   1.907   3.628
18761WAT      O56524   2.561   8.138   7.272
18761WAT     H156525   2.635   8.125   7.338
18761WAT     H256526   2.562   8.063   7.206
18762WAT      O56527   1.225   6.310   8.114
18762WAT     H156528   1.159   6.255   8.164
18762WAT     H256529   1.308   6.257   8.098
18763WAT      O56530   7.679   9.275   5.146
18763WAT     H156531   7.584   9.260   5.175
18763WAT     H256532   7.725   9.187   5.137
18764WAT      O56533   1.655   6.177   2.229
18764WAT     H156534   1.563   6.137   2.229
18764WAT     H256535   1.655   6.261   2.175
18765WAT      O56536   8.218   4.063   7.612
18765WAT     H156537   8.147   3.996   7.635
18765WAT     H256538   8.178   4.155   7.611
18766WAT      O56539   9.168   8.735   8.983
18766WAT     H156540   9.254   8.690   9.006
18766WAT     H256541   9.178   8.834   8.994
18767WAT      O56542   3.862   1.544   4.465
18767WAT     H156543   3.897   1.508   4.552
18767WAT     H256544   3.784   1.604   4.483
18768WAT      O56545   9.855   2.235   1.377
18768WAT     H156546   9.869   2.279   1.466
18768WAT     H256547   9.760   2.205   1.370
18769WAT      O56548   6.614   6.995   9.877
18769WAT     H156549   6.534   7.047   9.847
18769WAT     H256550   6.660   6.955   9.798
18770WAT      O56551   7.638   2.965   7.821
18770WAT     H156552   7.630   2.941   7.917
18770WAT     H256553   7.669   2.885   7.769
18771WAT      O56554   5.741   9.333   3.427
18771WAT     H156555   5.706   9.408   3.371
18771WAT     H256556   5.771   9.369   3.515
18772WAT      O56557   5.763   7.104   5.857
18772WAT     H156558   5.700   7.171   5.897
18772WAT     H256559   5.728   7.012   5.873
18773WAT      O56560   5.633   0.153   2.839
18773WAT     H156561   5.663   0.219   2.907
18773WAT     H256562   5.711   0.098   2.809
18774WAT      O56563   6.176   0.828   2.661
18774WAT     H156564   6.148   0.924   2.660
18774WAT     H256565   6.113   0.774   2.605
18775WAT      O56566   3.942   2.541   7.879
18775WAT     H156567   3.892   2.517   7.963
18775WAT     H256568   3.880   2.581   7.813
18776WAT      O56569   8.811   9.050   9.159
18776WAT     H156570   8.823   8.954   9.184
18776WAT     H256571   8.808   9.106   9.242
18777WAT      O56572   9.164   2.195   9.057
18777WAT     H156573   9.199   2.105   9.085
18777WAT     H256574   9.123   2.188   8.966
18778WAT      O56575   8.476   1.058   0.765
18778WAT     H156576   8.497   1.155   0.753
18778WAT     H256577   8.480   1.012   0.676
18779WAT      O56578   1.053   5.043   1.262
18779WAT     H156579   0.974   4.983   1.269
18779WAT     H256580   1.084   5.068   1.353
18780WAT      O56581   5.604   4.674   8.841
18780WAT     H156582   5.523   4.632   8.883
18780WAT     H256583   5.611   4.644   8.746
18781WAT      O56584   9.302   2.684   5.953
18781WAT     H156585   9.343   2.711   6.040
18781WAT     H256586   9.311   2.585   5.941
18782WAT      O56587   4.934   5.746   7.025
18782WAT     H156588   4.875   5.824   7.045
18782WAT     H256589   5.009   5.776   6.966
18783WAT      O56590   5.793   3.492   5.072
18783WAT     H156591   5.814   3.559   5.001
18783WAT     H256592   5.695   3.493   5.091
18784WAT      O56593   4.020   5.737   3.999
18784WAT     H156594   3.967   5.691   3.927
18784WAT     H256595   4.098   5.784   3.957
18785WAT      O56596   8.933   6.307   8.186
18785WAT     H156597   8.835   6.324   8.187
18785WAT     H256598   8.954   6.225   8.239
18786WAT      O56599   6.303   8.749   2.414
18786WAT     H156600   6.384   8.724   2.468
18786WAT     H256601   6.309   8.845   2.388
18787WAT      O56602   5.402   0.055   2.983
18787WAT     H156603   5.422  -0.032   2.938
18787WAT     H256604   5.479   0.118   2.971
18788WAT      O56605   0.948   6.928   8.632
18788WAT     H156606   0.931   6.835   8.665
18788WAT     H256607   0.884   6.991   8.676
18789WAT      O56608   3.268   3.201   0.826
18789WAT     H156609   3.195   3.258   0.864
18789WAT     H256610   3.309   3.248   0.748
18790WAT      O56611   6.736   2.675   3.366
18790WAT     H156612   6.823   2.722   3.379
18790WAT     H256613   6.735   2.592   3.423
18791WAT      O56614   7.388   5.577   0.121
18791WAT     H156615   7.303   5.565   0.173
18791WAT     H256616   7.466   5.555   0.180
18792WAT      O56617   1.200   3.078   0.914
18792WAT     H156618   1.190   3.125   0.826
18792WAT     H256619   1.193   2.979   0.900
18793WAT      O56620   2.331   4.195   0.084
18793WAT     H156621   2.292   4.286   0.066
18793WAT     H256622   2.268   4.125   0.052
18794WAT      O56623   4.182   5.986   7.888
18794WAT     H156624   4.138   5.932   7.960
18794WAT     H256625   4.114   6.012   7.820
18795WAT      O56626   8.377   6.004   5.314
18795WAT     H156627   8.449   6.069   5.290
18795WAT     H256628   8.296   6.020   5.257
18796WAT      O56629   9.064   1.141   4.253
18796WAT     H156630   9.007   1.105   4.327
18796WAT     H256631   9.143   1.189   4.292
18797WAT      O56632   3.286   8.671   0.926
18797WAT     H156633   3.327   8.615   0.998
18797WAT     H256634   3.260   8.613   0.849
18798WAT      O56635   4.924   7.423   8.097
18798WAT     H156636   4.923   7.325   8.074
18798WAT     H256637   5.008   7.444   8.147
18799WAT      O56638   0.722   2.496   4.862
18799WAT     H156639   0.777   2.486   4.945
18799WAT     H256640   0.632   2.532   4.885
18800WAT      O56641   1.288   8.663   9.485
18800WAT     H156642   1.244   8.643   9.572
18800WAT     H256643   1.387   8.655   9.495
18801WAT      O56644   9.826   4.099   8.912
18801WAT     H156645   9.736   4.129   8.943
18801WAT     H256646   9.871   4.046   8.984
18802WAT      O56647   7.317   9.730   0.271
18802WAT     H156648   7.351   9.643   0.235
18802WAT     H256649   7.275   9.782   0.196
18803WAT      O56650   0.297   7.845   3.418
18803WAT     H156651   0.367   7.881   3.480
18803WAT     H256652   0.243   7.921   3.381
18804WAT      O56653   6.996   3.542   8.084
18804WAT     H156654   6.916   3.518   8.029
18804WAT     H256655   7.019   3.638   8.069
18805WAT      O56656   1.096   8.067   3.662
18805WAT     H156657   1.058   8.077   3.570
18805WAT     H256658   1.115   7.971   3.680
18806WAT      O56659   0.498   6.210   8.046
18806WAT     H156660   0.541   6.300   8.046
18806WAT     H256661   0.554   6.146   8.099
18807WAT      O56662   6.621   7.415   2.741
18807WAT     H156663   6.580   7.365   2.664
18807WAT     H256664   6.640   7.352   2.815
18808WAT      O56665   3.919   0.404   5.578
18808WAT     H156666   3.921   0.502   5.557
18808WAT     H256667   4.011   0.372   5.597
18809WAT      O56668   2.915   5.043   4.102
18809WAT     H156669   2.979   5.018   4.029
18809WAT     H256670   2.825   5.007   4.081
18810WAT      O56671   3.349   0.676   3.137
18810WAT     H156672   3.301   0.614   3.074
18810WAT     H256673   3.361   0.631   3.225
18811WAT      O56674   4.779   4.942   9.853
18811WAT     H156675   4.842   4.881   9.901
18811WAT     H256676   4.830   5.019   9.814
18812WAT      O56677   5.833   0.971   7.426
18812WAT     H156678   5.815   0.998   7.332
18812WAT     H256679   5.800   0.877   7.441
18813WAT      O56680   6.990   1.084   8.010
18813WAT     H156681   7.071   1.103   7.954
18813WAT     H256682   6.972   0.985   8.011
18814WAT      O56683   9.792   7.452   1.733
18814WAT     H156684   9.712   7.507   1.757
18814WAT     H256685   9.762   7.365   1.694
18815WAT      O56686   6.319   6.428   9.876
18815WAT     H156687   6.371   6.367   9.817
18815WAT     H256688   6.351   6.522   9.863
18816WAT      O56689   7.506   3.320   7.241
18816WAT     H156690   7.556   3.393   7.289
18816WAT     H256691   7.571   3.252   7.206
18817WAT      O56692   0.437   1.707   1.066
18817WAT     H156693   0.513   1.652   1.100
18817WAT     H256694   0.432   1.792   1.119
18818WAT      O56695   6.137   1.607   5.859
18818WAT     H156696   6.216   1.597   5.920
18818WAT     H256697   6.169   1.632   5.768
18819WAT      O56698   3.874   6.008   0.391
18819WAT     H156699   3.886   5.937   0.322
18819WAT     H256700   3.779   6.041   0.389
18820WAT      O56701   1.484   8.969   1.034
18820WAT     H156702   1.554   9.041   1.034
18820WAT     H256703   1.499   8.908   1.112
18821WAT      O56704   3.659   2.391   7.409
18821WAT     H156705   3.623   2.307   7.367
18821WAT     H256706   3.745   2.371   7.455
18822WAT      O56707   7.968   7.432   8.858
18822WAT     H156708   7.962   7.379   8.943
18822WAT     H256709   7.876   7.451   8.824
18823WAT      O56710   0.750   9.060   5.412
18823WAT     H156711   0.767   8.961   5.417
18823WAT     H256712   0.814   9.102   5.347
18824WAT      O56713   3.677   2.721   3.305
18824WAT     H156714   3.756   2.782   3.317
18824WAT     H256715   3.652   2.718   3.208
18825WAT      O56716   5.441   3.759   0.023
18825WAT     H156717   5.370   3.817   0.063
18825WAT     H256718   5.421   3.663   0.043
18826WAT      O56719   4.589   1.109   9.829
18826WAT     H156720   4.599   1.091   9.927
18826WAT     H256721   4.527   1.042   9.789
18827WAT      O56722   2.893   6.245   9.290
18827WAT     H156723   2.940   6.291   9.215
18827WAT     H256724   2.797   6.271   9.291
18828WAT      O56725   2.010   1.804   8.599
18828WAT     H156726   1.949   1.738   8.643
18828WAT     H256727   1.993   1.895   8.637
18829WAT      O56728   6.134   4.847   9.659
18829WAT     H156729   6.163   4.923   9.717
18829WAT     H256730   6.034   4.843   9.657
18830WAT      O56731   6.317   7.594   7.624
18830WAT     H156732   6.221   7.608   7.648
18830WAT     H256733   6.372   7.669   7.661
18831WAT      O56734   4.632   6.547   4.509
18831WAT     H156735   4.542   6.512   4.486
18831WAT     H256736   4.701   6.498   4.456
18832WAT      O56737   6.943   7.859   4.755
18832WAT     H156738   6.948   7.952   4.790
18832WAT     H256739   6.903   7.861   4.663
18833WAT      O56740   2.513   0.032   1.797
18833WAT     H156741   2.438   0.083   1.840
18833WAT     H256742   2.519   0.055   1.700
18834WAT      O56743   5.537   8.517   1.003
18834WAT     H156744   5.627   8.480   1.025
18834WAT     H256745   5.488   8.453   0.944
18835WAT      O56746   7.532   0.242   8.228
18835WAT     H156747   7.518   0.143   8.223
18835WAT     H256748   7.626   0.263   8.203
18836WAT      O56749   4.386   4.972   3.135
18836WAT     H156750   4.304   4.915   3.134
18836WAT     H256751   4.465   4.916   3.161
18837WAT      O56752   0.265   4.023   3.767
18837WAT     H156753   0.184   3.968   3.786
18837WAT     H256754   0.264   4.055   3.672
18838WAT      O56755   1.681   7.553   8.907
18838WAT     H156756   1.675   7.598   8.996
18838WAT     H256757   1.774   7.563   8.871
18839WAT      O56758   9.411   8.029   9.796
18839WAT     H156759   9.386   7.965   9.868
18839WAT     H256760   9.432   7.978   9.712
18840WAT      O56761   3.468   2.702   2.203
18840WAT     H156762   3.406   2.727   2.128
18840WAT     H256763   3.514   2.616   2.182
18841WAT      O56764   6.341   8.772   4.275
18841WAT     H156765   6.282   8.776   4.355
18841WAT     H256766   6.323   8.851   4.216
18842WAT      O56767   4.350   2.731   7.581
18842WAT     H156768   4.348   2.690   7.490
18842WAT     H256769   4.324   2.828   7.574
18843WAT      O56770   7.829   2.466   2.491
18843WAT     H156771   7.801   2.505   2.403
18843WAT     H256772   7.899   2.523   2.532
18844WAT      O56773   8.782   8.337   1.412
18844WAT     H156774   8.834   8.421   1.427
18844WAT     H256775   8.777   8.317   1.314
18845WAT      O56776   2.445   1.635   4.257
18845WAT     H156777   2.440   1.735   4.256
18845WAT     H256778   2.483   1.605   4.344
18846WAT      O56779   4.650   4.152   3.611
18846WAT     H156780   4.691   4.076   3.561
18846WAT     H256781   4.615   4.120   3.699
18847WAT      O56782   3.750   3.175   7.481
18847WAT     H156783   3.820   3.103   7.482
18847WAT     H256784   3.771   3.242   7.552
18848WAT      O56785   5.204   8.865   3.268
18848WAT     H156786   5.252   8.778   3.254
18848WAT     H256787   5.121   8.849   3.322
18849WAT      O56788   2.539   3.665   6.602
18849WAT     H156789   2.554   3.713   6.688
18849WAT     H256790   2.575   3.572   6.609
18850WAT      O56791   5.332   7.273   5.245
18850WAT     H156792   5.427   7.299   5.229
18850WAT     H256793   5.292   7.332   5.315
18851WAT      O56794   2.223   8.668   0.226
18851WAT     H156795   2.165   8.616   0.288
18851WAT     H256796   2.319   8.659   0.255
18852WAT      O56797   0.441   9.493   7.948
18852WAT     H156798   0.349   9.503   7.908
18852WAT     H256799   0.503   9.455   7.879
18853WAT      O56800   4.664   6.259   6.962
18853WAT     H156801   4.608   6.269   7.045
18853WAT     H256802   4.605   6.250   6.882
18854WAT      O56803   2.517   5.375   9.332
18854WAT     H156804   2.515   5.277   9.310
18854WAT     H256805   2.488   5.388   9.426
18855WAT      O56806   9.571   5.218   0.896
18855WAT     H156807   9.616   5.185   0.979
18855WAT     H256808   9.533   5.141   0.846
18856WAT      O56809   2.079   9.599   5.720
18856WAT     H156810   2.161   9.571   5.771
18856WAT     H256811   1.998   9.567   5.768
18857WAT      O56812   0.795   2.027   5.407
18857WAT     H156813   0.863   2.101   5.406
18857WAT     H256814   0.734   2.038   5.485
18858WAT      O56815   3.680   4.933   6.633
18858WAT     H156816   3.745   4.896   6.567
18858WAT     H256817   3.708   5.025   6.659
18859WAT      O56818   1.338   0.014   1.477
18859WAT     H156819   1.268   0.084   1.494
18859WAT     H256820   1.381  -0.012   1.563
18860WAT      O56821   4.511   3.170   3.634
18860WAT     H156822   4.547   3.182   3.726
18860WAT     H256823   4.561   3.229   3.571
18861WAT      O56824   6.653   9.626   7.412
18861WAT     H156825   6.572   9.683   7.400
18861WAT     H256826   6.727   9.680   7.452
18862WAT      O56827   1.712   9.784   1.537
18862WAT     H156828   1.664   9.774   1.624
18862WAT     H256829   1.776   9.708   1.524
18863WAT      O56830   8.193   6.016   9.885
18863WAT     H156831   8.272   5.976   9.837
18863WAT     H256832   8.222   6.048   9.975
18864WAT      O56833   8.645   2.736   3.648
18864WAT     H156834   8.608   2.736   3.555
18864WAT     H256835   8.745   2.731   3.644
18865WAT      O56836   3.608   3.446   2.035
18865WAT     H156837   3.602   3.544   2.052
18865WAT     H256838   3.651   3.430   1.946
18866WAT      O56839   4.946   4.090   3.162
18866WAT     H156840   4.851   4.120   3.167
18866WAT     H256841   4.973   4.080   3.066
18867WAT      O56842   3.949   7.728   1.585
18867WAT     H156843   3.977   7.660   1.653
18867WAT     H256844   3.849   7.733   1.583
18868WAT      O56845   7.709   4.680   8.125
18868WAT     H156846   7.692   4.747   8.052
18868WAT     H256847   7.649   4.601   8.111
18869WAT      O56848   6.400   4.580   3.091
18869WAT     H156849   6.356   4.561   3.179
18869WAT     H256850   6.472   4.648   3.104
18870WAT      O56851   9.007   5.760   5.479
18870WAT     H156852   9.027   5.856   5.501
18870WAT     H256853   8.969   5.715   5.560
18871WAT      O56854   5.217   5.161   4.563
18871WAT     H156855   5.143   5.100   4.592
18871WAT     H256856   5.226   5.236   4.628
18872WAT      O56857   6.710   6.958   3.319
18872WAT     H156858   6.737   6.906   3.238
18872WAT     H256859   6.623   7.004   3.301
18873WAT      O56860   6.772   3.514   7.946
18873WAT     H156861   6.735   3.421   7.954
18873WAT     H256862   6.722   3.575   8.008
18874WAT      O56863   7.202   2.654   3.242
18874WAT     H156864   7.295   2.662   3.207
18874WAT     H256865   7.136   2.668   3.167
18875WAT      O56866   5.789   3.925   2.366
18875WAT     H156867   5.812   3.900   2.272
18875WAT     H256868   5.778   4.024   2.372
18876WAT      O56869   0.676   0.982   5.367
18876WAT     H156870   0.697   1.078   5.351
18876WAT     H256871   0.631   0.943   5.286
18877WAT      O56872   1.014   7.737   8.843
18877WAT     H156873   0.947   7.671   8.877
18877WAT     H256874   1.017   7.815   8.905
18878WAT      O56875   5.988   0.974   5.753
18878WAT     H156876   6.085   0.952   5.756
18878WAT     H256877   5.962   1.001   5.660
18879WAT      O56878   9.030   3.200   7.099
18879WAT     H156879   9.098   3.242   7.160
18879WAT     H256880   9.077   3.164   7.018
18880WAT      O56881   6.847   5.678   0.878
18880WAT     H156882   6.776   5.742   0.850
18880WAT     H256883   6.855   5.679   0.978
18881WAT      O56884   8.717   1.411   0.487
18881WAT     H156885   8.723   1.351   0.407
18881WAT     H256886   8.809   1.437   0.517
18882WAT      O56887   6.718   9.769   0.044
18882WAT     H156888   6.757   9.791   0.133
18882WAT     H256889   6.777   9.806  -0.028
18883WAT      O56890   5.933   9.226   8.356
18883WAT     H156891   6.008   9.184   8.405
18883WAT     H256892   5.901   9.164   8.284
18884WAT      O56893   9.753   9.209   2.872
18884WAT     H156894   9.841   9.172   2.843
18884WAT     H256895   9.697   9.135   2.910
18885WAT      O56896   3.119   4.628   6.816
18885WAT     H156897   3.087   4.544   6.860
18885WAT     H256898   3.040   4.683   6.788
18886WAT      O56899   8.602   3.734   5.745
18886WAT     H156900   8.646   3.645   5.748
18886WAT     H256901   8.525   3.736   5.809
18887WAT      O56902   4.351   8.964   6.305
18887WAT     H156903   4.297   8.895   6.256
18887WAT     H256904   4.417   9.004   6.243
18888WAT      O56905   3.705   5.280   7.771
18888WAT     H156906   3.713   5.201   7.710
18888WAT     H256907   3.685   5.361   7.716
18889WAT      O56908   9.192   3.876   4.989
18889WAT     H156909   9.251   3.943   5.034
18889WAT     H256910   9.096   3.901   5.004
18890WAT      O56911   2.251   7.575   0.392
18890WAT     H156912   2.178   7.619   0.340
18890WAT     H256913   2.273   7.487   0.351
18891WAT      O56914   4.802   5.040   6.033
18891WAT     H156915   4.819   4.984   6.114
18891WAT     H256916   4.852   5.126   6.041
18892WAT      O56917   1.614   3.353   8.501
18892WAT     H156918   1.605   3.340   8.600
18892WAT     H256919   1.671   3.433   8.484
18893WAT      O56920   1.605   2.785   1.982
18893WAT     H156921   1.644   2.825   1.899
18893WAT     H256922   1.538   2.848   2.021
18894WAT      O56923   0.808   3.358   0.246
18894WAT     H156924   0.853   3.288   0.192
18894WAT     H256925   0.713   3.368   0.216
18895WAT      O56926   8.968   0.779   3.960
18895WAT     H156927   8.898   0.850   3.947
18895WAT     H256928   9.024   0.802   4.040
18896WAT      O56929   4.504   8.687   6.602
18896WAT     H156930   4.426   8.685   6.664
18896WAT     H256931   4.579   8.739   6.643
18897WAT      O56932   0.803   8.282   6.442
18897WAT     H156933   0.747   8.328   6.511
18897WAT     H256934   0.745   8.218   6.390
18898WAT      O56935   1.874   8.085   8.739
18898WAT     H156936   1.818   8.017   8.786
18898WAT     H256937   1.904   8.154   8.804
18899WAT      O56938   1.070   7.948   2.602
18899WAT     H156939   1.089   8.045   2.583
18899WAT     H256940   1.143   7.892   2.562
18900WAT      O56941   7.978   4.197   5.999
18900WAT     H156942   7.997   4.123   5.935
18900WAT     H256943   8.016   4.175   6.089
18901WAT      O56944   9.144   3.089   6.868
18901WAT     H156945   9.125   3.003   6.820
18901WAT     H256946   9.110   3.166   6.813
18902WAT      O56947   6.530   1.293   3.958
18902WAT     H156948   6.602   1.320   4.022
18902WAT     H256949   6.442   1.290   4.005
18903WAT      O56950   9.736   3.891   1.129
18903WAT     H156951   9.810   3.862   1.189
18903WAT     H256952   9.772   3.956   1.061
18904WAT      O56953   5.477   5.999   1.035
18904WAT     H156954   5.543   6.074   1.032
18904WAT     H256955   5.386   6.035   1.052
18905WAT      O56956   0.658   0.867   9.557
18905WAT     H156957   0.572   0.897   9.516
18905WAT     H256958   0.640   0.790   9.619
18906WAT      O56959   3.277   0.132   6.059
18906WAT     H156960   3.318   0.178   5.980
18906WAT     H256961   3.299   0.034   6.055
18907WAT      O56962   0.551   0.297   6.234
18907WAT     H156963   0.501   0.376   6.270
18907WAT     H256964   0.647   0.303   6.259
18908WAT      O56965   5.064   6.883   5.130
18908WAT     H156966   5.084   6.822   5.208
18908WAT     H256967   5.142   6.942   5.113
18909WAT      O56968   0.814   4.938   8.175
18909WAT     H156969   0.771   5.020   8.213
18909WAT     H256970   0.886   4.965   8.112
18910WAT      O56971   0.896   3.807   4.078
18910WAT     H156972   0.814   3.858   4.101
18910WAT     H256973   0.975   3.850   4.122
18911WAT      O56974   0.668   5.167   9.881
18911WAT     H156975   0.750   5.224   9.878
18911WAT     H256976   0.602   5.206   9.946
18912WAT      O56977   9.315   2.430   2.928
18912WAT     H156978   9.398   2.426   2.874
18912WAT     H256979   9.238   2.455   2.870
18913WAT      O56980   2.195   5.615   9.428
18913WAT     H156981   2.241   5.634   9.341
18913WAT     H256982   2.106   5.660   9.429
18914WAT      O56983   7.594   7.147   5.935
18914WAT     H156984   7.550   7.064   5.899
18914WAT     H256985   7.544   7.227   5.903
18915WAT      O56986   2.826   0.396   2.377
18915WAT     H156987   2.732   0.430   2.368
18915WAT     H256988   2.857   0.362   2.288
18916WAT      O56989   8.855   4.152   0.375
18916WAT     H156990   8.858   4.085   0.449
18916WAT     H256991   8.947   4.169   0.341
18917WAT      O56992   6.138   8.542   0.022
18917WAT     H156993   6.078   8.471  -0.014
18917WAT     H256994   6.205   8.567  -0.048
18918WAT      O56995   8.902   6.213   6.849
18918WAT     H156996   8.812   6.178   6.876
18918WAT     H256997   8.891   6.297   6.796
18919WAT      O56998   4.066   5.847   5.758
18919WAT     H156999   4.081   5.820   5.663
18919WAT     H257000   4.099   5.775   5.819
18920WAT      O57001   3.218   1.783   5.983
18920WAT     H157002   3.205   1.690   5.951
18920WAT     H257003   3.165   1.846   5.926
18921WAT      O57004   4.204   7.952   5.518
18921WAT     H157005   4.172   7.968   5.424
18921WAT     H257006   4.189   7.857   5.543
18922WAT      O57007   3.637   1.657   6.352
18922WAT     H157008   3.661   1.632   6.446
18922WAT     H257009   3.690   1.601   6.288
18923WAT      O57010   8.040   7.591   0.323
18923WAT     H157011   7.989   7.648   0.387
18923WAT     H257012   8.138   7.610   0.331
18924WAT      O57013   5.362   9.023   9.471
18924WAT     H157014   5.440   9.051   9.415
18924WAT     H257015   5.334   9.099   9.529
18925WAT      O57016   6.008   8.893   4.871
18925WAT     H157017   6.097   8.899   4.824
18925WAT     H257018   5.987   8.981   4.914
18926WAT      O57019   4.440   8.981   4.031
18926WAT     H157020   4.399   8.908   4.086
18926WAT     H257021   4.539   8.983   4.046
18927WAT      O57022   5.280   4.547   3.047
18927WAT     H157023   5.329   4.567   2.962
18927WAT     H257024   5.333   4.484   3.103
18928WAT      O57025   3.626   6.317   8.313
18928WAT     H157026   3.684   6.246   8.275
18928WAT     H257027   3.682   6.392   8.348
18929WAT      O57028   2.706   6.789   9.264
18929WAT     H157029   2.755   6.857   9.319
18929WAT     H257030   2.771   6.730   9.216
18930WAT      O57031   7.598   5.139   9.521
18930WAT     H157032   7.632   5.211   9.461
18930WAT     H257033   7.568   5.178   9.608
18931WAT      O57034   2.635   7.399   4.138
18931WAT     H157035   2.682   7.402   4.226
18931WAT     H257036   2.670   7.472   4.079
18932WAT      O57037   8.832   7.393   6.665
18932WAT     H157038   8.816   7.327   6.591
18932WAT     H257039   8.926   7.382   6.698
18933WAT      O57040   7.658   9.336   0.246
18933WAT     H157041   7.678   9.377   0.335
18933WAT     H257042   7.660   9.407   0.176
18934WAT      O57043   7.307   3.759   2.680
18934WAT     H157044   7.280   3.744   2.584
18934WAT     H257045   7.261   3.691   2.738
18935WAT      O57046   2.971   6.011   2.118
18935WAT     H157047   2.968   5.947   2.194
18935WAT     H257048   2.966   6.105   2.152
18936WAT      O57049   5.539   1.407   1.536
18936WAT     H157050   5.534   1.312   1.505
18936WAT     H257051   5.482   1.464   1.477
18937WAT      O57052   1.003   4.933   3.313
18937WAT     H157053   1.016   4.847   3.363
18937WAT     H257054   0.936   4.989   3.362
18938WAT      O57055   5.774   2.300   9.540
18938WAT     H157056   5.695   2.272   9.486
18938WAT     H257057   5.744   2.361   9.614
18939WAT      O57058   4.334   9.093   6.857
18939WAT     H157059   4.399   9.050   6.794
18939WAT     H257060   4.383   9.156   6.917
18940WAT      O57061   0.778   1.939   3.925
18940WAT     H157062   0.853   1.981   3.874
18940WAT     H257063   0.761   1.992   4.009
18941WAT      O57064   9.871   3.333   4.820
18941WAT     H157065   9.793   3.357   4.878
18941WAT     H257066   9.939   3.406   4.825
18942WAT      O57067   8.492   2.857   8.898
18942WAT     H157068   8.515   2.775   8.949
18942WAT     H257069   8.400   2.847   8.859
18943WAT      O57070   7.839   2.835   0.712
18943WAT     H157071   7.873   2.752   0.667
18943WAT     H257072   7.758   2.813   0.766
18944WAT      O57073   2.710   4.790   1.085
18944WAT     H157074   2.663   4.782   0.997
18944WAT     H257075   2.642   4.789   1.159
18945WAT      O57076   2.672   9.530   6.799
18945WAT     H157077   2.638   9.456   6.743
18945WAT     H257078   2.599   9.597   6.815
18946WAT      O57079   7.622   8.604   8.543
18946WAT     H157080   7.708   8.586   8.589
18946WAT     H257081   7.546   8.585   8.605
18947WAT      O57082   6.946   6.277   9.232
18947WAT     H157083   7.027   6.327   9.263
18947WAT     H257084   6.875   6.341   9.205
18948WAT      O57085   6.517   1.296   9.514
18948WAT     H157086   6.448   1.299   9.587
18948WAT     H257087   6.560   1.206   9.512
18949WAT      O57088   9.830   4.939   3.693
18949WAT     H157089   9.916   4.910   3.650
18949WAT     H257090   9.799   4.870   3.758
18950WAT      O57091   1.661   5.078   4.859
18950WAT     H157092   1.668   5.161   4.914
18950WAT     H257093   1.648   4.999   4.919
18951WAT      O57094   3.744   1.100   1.030
18951WAT     H157095   3.838   1.109   1.063
18951WAT     H257096   3.701   1.190   1.028
18952WAT      O57097   5.008   8.658   4.114
18952WAT     H157098   5.012   8.560   4.092
18952WAT     H257099   5.079   8.706   4.063
18953WAT      O57100   7.743   1.240   9.518
18953WAT     H157101   7.788   1.270   9.601
18953WAT     H257102   7.675   1.307   9.489
18954WAT      O57103   2.607   6.887   8.215
18954WAT     H157104   2.650   6.852   8.298
18954WAT     H257105   2.553   6.815   8.173
18955WAT      O57106   6.982   5.877   5.238
18955WAT     H157107   6.950   5.790   5.277
18955WAT     H257108   7.020   5.860   5.148
18956WAT      O57109   4.255   9.269   5.627
18956WAT     H157110   4.296   9.179   5.637
18956WAT     H257111   4.230   9.305   5.716
18957WAT      O57112   2.970   7.187   6.394
18957WAT     H157113   3.004   7.276   6.363
18957WAT     H257114   3.002   7.170   6.487
18958WAT      O57115   0.426   0.477   0.035
18958WAT     H157116   0.346   0.511  -0.013
18958WAT     H257117   0.412   0.382   0.061
18959WAT      O57118   6.305   2.511   8.188
18959WAT     H157119   6.227   2.573   8.198
18959WAT     H257120   6.390   2.560   8.206
18960WAT      O57121   2.542   5.879   2.297
18960WAT     H157122   2.527   5.957   2.357
18960WAT     H257123   2.557   5.911   2.204
18961WAT      O57124   9.737   5.134   5.480
18961WAT     H157125   9.826   5.093   5.496
18961WAT     H257126   9.696   5.095   5.397
18962WAT      O57127   3.311   8.820   8.798
18962WAT     H157128   3.381   8.831   8.728
18962WAT     H257129   3.295   8.908   8.843
18963WAT      O57130   2.749   2.453   7.848
18963WAT     H157131   2.808   2.439   7.768
18963WAT     H257132   2.657   2.419   7.828
18964WAT      O57133   1.447   9.812   8.878
18964WAT     H157134   1.479   9.762   8.797
18964WAT     H257135   1.347   9.809   8.881
18965WAT      O57136   2.666   1.201   8.285
18965WAT     H157137   2.592   1.142   8.314
18965WAT     H257138   2.629   1.290   8.257
18966WAT      O57139   7.747   6.793   1.747
18966WAT     H157140   7.649   6.803   1.759
18966WAT     H257141   7.766   6.739   1.665
18967WAT      O57142   0.474   9.395   7.443
18967WAT     H157143   0.417   9.351   7.374
18967WAT     H257144   0.568   9.399   7.412
18968WAT      O57145   2.813   1.986   2.494
18968WAT     H157146   2.896   1.949   2.452
18968WAT     H257147   2.735   1.929   2.472
18969WAT      O57148   8.481   9.375   4.155
18969WAT     H157149   8.548   9.367   4.230
18969WAT     H257150   8.486   9.294   4.097
18970WAT      O57151   6.322   5.947   1.397
18970WAT     H157152   6.228   5.981   1.399
18970WAT     H257153   6.328   5.862   1.450
18971WAT      O57154   2.112   8.432   2.981
18971WAT     H157155   2.132   8.512   3.037
18971WAT     H257156   2.026   8.445   2.933
18972WAT      O57157   1.348   4.437   2.068
18972WAT     H157158   1.278   4.505   2.048
18972WAT     H257159   1.438   4.480   2.067
18973WAT      O57160   6.602   4.770   7.735
18973WAT     H157161   6.514   4.812   7.713
18973WAT     H257162   6.660   4.835   7.783
18974WAT      O57163   1.388   6.110   2.176
18974WAT     H157164   1.360   6.018   2.203
18974WAT     H257165   1.422   6.107   2.082
18975WAT      O57166   4.748   8.568   5.531
18975WAT     H157167   4.753   8.604   5.438
18975WAT     H257168   4.688   8.489   5.534
18976WAT      O57169   1.222   6.919   8.364
18976WAT     H157170   1.304   6.869   8.390
18976WAT     H257171   1.200   6.985   8.435
18977WAT      O57172   1.927   8.456   7.379
18977WAT     H157173   1.965   8.394   7.447
18977WAT     H257174   1.990   8.531   7.362
18978WAT      O57175   5.427   5.776   2.895
18978WAT     H157176   5.334   5.744   2.912
18978WAT     H257177   5.487   5.748   2.969
18979WAT      O57178   1.428   8.128   0.597
18979WAT     H157179   1.452   8.219   0.632
18979WAT     H257180   1.422   8.132   0.497
18980WAT      O57181   7.751   2.446   1.811
18980WAT     H157182   7.843   2.475   1.838
18980WAT     H257183   7.757   2.376   1.740
18981WAT      O57184   9.835   4.814   5.821
18981WAT     H157185   9.866   4.745   5.886
18981WAT     H257186   9.877   4.902   5.842
18982WAT      O57187   9.795   1.549   6.088
18982WAT     H157188   9.766   1.454   6.102
18982WAT     H257189   9.891   1.558   6.114
18983WAT      O57190   8.908   3.368   9.206
18983WAT     H157191   8.986   3.428   9.188
18983WAT     H257192   8.907   3.294   9.139
18984WAT      O57193   2.129   3.818   2.363
18984WAT     H157194   2.150   3.908   2.325
18984WAT     H257195   2.191   3.750   2.324
18985WAT      O57196   8.785   8.869   1.842
18985WAT     H157197   8.858   8.821   1.794
18985WAT     H257198   8.824   8.939   1.901
18986WAT      O57199   4.510   1.395   1.291
18986WAT     H157200   4.499   1.341   1.373
18986WAT     H257201   4.482   1.342   1.211
18987WAT      O57202   7.854   0.531   4.275
18987WAT     H157203   7.922   0.458   4.267
18987WAT     H257204   7.784   0.505   4.341
18988WAT      O57205   2.687   1.671   6.013
18988WAT     H157206   2.633   1.743   5.971
18988WAT     H257207   2.714   1.604   5.943
18989WAT      O57208   2.354   0.741   8.726
18989WAT     H157209   2.367   0.653   8.680
18989WAT     H257210   2.269   0.783   8.694
18990WAT      O57211   8.212   4.034   1.532
18990WAT     H157212   8.175   3.941   1.537
18990WAT     H257213   8.271   4.051   1.611
18991WAT      O57214   1.115   7.423   0.368
18991WAT     H157215   1.070   7.474   0.442
18991WAT     H257216   1.046   7.387   0.305
18992WAT      O57217   8.148   1.382   1.715
18992WAT     H157218   8.125   1.473   1.679
18992WAT     H257219   8.225   1.391   1.778
18993WAT      O57220   5.393   4.028   7.200
18993WAT     H157221   5.437   4.117   7.190
18993WAT     H257222   5.405   3.975   7.116
18994WAT      O57223   6.007   8.803   4.108
18994WAT     H157224   6.063   8.732   4.152
18994WAT     H257225   5.915   8.801   4.147
18995WAT      O57226   9.829   3.245   4.558
18995WAT     H157227   9.836   3.278   4.652
18995WAT     H257228   9.920   3.243   4.517
18996WAT      O57229   2.671   2.510   2.371
18996WAT     H157230   2.679   2.555   2.283
18996WAT     H257231   2.702   2.571   2.443
18997WAT      O57232   9.269   8.911   7.714
18997WAT     H157233   9.351   8.873   7.756
18997WAT     H257234   9.249   8.862   7.629
18998WAT      O57235   5.895   6.929   1.432
18998WAT     H157236   5.838   6.934   1.515
18998WAT     H257237   5.939   7.018   1.417
18999WAT      O57238   6.330   8.591   4.536
18999WAT     H157239   6.417   8.628   4.570
18999WAT     H257240   6.331   8.594   4.436
19000WAT      O57241   4.276   6.924   7.730
19000WAT     H157242   4.183   6.930   7.695
19000WAT     H257243   4.341   6.946   7.658
19001WAT      O57244   3.033   7.219   4.798
19001WAT     H157245   3.029   7.133   4.747
19001WAT     H257246   3.111   7.218   4.860
19002WAT      O57247   9.526   5.914   2.691
19002WAT     H157248   9.589   5.943   2.619
19002WAT     H257249   9.490   5.994   2.739
19003WAT      O57250   3.594   5.294   7.390
19003WAT     H157251   3.630   5.370   7.445
19003WAT     H257252   3.670   5.248   7.344
19004WAT      O57253   3.251   4.099   2.810
19004WAT     H157254   3.195   4.079   2.890
19004WAT     H257255   3.346   4.111   2.838
19005WAT      O57256   8.767   5.960   3.771
19005WAT     H157257   8.734   5.910   3.851
19005WAT     H257258   8.832   5.903   3.721
19006WAT      O57259   4.071   1.102   8.493
19006WAT     H157260   4.053   1.174   8.426
19006WAT     H257261   4.154   1.125   8.544
19007WAT      O57262   7.789   8.161   6.499
19007WAT     H157263   7.716   8.225   6.523
19007WAT     H257264   7.819   8.113   6.581
19008WAT      O57265   3.503   0.905   1.897
19008WAT     H157266   3.594   0.867   1.883
19008WAT     H257267   3.506   0.975   1.968
19009WAT      O57268   0.877   0.671   9.380
19009WAT     H157269   0.972   0.640   9.385
19009WAT     H257270   0.866   0.753   9.436
19010WAT      O57271   6.611   4.126   4.942
19010WAT     H157272   6.664   4.176   5.010
19010WAT     H257273   6.555   4.057   4.988
19011WAT      O57274   0.045   2.347   5.954
19011WAT     H157275   0.065   2.322   6.049
19011WAT     H257276   0.064   2.268   5.895
19012WAT      O57277   8.281   3.809   6.439
19012WAT     H157278   8.349   3.878   6.464
19012WAT     H257279   8.189   3.846   6.452
19013WAT      O57280   0.046   3.841   6.781
19013WAT     H157281   0.127   3.817   6.728
19013WAT     H257282   0.023   3.937   6.766
19014WAT      O57283   6.559   6.822   5.070
19014WAT     H157284   6.571   6.849   5.165
19014WAT     H257285   6.556   6.722   5.064
19015WAT      O57286   2.608   3.686   6.308
19015WAT     H157287   2.573   3.669   6.400
19015WAT     H257288   2.708   3.694   6.312
19016WAT      O57289   2.940   6.797   3.082
19016WAT     H157290   3.010   6.745   3.034
19016WAT     H257291   2.982   6.859   3.148
19017WAT      O57292   0.765   6.106   3.611
19017WAT     H157293   0.810   6.135   3.527
19017WAT     H257294   0.828   6.118   3.688
19018WAT      O57295   3.649   0.265   7.201
19018WAT     H157296   3.677   0.308   7.287
19018WAT     H257297   3.553   0.285   7.183
19019WAT      O57298   7.787   0.710   5.300
19019WAT     H157299   7.726   0.788   5.317
19019WAT     H257300   7.761   0.634   5.360
19020WAT      O57301   6.606   9.019   3.965
19020WAT     H157302   6.583   9.063   4.051
19020WAT     H257303   6.697   8.977   3.972
19021WAT      O57304   4.299   6.311   4.719
19021WAT     H157305   4.202   6.326   4.698
19021WAT     H257306   4.355   6.362   4.655
19022WAT      O57307   2.102   1.891   5.365
19022WAT     H157308   2.025   1.853   5.417
19022WAT     H257309   2.181   1.901   5.425
19023WAT      O57310   6.765   6.745   8.867
19023WAT     H157311   6.810   6.766   8.955
19023WAT     H257312   6.829   6.764   8.792
19024WAT      O57313   8.914   1.514   4.033
19024WAT     H157314   8.877   1.601   4.000
19024WAT     H257315   8.872   1.438   3.982
19025WAT      O57316   5.586   8.820   1.473
19025WAT     H157317   5.512   8.776   1.523
19025WAT     H257318   5.566   8.820   1.375
19026WAT      O57319   7.630   7.808   4.823
19026WAT     H157320   7.600   7.713   4.813
19026WAT     H257321   7.568   7.868   4.772
19027WAT      O57322   9.039   1.714   2.491
19027WAT     H157323   9.013   1.794   2.545
19027WAT     H257324   8.958   1.677   2.446
19028WAT      O57325   9.810   0.613   3.258
19028WAT     H157326   9.763   0.564   3.184
19028WAT     H257327   9.873   0.680   3.219
19029WAT      O57328   8.971   9.223   6.677
19029WAT     H157329   8.970   9.294   6.747
19029WAT     H257330   9.039   9.154   6.699
19030WAT      O57331   0.220   5.735   5.188
19030WAT     H157332   0.227   5.635   5.183
19030WAT     H257333   0.303   5.775   5.149
19031WAT      O57334   1.126   2.083   6.724
19031WAT     H157335   1.194   2.155   6.736
19031WAT     H257336   1.138   2.014   6.795
19032WAT      O57337   4.139   8.165   5.921
19032WAT     H157338   4.142   8.158   5.822
19032WAT     H257339   4.069   8.102   5.957
19033WAT      O57340   9.705   3.108   0.334
19033WAT     H157341   9.785   3.049   0.346
19033WAT     H257342   9.670   3.098   0.241
19034WAT      O57343   6.342   6.161   8.707
19034WAT     H157344   6.399   6.167   8.788
19034WAT     H257345   6.339   6.251   8.662
19035WAT      O57346   4.589   8.476   2.765
19035WAT     H157347   4.665   8.475   2.700
19035WAT     H257348   4.547   8.385   2.768
19036WAT      O57349   3.717   6.453   5.435
19036WAT     H157350   3.738   6.488   5.344
19036WAT     H257351   3.642   6.506   5.475
19037WAT      O57352   4.135   4.923   9.724
19037WAT     H157353   4.110   4.991   9.793
19037WAT     H257354   4.193   4.966   9.655
19038WAT      O57355   3.718   6.306   0.270
19038WAT     H157356   3.679   6.225   0.314
19038WAT     H257357   3.806   6.328   0.313
19039WAT      O57358   8.720   2.610   3.873
19039WAT     H157359   8.671   2.652   3.796
19039WAT     H257360   8.694   2.657   3.958
19040WAT      O57361   0.265   3.137   7.476
19040WAT     H157362   0.204   3.070   7.434
19040WAT     H257363   0.332   3.169   7.410
19041WAT      O57364   8.737   8.929   8.781
19041WAT     H157365   8.794   8.847   8.773
19041WAT     H257366   8.761   8.978   8.865
19042WAT      O57367   0.071   4.077   2.376
19042WAT     H157368  -0.019   4.044   2.404
19042WAT     H257369   0.076   4.078   2.276
19043WAT      O57370   1.734   3.692   1.732
19043WAT     H157371   1.756   3.757   1.660
19043WAT     H257372   1.642   3.710   1.766
19044WAT      O57373   1.579   6.324   6.879
19044WAT     H157374   1.633   6.258   6.932
19044WAT     H257375   1.545   6.396   6.939
19045WAT      O57376   3.542   0.628   2.021
19045WAT     H157377   3.537   0.665   1.929
19045WAT     H257378   3.509   0.533   2.021
19046WAT      O57379   6.983   7.864   0.254
19046WAT     H157380   7.021   7.783   0.209
19046WAT     H257381   7.043   7.892   0.329
19047WAT      O57382   0.323   7.866   8.806
19047WAT     H157383   0.305   7.948   8.752
19047WAT     H257384   0.239   7.838   8.853
19048WAT      O57385   4.692   9.752   3.632
19048WAT     H157386   4.687   9.709   3.723
19048WAT     H257387   4.602   9.790   3.609
19049WAT      O57388   0.159   9.820   1.243
19049WAT     H157389   0.251   9.808   1.280
19049WAT     H257390   0.117   9.730   1.229
19050WAT      O57391   8.295   2.127   3.841
19050WAT     H157392   8.270   2.223   3.856
19050WAT     H257393   8.390   2.121   3.810
19051WAT      O57394   1.738   9.297   4.835
19051WAT     H157395   1.814   9.344   4.881
19051WAT     H257396   1.739   9.321   4.738
19052WAT      O57397   9.480   0.525   4.423
19052WAT     H157398   9.448   0.481   4.339
19052WAT     H257399   9.412   0.592   4.453
19053WAT      O57400   1.376   4.058   4.166
19053WAT     H157401   1.447   4.069   4.235
19053WAT     H257402   1.322   4.142   4.160
19054WAT      O57403   3.494   7.904   7.562
19054WAT     H157404   3.401   7.880   7.592
19054WAT     H257405   3.500   7.890   7.463
19055WAT      O57406   1.364   6.070   0.065
19055WAT     H157407   1.303   6.040   0.138
19055WAT     H257408   1.402   6.160   0.088
19056WAT      O57409   8.772   0.759   4.780
19056WAT     H157410   8.764   0.824   4.704
19056WAT     H257411   8.727   0.797   4.861
19057WAT      O57412   3.635   7.810   4.284
19057WAT     H157413   3.605   7.803   4.189
19057WAT     H257414   3.698   7.735   4.304
19058WAT      O57415   0.932   5.998   7.425
19058WAT     H157416   1.015   6.042   7.461
19058WAT     H257417   0.917   6.027   7.331
19059WAT      O57418   2.386   5.182   7.215
19059WAT     H157419   2.289   5.175   7.238
19059WAT     H257420   2.403   5.271   7.172
19060WAT      O57421   4.002   4.461   9.312
19060WAT     H157422   3.992   4.448   9.411
19060WAT     H257423   4.071   4.531   9.294
19061WAT      O57424   4.716   3.027   5.596
19061WAT     H157425   4.622   3.047   5.621
19061WAT     H257426   4.756   3.105   5.549
19062WAT      O57427   4.611   4.524   3.800
19062WAT     H157428   4.647   4.476   3.880
19062WAT     H257429   4.645   4.618   3.799
19063WAT      O57430   2.870   1.067   9.523
19063WAT     H157431   2.930   1.139   9.488
19063WAT     H257432   2.775   1.096   9.513
19064WAT      O57433   6.667   0.445   5.840
19064WAT     H157434   6.573   0.448   5.872
19064WAT     H257435   6.724   0.395   5.906
19065WAT      O57436   3.948   5.820   9.519
19065WAT     H157437   3.996   5.760   9.454
19065WAT     H257438   3.856   5.784   9.535
19066WAT      O57439   2.243   6.070   9.290
19066WAT     H157440   2.303   5.998   9.325
19066WAT     H257441   2.263   6.155   9.338
19067WAT      O57442   9.770   9.036   6.110
19067WAT     H157443   9.793   8.981   6.030
19067WAT     H257444   9.697   9.101   6.087
19068WAT      O57445   4.607   9.577   2.001
19068WAT     H157446   4.519   9.569   2.048
19068WAT     H257447   4.668   9.637   2.052
19069WAT      O57448   9.264   6.484   6.237
19069WAT     H157449   9.164   6.493   6.231
19069WAT     H257450   9.287   6.389   6.256
19070WAT      O57451   4.230   5.800   7.316
19070WAT     H157452   4.243   5.792   7.217
19070WAT     H257453   4.313   5.771   7.363
19071WAT      O57454   3.603   3.938   8.087
19071WAT     H157455   3.606   3.987   8.175
19071WAT     H257456   3.695   3.907   8.064
19072WAT      O57457   5.248   5.052   8.365
19072WAT     H157458   5.251   5.095   8.276
19072WAT     H257459   5.158   5.066   8.406
19073WAT      O57460   9.158   7.129   8.766
19073WAT     H157461   9.075   7.173   8.801
19073WAT     H257462   9.180   7.166   8.676
19074WAT      O57463   4.533   9.590   4.755
19074WAT     H157464   4.628   9.573   4.730
19074WAT     H257465   4.492   9.507   4.792
19075WAT      O57466   3.800   4.374   7.817
19075WAT     H157467   3.819   4.457   7.765
19075WAT     H257468   3.795   4.296   7.755
19076WAT      O57469   6.530   5.992   8.221
19076WAT     H157470   6.468   6.065   8.194
19076WAT     H257471   6.604   6.029   8.277
19077WAT      O57472   4.720   1.381   9.620
19077WAT     H157473   4.657   1.382   9.698
19077WAT     H257474   4.667   1.382   9.535
19078WAT      O57475   6.973   4.793   1.354
19078WAT     H157476   7.005   4.812   1.261
19078WAT     H257477   6.877   4.764   1.350
19079WAT      O57478   3.297   1.505   7.766
19079WAT     H157479   3.395   1.519   7.782
19079WAT     H257480   3.277   1.515   7.669
19080WAT      O57481   9.236   4.688   4.627
19080WAT     H157482   9.241   4.785   4.648
19080WAT     H257483   9.329   4.651   4.618
19081WAT      O57484   1.415   6.477   4.993
19081WAT     H157485   1.349   6.533   4.944
19081WAT     H257486   1.408   6.495   5.091
19082WAT      O57487   0.657   2.133   3.642
19082WAT     H157488   0.737   2.193   3.655
19082WAT     H257489   0.688   2.041   3.619
19083WAT      O57490   9.723   8.411   3.603
19083WAT     H157491   9.673   8.336   3.645
19083WAT     H257492   9.814   8.418   3.644
19084WAT      O57493   9.501   5.614   9.337
19084WAT     H157494   9.479   5.708   9.362
19084WAT     H257495   9.438   5.583   9.265
19085WAT      O57496   5.758   5.251   5.496
19085WAT     H157497   5.781   5.315   5.423
19085WAT     H257498   5.761   5.158   5.461
19086WAT      O57499   8.651   5.678   1.488
19086WAT     H157500   8.580   5.626   1.533
19086WAT     H257501   8.613   5.726   1.409
19087WAT      O57502   1.859   1.370   6.022
19087WAT     H157503   1.919   1.293   6.005
19087WAT     H257504   1.912   1.455   6.024
19088WAT      O57505   6.491   1.383   3.327
19088WAT     H157506   6.420   1.360   3.260
19088WAT     H257507   6.578   1.341   3.300
19089WAT      O57508   7.723   3.671   7.026
19089WAT     H157509   7.752   3.606   6.955
19089WAT     H257510   7.672   3.622   7.097
19090WAT      O57511   0.523   4.186   7.745
19090WAT     H157512   0.451   4.227   7.688
19090WAT     H257513   0.525   4.231   7.834
19091WAT      O57514   0.427   1.571   5.004
19091WAT     H157515   0.495   1.611   4.942
19091WAT     H257516   0.473   1.516   5.073
19092WAT      O57517   1.829   1.835   4.386
19092WAT     H157518   1.907   1.886   4.422
19092WAT     H257519   1.859   1.771   4.316
19093WAT      O57520   0.931   9.478   9.151
19093WAT     H157521   0.975   9.557   9.194
19093WAT     H257522   0.946   9.481   9.052
19094WAT      O57523   7.036   2.897   7.160
19094WAT     H157524   7.027   2.953   7.078
19094WAT     H257525   7.125   2.851   7.159
19095WAT      O57526   2.398   6.714   4.127
19095WAT     H157527   2.471   6.652   4.156
19095WAT     H257528   2.434   6.807   4.123
19096WAT      O57529   6.573   9.173   1.839
19096WAT     H157530   6.491   9.131   1.878
19096WAT     H257531   6.596   9.127   1.753
19097WAT      O57532   7.602   0.744   0.026
19097WAT     H157533   7.671   0.676   0.049
19097WAT     H257534   7.560   0.779   0.110
19098WAT      O57535   1.556   6.496   4.422
19098WAT     H157536   1.531   6.587   4.392
19098WAT     H257537   1.612   6.502   4.505
19099WAT      O57538   9.884   5.989   1.921
19099WAT     H157539   9.812   6.039   1.969
19099WAT     H257540   9.849   5.955   1.834
19100WAT      O57541   0.427   8.281   6.731
19100WAT     H157542   0.450   8.374   6.760
19100WAT     H257543   0.349   8.248   6.784
19101WAT      O57544   2.193   2.513   5.359
19101WAT     H157545   2.117   2.527   5.296
19101WAT     H257546   2.257   2.589   5.352
19102WAT      O57547   2.605   0.828   9.302
19102WAT     H157548   2.531   0.761   9.306
19102WAT     H257549   2.591   0.889   9.225
19103WAT      O57550   8.920   9.166   1.065
19103WAT     H157551   8.837   9.119   1.034
19103WAT     H257552   8.989   9.163   0.993
19104WAT      O57553   9.749   5.965   1.667
19104WAT     H157554   9.825   5.920   1.620
19104WAT     H257555   9.669   5.966   1.608
19105WAT      O57556   6.401   2.973   2.317
19105WAT     H157557   6.390   2.996   2.220
19105WAT     H257558   6.341   3.031   2.372
19106WAT      O57559   3.477   1.528   4.581
19106WAT     H157560   3.541   1.470   4.632
19106WAT     H257561   3.468   1.492   4.488
19107WAT      O57562   8.756   6.587   6.097
19107WAT     H157563   8.752   6.550   6.004
19107WAT     H257564   8.664   6.590   6.136
19108WAT      O57565   8.406   6.699   1.092
19108WAT     H157566   8.440   6.765   1.025
19108WAT     H257567   8.322   6.734   1.132
19109WAT      O57568   6.274   2.156   4.590
19109WAT     H157569   6.336   2.194   4.522
19109WAT     H257570   6.320   2.154   4.679
19110WAT      O57571   7.326   4.224   8.918
19110WAT     H157572   7.332   4.279   8.834
19110WAT     H257573   7.270   4.143   8.901
19111WAT      O57574   6.086   5.286   3.607
19111WAT     H157575   6.070   5.234   3.691
19111WAT     H257576   6.182   5.314   3.602
19112WAT      O57577   4.654   0.508   8.301
19112WAT     H157578   4.646   0.528   8.204
19112WAT     H257579   4.726   0.564   8.341
19113WAT      O57580   6.161   4.474   0.229
19113WAT     H157581   6.207   4.455   0.142
19113WAT     H257582   6.076   4.422   0.235
19114WAT      O57583   4.482   3.226   4.896
19114WAT     H157584   4.557   3.168   4.866
19114WAT     H257585   4.428   3.179   4.966
19115WAT      O57586   5.800   4.076   4.976
19115WAT     H157587   5.835   4.166   5.001
19115WAT     H257588   5.796   4.018   5.058
19116WAT      O57589   5.307   2.833   3.526
19116WAT     H157590   5.242   2.825   3.450
19116WAT     H257591   5.392   2.788   3.502
19117WAT      O57592   8.188   1.010   9.657
19117WAT     H157593   8.221   0.944   9.589
19117WAT     H257594   8.088   1.005   9.662
19118WAT      O57595   9.324   4.882   5.499
19118WAT     H157596   9.404   4.829   5.469
19118WAT     H257597   9.355   4.961   5.552
19119WAT      O57598   1.219   7.376   2.100
19119WAT     H157599   1.220   7.324   2.185
19119WAT     H257600   1.189   7.469   2.118
19120WAT      O57601   6.423   3.767   1.823
19120WAT     H157602   6.482   3.727   1.893
19120WAT     H257603   6.340   3.803   1.866
19121WAT      O57604   4.503   9.005   5.162
19121WAT     H157605   4.439   8.951   5.108
19121WAT     H257606   4.454   9.051   5.236
19122WAT      O57607   6.900   4.775   8.870
19122WAT     H157608   6.869   4.682   8.848
19122WAT     H257609   6.856   4.840   8.808
19123WAT      O57610   2.334   3.403   2.869
19123WAT     H157611   2.280   3.359   2.797
19123WAT     H257612   2.286   3.485   2.901
19124WAT      O57613   5.722   1.499   5.981
19124WAT     H157614   5.741   1.574   6.044
19124WAT     H257615   5.774   1.418   6.009
19125WAT      O57616   2.523   4.334   4.777
19125WAT     H157617   2.441   4.391   4.772
19125WAT     H257618   2.497   4.239   4.796
19126WAT      O57619   7.295   3.903   5.848
19126WAT     H157620   7.371   3.915   5.784
19126WAT     H257621   7.286   3.985   5.904
19127WAT      O57622   2.225   2.561   0.199
19127WAT     H157623   2.303   2.615   0.230
19127WAT     H257624   2.197   2.498   0.272
19128WAT      O57625   1.750   3.886   6.298
19128WAT     H157626   1.776   3.978   6.270
19128WAT     H257627   1.650   3.880   6.304
19129WAT      O57628   2.416   9.462   8.576
19129WAT     H157629   2.507   9.422   8.586
19129WAT     H257630   2.424   9.555   8.540
19130WAT      O57631   2.950   0.055   4.253
19130WAT     H157632   2.867   0.009   4.286
19130WAT     H257633   2.996  -0.003   4.186
19131WAT      O57634   3.164   5.838   7.152
19131WAT     H157635   3.179   5.845   7.053
19131WAT     H257636   3.205   5.754   7.186
19132WAT      O57637   7.084   0.507   8.950
19132WAT     H157638   7.058   0.416   8.984
19132WAT     H257639   7.012   0.542   8.890
19133WAT      O57640   4.328   4.328   4.528
19133WAT     H157641   4.343   4.347   4.625
19133WAT     H257642   4.415   4.303   4.485
19134WAT      O57643   9.788   4.802   0.726
19134WAT     H157644   9.784   4.833   0.631
19134WAT     H257645   9.866   4.846   0.772
19135WAT      O57646   2.687   3.153   9.020
19135WAT     H157647   2.699   3.085   8.948
19135WAT     H257648   2.605   3.131   9.073
19136WAT      O57649   8.908   8.585   1.418
19136WAT     H157650   8.903   8.681   1.388
19136WAT     H257651   9.003   8.554   1.416
19137WAT      O57652   7.104   2.509   2.163
19137WAT     H157653   7.104   2.425   2.218
19137WAT     H257654   7.016   2.556   2.175
19138WAT      O57655   6.225   8.032   1.601
19138WAT     H157656   6.314   8.078   1.610
19138WAT     H257657   6.155   8.087   1.645
19139WAT      O57658   9.754   1.357   4.062
19139WAT     H157659   9.694   1.281   4.039
19139WAT     H257660   9.699   1.434   4.095
19140WAT      O57661   3.025   3.282   5.625
19140WAT     H157662   2.968   3.203   5.649
19140WAT     H257663   3.083   3.259   5.547
19141WAT      O57664   7.258   0.201   9.335
19141WAT     H157665   7.236   0.106   9.314
19141WAT     H257666   7.174   0.253   9.347
19142WAT      O57667   0.132   9.498   5.339
19142WAT     H157668   0.095   9.583   5.304
19142WAT     H257669   0.093   9.421   5.289
19143WAT      O57670   3.043   2.675   9.806
19143WAT     H157671   3.050   2.649   9.903
19143WAT     H257672   3.133   2.673   9.765
19144WAT      O57673   9.332   5.271   0.295
19144WAT     H157674   9.398   5.277   0.369
19144WAT     H257675   9.240   5.259   0.333
19145WAT      O57676   8.279   1.593   1.106
19145WAT     H157677   8.248   1.545   1.024
19145WAT     H257678   8.365   1.641   1.086
19146WAT      O57679   6.695   0.026   2.167
19146WAT     H157680   6.730   0.041   2.074
19146WAT     H257681   6.755  -0.038   2.215
19147WAT      O57682   1.887   0.064   6.941
19147WAT     H157683   1.789   0.058   6.956
19147WAT     H257684   1.935   0.057   7.028
19148WAT      O57685   7.462   2.731   3.711
19148WAT     H157686   7.508   2.754   3.626
19148WAT     H257687   7.509   2.655   3.756
19149WAT      O57688   0.758   0.279   1.019
19149WAT     H157689   0.701   0.308   0.942
19149WAT     H257690   0.700   0.237   1.088
19150WAT      O57691   2.376   3.781   9.745
19150WAT     H157692   2.429   3.722   9.685
19150WAT     H257693   2.326   3.726   9.811
19151WAT      O57694   1.460   0.047   6.402
19151WAT     H157695   1.495   0.139   6.389
19151WAT     H257696   1.399   0.046   6.482
19152WAT      O57697   6.788   0.008   0.835
19152WAT     H157698   6.806   0.052   0.924
19152WAT     H257699   6.689  -0.000   0.821
19153WAT      O57700   2.620   9.052   3.495
19153WAT     H157701   2.551   9.074   3.426
19153WAT     H257702   2.629   9.128   3.559
19154WAT      O57703   7.323   6.784   8.064
19154WAT     H157704   7.305   6.806   7.968
19154WAT     H257705   7.419   6.759   8.075
19155WAT      O57706   5.865   1.274   5.547
19155WAT     H157707   5.940   1.265   5.613
19155WAT     H257708   5.786   1.315   5.593
19156WAT      O57709   7.740   0.465   2.089
19156WAT     H157710   7.735   0.488   1.992
19156WAT     H257711   7.750   0.549   2.142
19157WAT      O57712   1.828   6.727   9.388
19157WAT     H157713   1.817   6.774   9.475
19157WAT     H257714   1.844   6.794   9.315
19158WAT      O57715   0.654   2.352   9.455
19158WAT     H157716   0.729   2.285   9.451
19158WAT     H257717   0.665   2.418   9.381
19159WAT      O57718   8.416   9.202   3.280
19159WAT     H157719   8.507   9.172   3.310
19159WAT     H257720   8.362   9.227   3.361
19160WAT      O57721   4.159   4.204   4.199
19160WAT     H157722   4.149   4.209   4.299
19160WAT     H257723   4.220   4.128   4.176
19161WAT      O57724   0.676   3.352   4.879
19161WAT     H157725   0.765   3.397   4.880
19161WAT     H257726   0.667   3.296   4.797
19162WAT      O57727   9.750   7.034   8.689
19162WAT     H157728   9.846   7.022   8.660
19162WAT     H257729   9.725   6.960   8.751
19163WAT      O57730   8.824   2.325   0.044
19163WAT     H157731   8.782   2.319   0.134
19163WAT     H257732   8.870   2.413   0.034
19164WAT      O57733   4.783   2.744   6.515
19164WAT     H157734   4.696   2.788   6.538
19164WAT     H257735   4.854   2.813   6.505
19165WAT      O57736   8.632   4.743   8.352
19165WAT     H157737   8.559   4.758   8.418
19165WAT     H257738   8.719   4.734   8.399
19166WAT      O57739   9.278   8.163   2.190
19166WAT     H157740   9.237   8.253   2.174
19166WAT     H257741   9.300   8.154   2.287
19167WAT      O57742   5.995   9.206   0.058
19167WAT     H157743   6.065   9.137   0.078
19167WAT     H257744   6.033   9.297   0.072
19168WAT      O57745   2.020   2.201   0.653
19168WAT     H157746   2.045   2.118   0.704
19168WAT     H257747   2.057   2.194   0.560
19169WAT      O57748   3.489   9.643   8.594
19169WAT     H157749   3.402   9.617   8.637
19169WAT     H257750   3.472   9.674   8.500
19170WAT      O57751   9.316   2.673   2.140
19170WAT     H157752   9.337   2.770   2.142
19170WAT     H257753   9.235   2.657   2.085
19171WAT      O57754   3.840   0.147   3.589
19171WAT     H157755   3.753   0.162   3.636
19171WAT     H257756   3.822   0.104   3.500
19172WAT      O57757   7.043   3.438   7.622
19172WAT     H157758   6.951   3.475   7.633
19172WAT     H257759   7.050   3.390   7.534
19173WAT      O57760   0.309   3.797   9.474
19173WAT     H157761   0.241   3.838   9.534
19173WAT     H257762   0.372   3.867   9.440
19174WAT      O57763   1.870   3.647   8.758
19174WAT     H157764   1.870   3.548   8.752
19174WAT     H257765   1.776   3.680   8.769
19175WAT      O57766   4.298   0.078   8.190
19175WAT     H157767   4.296   0.112   8.284
19175WAT     H257768   4.220   0.115   8.140
19176WAT      O57769   0.923   9.713   2.088
19176WAT     H157770   0.843   9.653   2.083
19176WAT     H257771   0.893   9.809   2.084
19177WAT      O57772   0.790   4.942   1.229
19177WAT     H157773   0.785   4.907   1.135
19177WAT     H257774   0.700   4.934   1.272
19178WAT      O57775   0.306   4.111   4.207
19178WAT     H157776   0.299   4.189   4.270
19178WAT     H257777   0.214   4.079   4.183
19179WAT      O57778   2.539   2.352   3.767
19179WAT     H157779   2.467   2.291   3.734
19179WAT     H257780   2.583   2.396   3.689
19180WAT      O57781   6.180   5.875   8.056
19180WAT     H157782   6.098   5.927   8.080
19180WAT     H257783   6.199   5.807   8.128
19181WAT      O57784   0.026   8.661   1.340
19181WAT     H157785   0.003   8.748   1.384
19181WAT     H257786   0.049   8.593   1.410
19182WAT      O57787   8.324   7.795   0.705
19182WAT     H157788   8.412   7.840   0.694
19182WAT     H257789   8.280   7.829   0.789
19183WAT      O57790   4.998   5.497   4.981
19183WAT     H157791   5.062   5.564   5.020
19183WAT     H257792   5.044   5.446   4.909
19184WAT      O57793   4.742   8.122   7.452
19184WAT     H157794   4.802   8.042   7.456
19184WAT     H257795   4.721   8.143   7.357
19185WAT      O57796   3.539   4.489   1.118
19185WAT     H157797   3.527   4.531   1.028
19185WAT     H257798   3.503   4.396   1.116
19186WAT      O57799   0.438   2.893   8.022
19186WAT     H157800   0.384   2.949   7.958
19186WAT     H257801   0.533   2.925   8.022
19187WAT      O57802   7.420   6.613   3.754
19187WAT     H157803   7.409   6.677   3.678
19187WAT     H257804   7.342   6.550   3.756
19188WAT      O57805   6.775   0.453   0.788
19188WAT     H157806   6.732   0.535   0.825
19188WAT     H257807   6.843   0.419   0.852
19189WAT      O57808   4.165   7.957   0.514
19189WAT     H157809   4.121   8.041   0.544
19189WAT     H257810   4.203   7.908   0.593
19190WAT      O57811   7.359   2.287   3.742
19190WAT     H157812   7.274   2.305   3.791
19190WAT     H257813   7.349   2.313   3.646
19191WAT      O57814   2.813   8.518   9.471
19191WAT     H157815   2.802   8.424   9.439
19191WAT     H257816   2.806   8.581   9.394
19192WAT      O57817   1.446   9.427   4.671
19192WAT     H157818   1.530   9.379   4.692
19192WAT     H257819   1.396   9.378   4.600
19193WAT      O57820   5.337   3.466   1.886
19193WAT     H157821   5.302   3.445   1.978
19193WAT     H257822   5.392   3.390   1.853
19194WAT      O57823   7.005   2.190   2.182
19194WAT     H157824   7.061   2.180   2.100
19194WAT     H257825   7.053   2.249   2.247
19195WAT      O57826   3.345   0.513   2.254
19195WAT     H157827   3.391   0.457   2.186
19195WAT     H257828   3.316   0.455   2.330
19196WAT      O57829   6.717   1.856   3.848
19196WAT     H157830   6.799   1.800   3.845
19196WAT     H257831   6.743   1.953   3.850
19197WAT      O57832   4.447   8.753   8.665
19197WAT     H157833   4.433   8.828   8.729
19197WAT     H257834   4.408   8.669   8.702
19198WAT      O57835   8.352   6.824   6.516
19198WAT     H157836   8.439   6.869   6.498
19198WAT     H257837   8.341   6.810   6.615
19199WAT      O57838   4.187   3.734   7.030
19199WAT     H157839   4.108   3.710   7.087
19199WAT     H257840   4.249   3.655   7.025
19200WAT      O57841   5.610   9.035   6.778
19200WAT     H157842   5.551   8.961   6.810
19200WAT     H257843   5.603   9.112   6.841
19201WAT      O57844   4.371   8.210   6.323
19201WAT     H157845   4.286   8.158   6.332
19201WAT     H257846   4.386   8.234   6.228
19202WAT      O57847   3.237   8.412   4.220
19202WAT     H157848   3.240   8.468   4.137
19202WAT     H257849   3.304   8.446   4.286
19203WAT      O57850   7.663   2.930   6.420
19203WAT     H157851   7.568   2.902   6.412
19203WAT     H257852   7.681   2.961   6.514
19204WAT      O57853   8.584   5.006   6.088
19204WAT     H157854   8.648   5.001   6.012
19204WAT     H257855   8.520   5.082   6.073
19205WAT      O57856   3.505   9.733   5.021
19205WAT     H157857   3.577   9.797   4.993
19205WAT     H257858   3.455   9.771   5.099
19206WAT      O57859   6.048   4.534   5.085
19206WAT     H157860   6.047   4.434   5.088
19206WAT     H257861   5.956   4.568   5.106
19207WAT      O57862   0.746   5.039   5.014
19207WAT     H157863   0.783   4.982   4.941
19207WAT     H257864   0.680   4.986   5.068
19208WAT      O57865   8.066   4.167   4.549
19208WAT     H157866   8.008   4.247   4.565
19208WAT     H257867   8.133   4.188   4.478
19209WAT      O57868   1.646   5.859   5.442
19209WAT     H157869   1.737   5.867   5.402
19209WAT     H257870   1.610   5.767   5.424
19210WAT      O57871   6.878   3.236   2.486
19210WAT     H157872   6.824   3.246   2.402
19210WAT     H257873   6.866   3.144   2.523
19211WAT      O57874   8.823   5.003   3.353
19211WAT     H157875   8.863   5.024   3.264
19211WAT     H257876   8.875   4.929   3.396
19212WAT      O57877   7.643   1.288   0.049
19212WAT     H157878   7.647   1.189   0.043
19212WAT     H257879   7.633   1.316   0.145
19213WAT      O57880   8.729   9.830   6.365
19213WAT     H157881   8.632   9.833   6.389
19213WAT     H257882   8.784   9.832   6.448
19214WAT      O57883   0.196   2.828   5.026
19214WAT     H157884   0.212   2.756   4.960
19214WAT     H257885   0.281   2.851   5.073
19215WAT      O57886   7.356   9.595   0.914
19215WAT     H157887   7.331   9.536   0.991
19215WAT     H257888   7.456   9.598   0.905
19216WAT      O57889   0.514   1.869   8.052
19216WAT     H157890   0.521   1.965   8.080
19216WAT     H257891   0.559   1.811   8.121
19217WAT      O57892   6.095   2.188   0.109
19217WAT     H157893   6.077   2.102   0.157
19217WAT     H257894   6.062   2.264   0.164
19218WAT      O57895   0.624   9.369   0.626
19218WAT     H157896   0.555   9.438   0.604
19218WAT     H257897   0.594   9.280   0.592
19219WAT      O57898   6.434   6.060   1.982
19219WAT     H157899   6.379   6.140   2.007
19219WAT     H257900   6.529   6.075   2.009
19220WAT      O57901   1.632   2.587   9.853
19220WAT     H157902   1.625   2.592   9.753
19220WAT     H257903   1.587   2.667   9.893
19221WAT      O57904   1.199   6.258   1.725
19221WAT     H157905   1.245   6.268   1.637
19221WAT     H257906   1.189   6.347   1.768
19222WAT      O57907   6.480   0.532   7.340
19222WAT     H157908   6.548   0.556   7.271
19222WAT     H257909   6.507   0.446   7.385
19223WAT      O57910   2.023   0.105   4.850
19223WAT     H157911   2.090   0.145   4.913
19223WAT     H257912   2.047   0.010   4.831
19224WAT      O57913   1.826   3.463   2.486
19224WAT     H157914   1.758   3.532   2.511
19224WAT     H257915   1.783   3.372   2.487
19225WAT      O57916   4.088   1.864   0.746
19225WAT     H157917   4.103   1.872   0.844
19225WAT     H257918   3.991   1.853   0.728
19226WAT      O57919   1.905   0.561   0.912
19226WAT     H157920   1.992   0.608   0.926
19226WAT     H257921   1.897   0.533   0.816
19227WAT      O57922   4.415   3.633   8.737
19227WAT     H157923   4.408   3.602   8.831
19227WAT     H257924   4.494   3.590   8.693
19228WAT      O57925   7.730   8.252   2.248
19228WAT     H157926   7.650   8.303   2.219
19228WAT     H257927   7.810   8.281   2.194
19229WAT      O57928   0.029   7.325   9.225
19229WAT     H157929  -0.014   7.308   9.137
19229WAT     H257930   0.089   7.405   9.217
19230WAT      O57931   1.404   0.975   5.285
19230WAT     H157932   1.397   0.923   5.200
19230WAT     H257933   1.443   1.065   5.266
19231WAT      O57934   7.079   6.110   7.505
19231WAT     H157935   7.053   6.206   7.499
19231WAT     H257936   7.140   6.096   7.583
19232WAT      O57937   1.155   2.355   9.848
19232WAT     H157938   1.106   2.327   9.766
19232WAT     H257939   1.198   2.444   9.833
19233WAT      O57940   1.273   3.170   3.475
19233WAT     H157941   1.319   3.210   3.397
19233WAT     H257942   1.239   3.242   3.536
19234WAT      O57943   6.188   0.223   0.943
19234WAT     H157944   6.210   0.320   0.930
19234WAT     H257945   6.220   0.194   1.033
19235WAT      O57946   9.230   4.991   9.294
19235WAT     H157947   9.210   5.056   9.367
19235WAT     H257948   9.294   4.922   9.327
19236WAT      O57949   4.140   5.510   7.030
19236WAT     H157950   4.211   5.462   7.082
19236WAT     H257951   4.108   5.589   7.082
19237WAT      O57952   2.910   5.411   8.369
19237WAT     H157953   2.831   5.349   8.373
19237WAT     H257954   2.878   5.505   8.361
19238WAT      O57955   9.472   2.755   3.457
19238WAT     H157956   9.451   2.767   3.555
19238WAT     H257957   9.526   2.672   3.445
19239WAT      O57958   6.777   1.342   5.418
19239WAT     H157959   6.868   1.346   5.459
19239WAT     H257960   6.755   1.430   5.377
19240WAT      O57961   7.074   5.291   0.013
19240WAT     H157962   7.136   5.350  -0.039
19240WAT     H257963   7.009   5.348   0.064
19241WAT      O57964   8.087   9.508   2.274
19241WAT     H157965   8.131   9.587   2.317
19241WAT     H257966   7.989   9.525   2.266
19242WAT      O57967   6.612   3.660   6.039
19242WAT     H157968   6.541   3.689   6.104
19242WAT     H257969   6.681   3.606   6.087
19243WAT      O57970   1.280   3.128   3.034
19243WAT     H157971   1.366   3.136   2.983
19243WAT     H257972   1.254   3.031   3.038
19244WAT      O57973   0.547   1.108   4.243
19244WAT     H157974   0.637   1.120   4.201
19244WAT     H257975   0.536   1.175   4.317
19245WAT      O57976   9.683   6.884   4.657
19245WAT     H157977   9.747   6.872   4.733
19245WAT     H257978   9.616   6.954   4.681
19246WAT      O57979   7.477   7.333   4.717
19246WAT     H157980   7.428   7.279   4.786
19246WAT     H257981   7.575   7.332   4.737
19247WAT      O57982   3.078   7.021   8.074
19247WAT     H157983   3.078   7.107   8.022
19247WAT     H257984   3.173   6.991   8.087
19248WAT      O57985   2.491   1.011   8.485
19248WAT     H157986   2.562   0.975   8.545
19248WAT     H257987   2.448   0.935   8.435
19249WAT      O57988   1.636   7.624   6.090
19249WAT     H157989   1.599   7.566   6.163
19249WAT     H257990   1.721   7.584   6.056
19250WAT      O57991   1.840   9.099   4.195
19250WAT     H157992   1.871   9.084   4.289
19250WAT     H257993   1.914   9.141   4.142
19251WAT      O57994   2.169   9.332   2.398
19251WAT     H157995   2.265   9.352   2.418
19251WAT     H257996   2.160   9.298   2.305
19252WAT      O57997   9.830   2.937   4.744
19252WAT     H157998   9.781   2.953   4.658
19252WAT     H257999   9.918   2.894   4.725
19253WAT      O58000   2.179   5.198   7.547
19253WAT     H158001   2.275   5.170   7.545
19253WAT     H258002   2.132   5.149   7.621
19254WAT      O58003   0.886   5.321   9.874
19254WAT     H158004   0.970   5.356   9.915
19254WAT     H258005   0.900   5.303   9.777
19255WAT      O58006   4.129   4.738   4.287
19255WAT     H158007   4.189   4.693   4.353
19255WAT     H258008   4.134   4.837   4.298
19256WAT      O58009   3.475   1.056   6.857
19256WAT     H158010   3.423   1.045   6.942
19256WAT     H258011   3.549   0.989   6.854
19257WAT      O58012   9.541   5.047   5.300
19257WAT     H158013   9.544   4.954   5.338
19257WAT     H258014   9.465   5.097   5.341
19258WAT      O58015   2.253   9.406   7.988
19258WAT     H158016   2.233   9.421   8.085
19258WAT     H258017   2.173   9.429   7.933
19259WAT      O58018   6.452   2.499   9.630
19259WAT     H158019   6.393   2.524   9.708
19259WAT     H258020   6.498   2.580   9.595
19260WAT      O58021   8.489   2.944   1.483
19260WAT     H158022   8.409   2.885   1.471
19260WAT     H258023   8.499   3.004   1.404
19261WAT      O58024   8.565   3.771   9.609
19261WAT     H158025   8.485   3.717   9.635
19261WAT     H258026   8.567   3.856   9.663
19262WAT      O58027   2.695   1.881   5.532
19262WAT     H158028   2.636   1.892   5.453
19262WAT     H258029   2.647   1.829   5.603
19263WAT      O58030   2.199   3.815   7.219
19263WAT     H158031   2.180   3.829   7.122
19263WAT     H258032   2.114   3.825   7.271
19264WAT      O58033   7.813   2.879   2.417
19264WAT     H158034   7.758   2.809   2.371
19264WAT     H258035   7.909   2.852   2.416
19265WAT      O58036   3.527   6.831   1.068
19265WAT     H158037   3.586   6.806   0.992
19265WAT     H258038   3.583   6.861   1.146
19266WAT      O58039   6.818   9.846   7.176
19266WAT     H158040   6.820   9.799   7.087
19266WAT     H258041   6.908   9.836   7.220
19267WAT      O58042   6.001   0.286   1.326
19267WAT     H158043   5.923   0.256   1.380
19267WAT     H258044   6.085   0.276   1.380
19268WAT      O58045   3.348   0.547   3.380
19268WAT     H158046   3.414   0.480   3.414
19268WAT     H258047   3.312   0.599   3.457
19269WAT      O58048  -0.003   9.188   0.790
19269WAT     H158049  -0.021   9.143   0.702
19269WAT     H258050   0.068   9.137   0.840
19270WAT      O58051   1.705   3.365   6.217
19270WAT     H158052   1.719   3.461   6.193
19270WAT     H258053   1.640   3.359   6.294
19271WAT      O58054   3.050   9.528   9.389
19271WAT     H158055   2.972   9.547   9.329
19271WAT     H258056   3.092   9.441   9.364
19272WAT      O58057   0.156   7.755   3.820
19272WAT     H158058   0.242   7.804   3.835
19272WAT     H258059   0.176   7.667   3.775
19273WAT      O58060   3.634   8.488   3.642
19273WAT     H158061   3.658   8.393   3.663
19273WAT     H258062   3.593   8.492   3.550
19274WAT      O58063   5.642   8.803   3.473
19274WAT     H158064   5.633   8.738   3.548
19274WAT     H258065   5.633   8.754   3.386
19275WAT      O58066   6.837   4.627   3.613
19275WAT     H158067   6.847   4.719   3.651
19275WAT     H258068   6.744   4.594   3.631
19276WAT      O58069   2.731   1.430   8.849
19276WAT     H158070   2.813   1.412   8.794
19276WAT     H258071   2.758   1.470   8.937
19277WAT      O58072   7.273   6.987   2.607
19277WAT     H158073   7.366   6.956   2.587
19277WAT     H258074   7.254   7.072   2.558
19278WAT      O58075   8.050   0.545   6.763
19278WAT     H158076   8.049   0.644   6.777
19278WAT     H258077   7.996   0.523   6.681
19279WAT      O58078   3.931   5.442   4.065
19279WAT     H158079   3.907   5.496   3.985
19279WAT     H258080   3.858   5.448   4.133
19280WAT      O58081   4.965   4.006   7.804
19280WAT     H158082   4.994   3.946   7.878
19280WAT     H258083   4.897   3.959   7.748
19281WAT      O58084   6.525   4.687   8.162
19281WAT     H158085   6.484   4.778   8.168
19281WAT     H258086   6.583   4.681   8.081
19282WAT      O58087   5.451   4.784   2.301
19282WAT     H158088   5.500   4.797   2.387
19282WAT     H258089   5.470   4.692   2.266
19283WAT      O58090   8.363   0.622   4.854
19283WAT     H158091   8.360   0.721   4.865
19283WAT     H258092   8.270   0.584   4.864
19284WAT      O58093   6.961   0.062   9.233
19284WAT     H158094   6.940   0.118   9.313
19284WAT     H258095   6.887  -0.004   9.219
19285WAT      O58096   1.768   4.819   2.715
19285WAT     H158097   1.799   4.803   2.622
19285WAT     H258098   1.693   4.885   2.714
19286WAT      O58099   8.402   9.372   1.641
19286WAT     H158100   8.465   9.296   1.657
19286WAT     H258101   8.453   9.453   1.613
19287WAT      O58102   4.635   5.829   7.804
19287WAT     H158103   4.686   5.860   7.884
19287WAT     H258104   4.537   5.831   7.824
19288WAT      O58105   0.310   6.412   3.930
19288WAT     H158106   0.245   6.337   3.921
19288WAT     H258107   0.375   6.392   4.004
19289WAT      O58108   0.609   5.235   2.048
19289WAT     H158109   0.623   5.329   2.079
19289WAT     H258110   0.697   5.188   2.041
19290WAT      O58111   5.277   3.236   1.303
19290WAT     H158112   5.258   3.191   1.215
19290WAT     H258113   5.300   3.332   1.287
19291WAT      O58114   1.700   1.466   8.377
19291WAT     H158115   1.708   1.496   8.472
19291WAT     H258116   1.786   1.425   8.348
19292WAT      O58117   6.704   2.530   5.913
19292WAT     H158118   6.619   2.542   5.861
19292WAT     H258119   6.780   2.517   5.849
19293WAT      O58120   7.134   9.158   6.610
19293WAT     H158121   7.169   9.123   6.697
19293WAT     H258122   7.121   9.257   6.617
19294WAT      O58123   8.559   6.418   7.644
19294WAT     H158124   8.513   6.373   7.720
19294WAT     H258125   8.586   6.349   7.576
19295WAT      O58126   7.281   4.775   2.998
19295WAT     H158127   7.294   4.870   3.025
19295WAT     H258128   7.369   4.727   2.998
19296WAT      O58129   9.305   0.969   6.237
19296WAT     H158130   9.321   1.051   6.291
19296WAT     H258131   9.209   0.942   6.243
19297WAT      O58132   5.681   0.740   7.221
19297WAT     H158133   5.641   0.648   7.226
19297WAT     H258134   5.614   0.807   7.253
19298WAT      O58135   5.065   0.218   8.667
19298WAT     H158136   5.044   0.248   8.574
19298WAT     H258137   5.160   0.240   8.688
19299WAT      O58138   3.388   4.967   2.800
19299WAT     H158139   3.439   5.051   2.818
19299WAT     H258140   3.451   4.889   2.804
19300WAT      O58141   5.442   6.635   1.447
19300WAT     H158142   5.351   6.603   1.471
19300WAT     H258143   5.444   6.664   1.352
19301WAT      O58144   8.279   4.656   4.248
19301WAT     H158145   8.295   4.558   4.257
19301WAT     H258146   8.252   4.676   4.154
19302WAT      O58147   1.869   8.743   6.280
19302WAT     H158148   1.838   8.684   6.206
19302WAT     H258149   1.968   8.754   6.274
19303WAT      O58150   8.028   8.914   9.834
19303WAT     H158151   8.097   8.843   9.851
19303WAT     H258152   8.068   8.986   9.778
19304WAT      O58153   6.333   5.879   5.226
19304WAT     H158154   6.408   5.813   5.216
19304WAT     H258155   6.247   5.830   5.240
19305WAT      O58156   2.097   2.869   4.576
19305WAT     H158157   2.024   2.931   4.548
19305WAT     H258158   2.184   2.902   4.540
19306WAT      O58159   0.224   3.444   3.069
19306WAT     H158160   0.237   3.345   3.073
19306WAT     H258161   0.308   3.488   3.038
19307WAT      O58162   9.774   0.706   7.838
19307WAT     H158163   9.813   0.661   7.758
19307WAT     H258164   9.682   0.739   7.816
19308WAT      O58165   1.339   4.440   3.467
19308WAT     H158166   1.359   4.464   3.562
19308WAT     H258167   1.376   4.349   3.447
19309WAT      O58168   3.597   3.023   6.692
19309WAT     H158169   3.550   2.999   6.777
19309WAT     H258170   3.546   2.986   6.615
19310WAT      O58171   6.284   4.626   9.695
19310WAT     H158172   6.242   4.716   9.681
19310WAT     H258173   6.338   4.601   9.615
19311WAT      O58174   0.112   8.755   0.391
19311WAT     H158175   0.053   8.825   0.352
19311WAT     H258176   0.204   8.763   0.353
19312WAT      O58177   7.024   2.386   1.108
19312WAT     H158178   7.114   2.406   1.145
19312WAT     H258179   6.956   2.390   1.181
19313WAT      O58180   4.261   8.643   9.101
19313WAT     H158181   4.275   8.729   9.148
19313WAT     H258182   4.337   8.627   9.037
19314WAT      O58183   7.370   9.399   3.812
19314WAT     H158184   7.454   9.446   3.786
19314WAT     H258185   7.382   9.353   3.900
19315WAT      O58186   6.404   0.029   1.399
19315WAT     H158187   6.382  -0.047   1.460
19315WAT     H258188   6.501   0.051   1.407
19316WAT      O58189   9.239   7.128   2.186
19316WAT     H158190   9.213   7.223   2.206
19316WAT     H258191   9.157   7.071   2.182
19317WAT      O58192   8.240   5.568   7.904
19317WAT     H158193   8.280   5.591   7.815
19317WAT     H258194   8.310   5.530   7.963
19318WAT      O58195   0.863   3.977   8.603
19318WAT     H158196   0.963   3.983   8.595
19318WAT     H258197   0.834   3.883   8.584
19319WAT      O58198   4.312   8.049   9.696
19319WAT     H158199   4.217   8.037   9.723
19319WAT     H258200   4.366   7.971   9.729
19320WAT      O58201   6.853   1.054   8.829
19320WAT     H158202   6.841   0.963   8.789
19320WAT     H258203   6.853   1.123   8.756
19321WAT      O58204   1.127   7.239   8.899
19321WAT     H158205   1.199   7.265   8.964
19321WAT     H258206   1.108   7.316   8.839
19322WAT      O58207   6.804   7.551   2.585
19322WAT     H158208   6.733   7.606   2.542
19322WAT     H258209   6.761   7.486   2.649
19323WAT      O58210   5.874   8.959   6.759
19323WAT     H158211   5.777   8.983   6.754
19323WAT     H258212   5.890   8.903   6.840
19324WAT      O58213   9.284   3.009   5.062
19324WAT     H158214   9.248   2.934   5.006
19324WAT     H258215   9.294   2.978   5.156
19325WAT      O58216   9.656   0.421   9.402
19325WAT     H158217   9.732   0.356   9.410
19325WAT     H258218   9.657   0.483   9.481
19326WAT      O58219   5.481   7.097   9.885
19326WAT     H158220   5.551   7.138   9.826
19326WAT     H258221   5.514   7.097   9.979
19327WAT      O58222   3.848   8.150   1.212
19327WAT     H158223   3.854   8.114   1.306
19327WAT     H258224   3.884   8.081   1.149
19328WAT      O58225   4.477   3.381   6.492
19328WAT     H158226   4.507   3.411   6.402
19328WAT     H258227   4.463   3.282   6.491
19329WAT      O58228   6.809   8.991   9.416
19329WAT     H158229   6.746   9.058   9.379
19329WAT     H258230   6.778   8.964   9.508
19330WAT      O58231   0.720   6.025   3.279
19330WAT     H158232   0.796   6.070   3.325
19330WAT     H258233   0.705   5.934   3.318
19331WAT      O58234   0.757   0.734   5.736
19331WAT     H158235   0.691   0.801   5.770
19331WAT     H258236   0.842   0.781   5.713
19332WAT      O58237   6.882   2.396   4.401
19332WAT     H158238   6.982   2.392   4.412
19332WAT     H258239   6.849   2.484   4.434
19333WAT      O58240   8.569   3.242   7.380
19333WAT     H158241   8.510   3.287   7.448
19333WAT     H258242   8.513   3.210   7.304
19334WAT      O58243   7.567   9.609   7.614
19334WAT     H158244   7.590   9.604   7.711
19334WAT     H258245   7.468   9.620   7.604
19335WAT      O58246   6.111   2.538   7.237
19335WAT     H158247   6.119   2.618   7.297
19335WAT     H258248   6.073   2.566   7.149
19336WAT      O58249   1.646   7.200   9.056
19336WAT     H158250   1.589   7.207   8.974
19336WAT     H258251   1.618   7.121   9.110
19337WAT      O58252   6.949   7.908   2.822
19337WAT     H158253   6.946   7.990   2.879
19337WAT     H258254   7.038   7.862   2.834
19338WAT      O58255   3.888   7.893   8.571
19338WAT     H158256   3.816   7.917   8.636
19338WAT     H258257   3.977   7.922   8.607
19339WAT      O58258   8.491   4.749   7.137
19339WAT     H158259   8.461   4.659   7.167
19339WAT     H258260   8.534   4.797   7.214
19340WAT      O58261   8.975   7.341   7.654
19340WAT     H158262   8.941   7.395   7.577
19340WAT     H258263   8.898   7.298   7.701
19341WAT      O58264   2.872   3.561   4.456
19341WAT     H158265   2.891   3.628   4.527
19341WAT     H258266   2.863   3.607   4.367
19342WAT      O58267   4.771   5.025   3.931
19342WAT     H158268   4.787   4.967   4.011
19342WAT     H258269   4.838   5.003   3.860
19343WAT      O58270   0.515   5.284   3.136
19343WAT     H158271   0.426   5.272   3.179
19343WAT     H258272   0.565   5.357   3.183
19344WAT      O58273   0.781   7.056   9.201
19344WAT     H158274   0.848   7.068   9.128
19344WAT     H258275   0.780   6.961   9.230
19345WAT      O58276   8.329   6.572   2.508
19345WAT     H158277   8.339   6.669   2.488
19345WAT     H258278   8.419   6.528   2.509
19346WAT      O58279   5.378   0.751   0.002
19346WAT     H158280   5.339   0.697  -0.072
19346WAT     H258281   5.388   0.694   0.083
19347WAT      O58282   7.254   6.707   5.988
19347WAT     H158283   7.209   6.784   5.943
19347WAT     H258284   7.281   6.640   5.920
19348WAT      O58285   3.732   4.703   2.649
19348WAT     H158286   3.747   4.605   2.635
19348WAT     H258287   3.812   4.754   2.619
19349WAT      O58288   4.884   1.606   0.793
19349WAT     H158289   4.928   1.520   0.818
19349WAT     H258290   4.835   1.643   0.872
19350WAT      O58291   8.610   3.054   3.185
19350WAT     H158292   8.612   3.068   3.284
19350WAT     H258293   8.646   3.135   3.138
19351WAT      O58294   1.987   7.936   4.365
19351WAT     H158295   2.017   7.933   4.270
19351WAT     H258296   2.044   8.000   4.416
19352WAT      O58297   9.513   5.711   3.845
19352WAT     H158298   9.533   5.619   3.811
19352WAT     H258299   9.580   5.736   3.915
19353WAT      O58300   5.580   6.343   4.342
19353WAT     H158301   5.650   6.316   4.408
19353WAT     H258302   5.526   6.418   4.380
19354WAT      O58303   9.775   7.989   3.641
19354WAT     H158304   9.712   8.062   3.669
19354WAT     H258305   9.778   7.984   3.541
19355WAT      O58306   7.114   4.401   3.236
19355WAT     H158307   7.106   4.493   3.198
19355WAT     H258308   7.106   4.333   3.163
19356WAT      O58309   0.371   7.692   0.892
19356WAT     H158310   0.447   7.725   0.836
19356WAT     H258311   0.384   7.595   0.912
19357WAT      O58312   8.389   5.918   7.064
19357WAT     H158313   8.328   5.841   7.075
19357WAT     H258314   8.349   6.000   7.104
19358WAT      O58315   2.878   7.240   7.178
19358WAT     H158316   2.921   7.152   7.194
19358WAT     H258317   2.938   7.313   7.212
19359WAT      O58318   7.825   9.035   5.157
19359WAT     H158319   7.911   8.994   5.127
19359WAT     H258320   7.778   8.973   5.219
19360WAT      O58321   2.685   5.337   7.112
19360WAT     H158322   2.590   5.345   7.082
19360WAT     H258323   2.690   5.348   7.211
19361WAT      O58324   6.268   0.708   7.275
19361WAT     H158325   6.284   0.787   7.335
19361WAT     H258326   6.338   0.639   7.292
19362WAT      O58327   9.647   1.890   0.950
19362WAT     H158328   9.673   1.814   1.010
19362WAT     H258329   9.722   1.910   0.887
19363WAT      O58330   1.514   8.029   8.653
19363WAT     H158331   1.578   7.987   8.718
19363WAT     H258332   1.423   7.991   8.667
19364WAT      O58333   2.218   8.127   2.419
19364WAT     H158334   2.291   8.186   2.454
19364WAT     H258335   2.215   8.134   2.319
19365WAT      O58336   2.861   2.662   6.477
19365WAT     H158337   2.770   2.692   6.447
19365WAT     H258338   2.853   2.621   6.568
19366WAT      O58339   4.995   0.013   7.856
19366WAT     H158340   5.083   0.060   7.847
19366WAT     H258341   4.951   0.007   7.767
19367WAT      O58342   5.717   8.228   5.724
19367WAT     H158343   5.658   8.301   5.758
19367WAT     H258344   5.724   8.235   5.625
19368WAT      O58345   6.457   3.070   0.373
19368WAT     H158346   6.476   3.134   0.299
19368WAT     H258347   6.361   3.079   0.401
19369WAT      O58348   5.272   0.281   8.223
19369WAT     H158349   5.371   0.280   8.241
19369WAT     H258350   5.256   0.308   8.128
19370WAT      O58351   4.457   9.593   3.992
19370WAT     H158352   4.424   9.506   4.027
19370WAT     H258353   4.385   9.662   3.999
19371WAT      O58354   1.272   2.003   9.057
19371WAT     H158355   1.230   1.913   9.049
19371WAT     H258356   1.210   2.072   9.021
19372WAT      O58357   8.878   8.544   4.555
19372WAT     H158358   8.858   8.563   4.459
19372WAT     H258359   8.934   8.619   4.593
19373WAT      O58360   8.638   4.819   5.797
19373WAT     H158361   8.657   4.828   5.699
19373WAT     H258362   8.699   4.880   5.849
19374WAT      O58363   4.038   7.644   8.728
19374WAT     H158364   3.944   7.677   8.723
19374WAT     H258365   4.090   7.703   8.790
19375WAT      O58366   3.058   3.726   1.069
19375WAT     H158367   2.981   3.691   1.122
19375WAT     H258368   3.082   3.818   1.102
19376WAT      O58369   2.291   6.514   0.242
19376WAT     H158370   2.333   6.437   0.291
19376WAT     H258371   2.279   6.591   0.304
19377WAT      O58372   2.575   4.762   2.286
19377WAT     H158373   2.559   4.705   2.205
19377WAT     H258374   2.647   4.722   2.342
19378WAT      O58375   2.800   4.810   4.338
19378WAT     H158376   2.800   4.710   4.330
19378WAT     H258377   2.891   4.844   4.318
19379WAT      O58378   3.097   1.548   4.721
19379WAT     H158379   3.171   1.535   4.787
19379WAT     H258380   3.095   1.643   4.691
19380WAT      O58381   2.613   3.397   3.308
19380WAT     H158382   2.577   3.427   3.219
19380WAT     H258383   2.692   3.336   3.293
19381WAT      O58384   1.205   2.709   6.934
19381WAT     H158385   1.247   2.725   6.844
19381WAT     H258386   1.270   2.664   6.994
19382WAT      O58387   2.427   1.921   8.535
19382WAT     H158388   2.355   1.991   8.534
19382WAT     H258389   2.491   1.939   8.461
19383WAT      O58390   7.750   1.500   9.774
19383WAT     H158391   7.711   1.431   9.835
19383WAT     H258392   7.676   1.560   9.741
19384WAT      O58393   0.742   5.709   5.853
19384WAT     H158394   0.796   5.703   5.769
19384WAT     H258395   0.645   5.709   5.831
19385WAT      O58396   2.194   8.825   7.591
19385WAT     H158397   2.220   8.778   7.676
19385WAT     H258398   2.189   8.923   7.608
19386WAT      O58399   8.245   7.854   6.556
19386WAT     H158400   8.267   7.773   6.502
19386WAT     H258401   8.327   7.884   6.605
19387WAT      O58402   6.178   9.311   8.621
19387WAT     H158403   6.110   9.298   8.694
19387WAT     H258404   6.162   9.400   8.577
19388WAT      O58405   1.849   0.802   5.032
19388WAT     H158406   1.759   0.808   5.075
19388WAT     H258407   1.911   0.750   5.091
19389WAT      O58408   8.593   1.669   3.824
19389WAT     H158409   8.615   1.749   3.880
19389WAT     H258410   8.505   1.684   3.778
19390WAT      O58411   5.124   6.831   2.795
19390WAT     H158412   5.122   6.759   2.864
19390WAT     H258413   5.111   6.920   2.838
19391WAT      O58414   1.070   6.274   2.537
19391WAT     H158415   1.110   6.307   2.623
19391WAT     H258416   0.981   6.234   2.555
19392WAT      O58417   2.776   2.707   1.053
19392WAT     H158418   2.834   2.780   1.091
19392WAT     H258419   2.781   2.627   1.112
19393WAT      O58420   3.526   4.886   1.089
19393WAT     H158421   3.470   4.810   1.122
19393WAT     H258422   3.468   4.950   1.038
19394WAT      O58423   5.505   7.616   9.513
19394WAT     H158424   5.492   7.709   9.481
19394WAT     H258425   5.582   7.612   9.577
19395WAT      O58426   4.407   4.546   0.156
19395WAT     H158427   4.453   4.460   0.137
19395WAT     H258428   4.439   4.582   0.244
19396WAT      O58429   4.464   0.329   1.840
19396WAT     H158430   4.564   0.340   1.843
19396WAT     H258431   4.441   0.241   1.797
19397WAT      O58432   2.815   0.834   3.167
19397WAT     H158433   2.725   0.791   3.170
19397WAT     H258434   2.852   0.842   3.260
19398WAT      O58435   9.710   2.294   1.144
19398WAT     H158436   9.636   2.229   1.123
19398WAT     H258437   9.765   2.259   1.219
19399WAT      O58438   2.395   3.111   9.380
19399WAT     H158439   2.315   3.127   9.438
19399WAT     H258440   2.458   3.049   9.427
19400WAT      O58441   2.822   3.569   8.161
19400WAT     H158442   2.873   3.632   8.103
19400WAT     H258443   2.797   3.614   8.246
19401WAT      O58444   2.782   8.514   3.102
19401WAT     H158445   2.801   8.459   3.184
19401WAT     H258446   2.821   8.605   3.114
19402WAT      O58447   7.497   7.617   6.992
19402WAT     H158448   7.571   7.638   6.928
19402WAT     H258449   7.535   7.598   7.082
19403WAT      O58450   6.005   6.292   6.333
19403WAT     H158451   5.938   6.334   6.272
19403WAT     H258452   5.983   6.316   6.428
19404WAT      O58453   9.538   8.883   1.536
19404WAT     H158454   9.581   8.796   1.558
19404WAT     H258455   9.521   8.935   1.620
19405WAT      O58456   4.113   6.103   8.456
19405WAT     H158457   4.037   6.097   8.521
19405WAT     H258458   4.084   6.155   8.376
19406WAT      O58459   6.566   5.232   7.815
19406WAT     H158460   6.623   5.178   7.877
19406WAT     H258461   6.472   5.199   7.820
19407WAT      O58462   2.628   3.058   3.421
19407WAT     H158463   2.535   3.096   3.412
19407WAT     H258464   2.676   3.104   3.495
19408WAT      O58465   1.558   2.683   8.451
19408WAT     H158466   1.596   2.706   8.540
19408WAT     H258467   1.486   2.614   8.461
19409WAT      O58468   8.591   0.192   3.208
19409WAT     H158469   8.514   0.138   3.175
19409WAT     H258470   8.590   0.196   3.308
19410WAT      O58471   3.310   0.909   3.846
19410WAT     H158472   3.231   0.960   3.812
19410WAT     H258473   3.362   0.872   3.769
19411WAT      O58474   4.934   0.051   4.268
19411WAT     H158475   4.864   0.030   4.337
19411WAT     H258476   4.895   0.041   4.177
19412WAT      O58477   5.361   6.399   3.516
19412WAT     H158478   5.271   6.437   3.540
19412WAT     H258479   5.361   6.370   3.421
19413WAT      O58480   8.002   4.833   9.356
19413WAT     H158481   8.016   4.766   9.283
19413WAT     H258482   7.971   4.920   9.317
19414WAT      O58483   5.180   9.323   8.188
19414WAT     H158484   5.094   9.370   8.204
19414WAT     H258485   5.256   9.388   8.192
19415WAT      O58486   5.820   5.274   3.213
19415WAT     H158487   5.844   5.364   3.177
19415WAT     H258488   5.720   5.262   3.209
19416WAT      O58489   7.362   0.263   5.933
19416WAT     H158490   7.431   0.196   5.960
19416WAT     H258491   7.300   0.280   6.010
19417WAT      O58492   7.612   6.364   7.322
19417WAT     H158493   7.565   6.276   7.324
19417WAT     H258494   7.553   6.432   7.279
19418WAT      O58495   7.759   2.855   5.081
19418WAT     H158496   7.835   2.892   5.134
19418WAT     H258497   7.790   2.834   4.989
19419WAT      O58498   0.283   8.718   1.962
19419WAT     H158499   0.295   8.705   1.864
19419WAT     H258500   0.267   8.815   1.981
19420WAT      O58501   0.382   1.271   2.774
19420WAT     H158502   0.420   1.210   2.844
19420WAT     H258503   0.282   1.270   2.780
19421WAT      O58504   6.203   6.946   8.006
19421WAT     H158505   6.161   7.013   7.945
19421WAT     H258506   6.292   6.980   8.038
19422WAT      O58507   9.170   2.567   4.148
19422WAT     H158508   9.262   2.535   4.127
19422WAT     H258509   9.104   2.494   4.127
19423WAT      O58510   0.619   7.747   5.309
19423WAT     H158511   0.642   7.701   5.395
19423WAT     H258512   0.527   7.784   5.315
19424WAT      O58513   1.020   3.082   9.601
19424WAT     H158514   1.097   3.122   9.551
19424WAT     H258515   0.959   3.154   9.632
19425WAT      O58516   8.075   6.613   7.213
19425WAT     H158517   8.052   6.697   7.164
19425WAT     H258518   7.991   6.566   7.239
19426WAT      O58519   0.398   3.762   0.478
19426WAT     H158520   0.458   3.684   0.494
19426WAT     H258521   0.445   3.846   0.505
19427WAT      O58522   4.901   1.720   3.863
19427WAT     H158523   4.813   1.707   3.818
19427WAT     H258524   4.906   1.812   3.901
19428WAT      O58525   5.307   5.736   4.693
19428WAT     H158526   5.220   5.741   4.643
19428WAT     H258527   5.342   5.643   4.689
19429WAT      O58528   3.140   9.247   1.824
19429WAT     H158529   3.227   9.220   1.863
19429WAT     H258530   3.068   9.240   1.893
19430WAT      O58531   3.781   8.351   7.126
19430WAT     H158532   3.852   8.281   7.115
19430WAT     H258533   3.711   8.318   7.190
19431WAT      O58534   3.594   4.408   0.120
19431WAT     H158535   3.675   4.429   0.175
19431WAT     H258536   3.576   4.309   0.125
19432WAT      O58537   4.267   0.804   1.084
19432WAT     H158538   4.275   0.893   1.040
19432WAT     H258539   4.301   0.733   1.023
19433WAT      O58540   5.434   1.624   1.072
19433WAT     H158541   5.371   1.561   1.118
19433WAT     H258542   5.458   1.698   1.133
19434WAT      O58543   3.400   2.819   4.863
19434WAT     H158544   3.457   2.900   4.854
19434WAT     H258545   3.312   2.834   4.818
19435WAT      O58546   4.149   8.273   8.390
19435WAT     H158547   4.091   8.209   8.340
19435WAT     H258548   4.226   8.300   8.333
19436WAT      O58549   6.762   2.057   4.771
19436WAT     H158550   6.748   2.098   4.681
19436WAT     H258551   6.676   2.061   4.823
19437WAT      O58552   1.171   7.092   1.414
19437WAT     H158553   1.118   7.008   1.401
19437WAT     H258554   1.246   7.074   1.478
19438WAT      O58555   6.109   5.984   6.674
19438WAT     H158556   6.177   5.939   6.732
19438WAT     H258557   6.156   6.040   6.605
19439WAT      O58558   9.837   6.203   6.080
19439WAT     H158559   9.773   6.273   6.048
19439WAT     H258560   9.899   6.177   6.006
19440WAT      O58561   6.429   3.268   6.488
19440WAT     H158562   6.508   3.320   6.455
19440WAT     H258563   6.458   3.175   6.511
19441WAT      O58564   9.202   5.349   8.139
19441WAT     H158565   9.190   5.442   8.105
19441WAT     H258566   9.292   5.341   8.183
19442WAT      O58567   2.390   3.705   3.968
19442WAT     H158568   2.298   3.682   3.938
19442WAT     H258569   2.439   3.621   3.991
19443WAT      O58570   7.641   7.450   1.786
19443WAT     H158571   7.681   7.532   1.826
19443WAT     H258572   7.692   7.424   1.704
19444WAT      O58573   0.663   5.568   9.542
19444WAT     H158574   0.626   5.573   9.635
19444WAT     H258575   0.669   5.472   9.514
19445WAT      O58576   6.741   4.256   0.916
19445WAT     H158577   6.840   4.256   0.906
19445WAT     H258578   6.717   4.255   1.013
19446WAT      O58579   0.475   1.270   6.629
19446WAT     H158580   0.429   1.358   6.621
19446WAT     H258581   0.571   1.284   6.650
19447WAT      O58582   1.081   9.077   1.134
19447WAT     H158583   1.155   9.038   1.080
19447WAT     H258584   1.022   9.133   1.075
19448WAT      O58585   7.004   9.215   1.529
19448WAT     H158586   7.098   9.234   1.555
19448WAT     H258587   6.999   9.131   1.476
19449WAT      O58588   1.276   6.587   3.925
19449WAT     H158589   1.273   6.492   3.955
19449WAT     H258590   1.211   6.601   3.850
19450WAT      O58591   4.986   6.464   7.801
19450WAT     H158592   5.009   6.367   7.794
19450WAT     H258593   4.914   6.477   7.869
19451WAT      O58594   0.732   4.390   9.175
19451WAT     H158595   0.809   4.374   9.114
19451WAT     H258596   0.646   4.375   9.126
19452WAT      O58597   5.434   9.714   5.545
19452WAT     H158598   5.485   9.796   5.517
19452WAT     H258599   5.385   9.733   5.629
19453WAT      O58600   8.906   2.756   1.394
19453WAT     H158601   8.911   2.715   1.302
19453WAT     H258602   8.812   2.750   1.427
19454WAT      O58603   3.175   3.307   0.423
19454WAT     H158604   3.231   3.330   0.343
19454WAT     H258605   3.079   3.306   0.397
19455WAT      O58606   7.839   0.557   3.254
19455WAT     H158607   7.855   0.632   3.318
19455WAT     H258608   7.817   0.474   3.305
19456WAT      O58609   6.272   3.613   6.250
19456WAT     H158610   6.317   3.532   6.212
19456WAT     H258611   6.226   3.588   6.335
19457WAT      O58612   5.238   5.308   2.234
19457WAT     H158613   5.268   5.402   2.247
19457WAT     H258614   5.294   5.265   2.163
19458WAT      O58615   2.131   0.359   7.629
19458WAT     H158616   2.092   0.367   7.721
19458WAT     H258617   2.126   0.263   7.599
19459WAT      O58618   5.455   5.803   7.375
19459WAT     H158619   5.403   5.852   7.306
19459WAT     H258620   5.405   5.721   7.403
19460WAT      O58621   8.738   0.812   4.507
19460WAT     H158622   8.761   0.715   4.500
19460WAT     H258623   8.666   0.834   4.440
19461WAT      O58624   6.143   4.647   2.507
19461WAT     H158625   6.129   4.696   2.592
19461WAT     H258626   6.223   4.684   2.459
19462WAT      O58627   8.012   9.582   5.352
19462WAT     H158628   8.063   9.506   5.393
19462WAT     H258629   7.922   9.550   5.323
19463WAT      O58630   2.951   2.914   5.890
19463WAT     H158631   2.883   2.986   5.886
19463WAT     H258632   2.928   2.850   5.963
19464WAT      O58633   7.414   4.680   5.963
19464WAT     H158634   7.412   4.758   6.026
19464WAT     H258635   7.465   4.705   5.880
19465WAT      O58636   9.416   6.240   6.297
19465WAT     H158637   9.448   6.290   6.378
19465WAT     H258638   9.494   6.195   6.253
19466WAT      O58639   6.742   5.923   1.788
19466WAT     H158640   6.757   5.899   1.693
19466WAT     H258641   6.728   6.022   1.796
19467WAT      O58642   5.078   5.123   7.288
19467WAT     H158643   5.010   5.160   7.351
19467WAT     H258644   5.036   5.053   7.230
19468WAT      O58645   4.594   8.244   0.669
19468WAT     H158646   4.497   8.257   0.651
19468WAT     H258647   4.614   8.266   0.764
19469WAT      O58648   2.391   9.189   7.959
19469WAT     H158649   2.354   9.280   7.976
19469WAT     H258650   2.320   9.121   7.971
19470WAT      O58651   3.005   6.407   5.561
19470WAT     H158652   3.027   6.462   5.481
19470WAT     H258653   2.908   6.417   5.583
19471WAT      O58654   4.733   9.237   0.534
19471WAT     H158655   4.650   9.287   0.556
19471WAT     H258656   4.812   9.285   0.572
19472WAT      O58657   5.589   2.407   7.090
19472WAT     H158658   5.636   2.389   7.176
19472WAT     H258659   5.629   2.489   7.047
19473WAT      O58660   6.456   4.501   0.627
19473WAT     H158661   6.512   4.584   0.633
19473WAT     H258662   6.445   4.475   0.531
19474WAT      O58663   4.971   5.751   4.304
19474WAT     H158664   4.960   5.838   4.257
19474WAT     H258665   5.069   5.733   4.318
19475WAT      O58666   0.303   8.068   0.585
19475WAT     H158667   0.354   8.049   0.669
19475WAT     H258668   0.367   8.097   0.514
19476WAT      O58669   9.429   1.429   4.985
19476WAT     H158670   9.380   1.354   4.939
19476WAT     H258671   9.446   1.403   5.080
19477WAT      O58672   9.140   9.461   7.173
19477WAT     H158673   9.199   9.393   7.215
19477WAT     H258674   9.186   9.550   7.175
19478WAT      O58675   7.084   8.226   4.713
19478WAT     H158676   7.014   8.207   4.644
19478WAT     H258677   7.130   8.142   4.739
19479WAT      O58678   7.917   1.731   0.042
19479WAT     H158679   7.902   1.827   0.020
19479WAT     H258680   7.860   1.674  -0.018
19480WAT      O58681   8.182   5.949   6.360
19480WAT     H158682   8.257   5.962   6.425
19480WAT     H258683   8.118   5.881   6.397
19481WAT      O58684   7.139   2.155   7.991
19481WAT     H158685   7.099   2.065   7.971
19481WAT     H258686   7.094   2.194   8.071
19482WAT      O58687   4.507   3.080   9.012
19482WAT     H158688   4.604   3.056   9.008
19482WAT     H258689   4.452   2.999   8.988
19483WAT      O58690   5.507   0.476   5.774
19483WAT     H158691   5.446   0.523   5.838
19483WAT     H258692   5.536   0.389   5.813
19484WAT      O58693   2.759   8.337   5.024
19484WAT     H158694   2.859   8.331   5.034
19484WAT     H258695   2.725   8.416   5.076
19485WAT      O58696   8.364   1.853   3.252
19485WAT     H158697   8.343   1.757   3.236
19485WAT     H258698   8.336   1.908   3.173
19486WAT      O58699   4.660   7.568   7.078
19486WAT     H158700   4.639   7.620   6.995
19486WAT     H258701   4.759   7.554   7.084
19487WAT      O58702   5.403   1.612   1.412
19487WAT     H158703   5.336   1.564   1.355
19487WAT     H258704   5.431   1.697   1.366
19488WAT      O58705   8.493   5.399   7.668
19488WAT     H158706   8.421   5.332   7.649
19488WAT     H258707   8.583   5.354   7.663
19489WAT      O58708   0.185   4.834   8.456
19489WAT     H158709   0.270   4.887   8.451
19489WAT     H258710   0.112   4.885   8.411
19490WAT      O58711   1.259   2.834   1.803
19490WAT     H158712   1.308   2.772   1.743
19490WAT     H258713   1.310   2.845   1.889
19491WAT      O58714   0.832   9.355   4.191
19491WAT     H158715   0.893   9.292   4.143
19491WAT     H258716   0.760   9.386   4.128
19492WAT      O58717   6.625   7.921   2.554
19492WAT     H158718   6.721   7.940   2.532
19492WAT     H258719   6.598   7.834   2.511
19493WAT      O58720   1.300   8.344   6.691
19493WAT     H158721   1.260   8.421   6.741
19493WAT     H258722   1.254   8.259   6.717
19494WAT      O58723   8.589   8.128   1.095
19494WAT     H158724   8.684   8.127   1.125
19494WAT     H258725   8.529   8.111   1.173
19495WAT      O58726   6.210   2.099   6.194
19495WAT     H158727   6.223   2.010   6.152
19495WAT     H258728   6.257   2.169   6.140
19496WAT      O58729   9.290   4.328   6.080
19496WAT     H158730   9.376   4.305   6.036
19496WAT     H258731   9.245   4.245   6.112
19497WAT      O58732   9.824   8.871   9.598
19497WAT     H158733   9.768   8.850   9.518
19497WAT     H258734   9.817   8.797   9.664
19498WAT      O58735   1.875   9.788   3.953
19498WAT     H158736   1.860   9.857   4.024
19498WAT     H258737   1.973   9.766   3.949
19499WAT      O58738   8.040   4.564   7.533
19499WAT     H158739   7.976   4.631   7.569
19499WAT     H258740   8.025   4.553   7.434
19500WAT      O58741   7.510   4.156   8.084
19500WAT     H158742   7.560   4.075   8.115
19500WAT     H258743   7.419   4.129   8.053
19501WAT      O58744   7.589   9.292   8.827
19501WAT     H158745   7.512   9.236   8.858
19501WAT     H258746   7.607   9.272   8.730
19502WAT      O58747   3.933   2.673   5.708
19502WAT     H158748   3.898   2.584   5.738
19502WAT     H258749   3.881   2.746   5.753
19503WAT      O58750   6.706   7.397   3.970
19503WAT     H158751   6.792   7.361   3.932
19503WAT     H258752   6.629   7.347   3.930
19504WAT      O58753   5.510   5.287   6.695
19504WAT     H158754   5.540   5.223   6.624
19504WAT     H258755   5.577   5.361   6.703
19505WAT      O58756   7.927   1.743   4.531
19505WAT     H158757   7.933   1.831   4.486
19505WAT     H258758   7.836   1.731   4.571
19506WAT      O58759   0.844   8.081   1.378
19506WAT     H158760   0.768   8.056   1.438
19506WAT     H258761   0.868   8.177   1.394
19507WAT      O58762   2.986   4.022   6.534
19507WAT     H158763   2.997   4.115   6.499
19507WAT     H258764   3.048   4.007   6.611
19508WAT      O58765   5.480   6.302   7.788
19508WAT     H158766   5.434   6.347   7.711
19508WAT     H258767   5.413   6.248   7.839
19509WAT      O58768   6.806   6.290   5.518
19509WAT     H158769   6.772   6.196   5.523
19509WAT     H258770   6.838   6.308   5.425
19510WAT      O58771   4.016   2.719   0.180
19510WAT     H158772   4.111   2.745   0.197
19510WAT     H258773   3.958   2.800   0.189
19511WAT      O58774   6.979   2.847   9.355
19511WAT     H158775   6.965   2.748   9.360
19511WAT     H258776   6.924   2.892   9.426
19512WAT      O58777   3.498   6.688   4.855
19512WAT     H158778   3.513   6.611   4.793
19512WAT     H258779   3.411   6.677   4.903
19513WAT      O58780   6.203   3.143   0.342
19513WAT     H158781   6.176   3.239   0.343
19513WAT     H258782   6.134   3.090   0.293
19514WAT      O58783   3.026   2.116   5.260
19514WAT     H158784   3.013   2.141   5.164
19514WAT     H258785   2.972   2.034   5.280
19515WAT      O58786   9.021   0.538   6.490
19515WAT     H158787   8.995   0.464   6.552
19515WAT     H258788   9.084   0.600   6.537
19516WAT      O58789   8.837   1.151   4.091
19516WAT     H158790   8.766   1.193   4.148
19516WAT     H258791   8.923   1.146   4.143
19517WAT      O58792   4.902   2.645   7.358
19517WAT     H158793   4.975   2.708   7.382
19517WAT     H258794   4.941   2.559   7.325
19518WAT      O58795   8.455   9.011   0.683
19518WAT     H158796   8.484   9.087   0.625
19518WAT     H258797   8.427   8.934   0.626
19519WAT      O58798   7.280   2.581   8.052
19519WAT     H158799   7.296   2.591   8.150
19519WAT     H258800   7.321   2.659   8.004
19520WAT      O58801   6.425   3.278   0.162
19520WAT     H158802   6.341   3.263   0.109
19520WAT     H258803   6.403   3.330   0.245
19521WAT      O58804   0.799   6.553   7.922
19521WAT     H158805   0.805   6.648   7.951
19521WAT     H258806   0.820   6.493   7.999
19522WAT      O58807   4.995   4.310   6.510
19522WAT     H158808   5.057   4.302   6.587
19522WAT     H258809   4.993   4.405   6.477
19523WAT      O58810   3.210   1.976   2.730
19523WAT     H158811   3.188   1.881   2.708
19523WAT     H258812   3.217   2.030   2.646
19524WAT      O58813   9.165   2.376   9.263
19524WAT     H158814   9.171   2.323   9.179
19524WAT     H258815   9.234   2.344   9.328
19525WAT      O58816   8.057   4.380   2.325
19525WAT     H158817   8.152   4.402   2.301
19525WAT     H258818   8.014   4.331   2.250
19526WAT      O58819   8.562   4.340   2.392
19526WAT     H158820   8.528   4.333   2.486
19526WAT     H258821   8.572   4.248   2.354
19527WAT      O58822   1.530   6.297   4.803
19527WAT     H158823   1.484   6.343   4.879
19527WAT     H258824   1.468   6.295   4.724
19528WAT      O58825   2.343   1.629   3.695
19528WAT     H158826   2.370   1.544   3.740
19528WAT     H258827   2.323   1.698   3.765
19529WAT      O58828   1.633   3.893   4.893
19529WAT     H158829   1.642   3.948   4.810
19529WAT     H258830   1.540   3.901   4.928
19530WAT      O58831   0.084   5.160   1.131
19530WAT     H158832   0.152   5.233   1.122
19530WAT     H258833   0.038   5.146   1.043
19531WAT      O58834   7.004   1.080   5.579
19531WAT     H158835   7.094   1.064   5.537
19531WAT     H258836   7.017   1.116   5.671
19532WAT      O58837   9.841   0.746   7.392
19532WAT     H158838   9.920   0.695   7.357
19532WAT     H258839   9.822   0.823   7.332
19533WAT      O58840   5.350   5.405   4.055
19533WAT     H158841   5.422   5.473   4.069
19533WAT     H258842   5.311   5.378   4.143
19534WAT      O58843   9.364   6.500   4.705
19534WAT     H158844   9.376   6.541   4.615
19534WAT     H258845   9.269   6.509   4.734
19535WAT      O58846   7.493   6.282   1.244
19535WAT     H158847   7.438   6.205   1.275
19535WAT     H258848   7.588   6.270   1.273
19536WAT      O58849   0.824   3.796   7.594
19536WAT     H158850   0.923   3.802   7.585
19536WAT     H258851   0.798   3.701   7.612
19537WAT      O58852   4.092   4.959   2.787
19537WAT     H158853   4.049   5.041   2.825
19537WAT     H258854   4.192   4.970   2.791
19538WAT      O58855   8.519   1.569   6.726
19538WAT     H158856   8.430   1.580   6.771
19538WAT     H258857   8.591   1.559   6.794
19539WAT      O58858   7.273   4.141   5.992
19539WAT     H158859   7.350   4.137   6.056
19539WAT     H258860   7.205   4.206   6.026
19540WAT      O58861   7.652   2.111   6.870
19540WAT     H158862   7.680   2.061   6.788
19540WAT     H258863   7.605   2.196   6.844
19541WAT      O58864   3.739   5.593   4.763
19541WAT     H158865   3.808   5.632   4.702
19541WAT     H258866   3.741   5.639   4.851
19542WAT      O58867   0.646   3.408   6.982
19542WAT     H158868   0.581   3.388   6.909
19542WAT     H258869   0.642   3.506   7.004
19543WAT      O58870   8.361   6.392   1.497
19543WAT     H158871   8.359   6.346   1.408
19543WAT     H258872   8.417   6.475   1.490
19544WAT      O58873   6.606   2.224   3.647
19544WAT     H158874   6.539   2.150   3.649
19544WAT     H258875   6.560   2.311   3.664
19545WAT      O58876   2.414   2.313   2.762
19545WAT     H158877   2.443   2.249   2.832
19545WAT     H258878   2.368   2.263   2.688
19546WAT      O58879   3.211   1.259   2.641
19546WAT     H158880   3.168   1.307   2.564
19546WAT     H258881   3.141   1.238   2.710
19547WAT      O58882   3.433   3.270   4.863
19547WAT     H158883   3.426   3.253   4.962
19547WAT     H258884   3.504   3.212   4.825
19548WAT      O58885   2.923   6.823   7.991
19548WAT     H158886   2.999   6.880   8.021
19548WAT     H258887   2.891   6.766   8.067
19549WAT      O58888   7.209   6.883   7.827
19549WAT     H158889   7.241   6.974   7.800
19549WAT     H258890   7.109   6.884   7.833
19550WAT      O58891   3.968   5.419   9.493
19550WAT     H158892   3.947   5.433   9.396
19550WAT     H258893   3.884   5.400   9.543
19551WAT      O58894   9.470   7.934   5.691
19551WAT     H158895   9.442   7.989   5.612
19551WAT     H258896   9.507   7.994   5.762
19552WAT      O58897   3.904   9.547   2.779
19552WAT     H158898   3.926   9.629   2.728
19552WAT     H258899   3.834   9.494   2.730
19553WAT      O58900   4.428   6.107   5.440
19553WAT     H158901   4.461   6.193   5.477
19553WAT     H258902   4.502   6.063   5.388
19554WAT      O58903   4.976   3.688   0.190
19554WAT     H158904   4.898   3.625   0.195
19554WAT     H258905   5.052   3.652   0.244
19555WAT      O58906   7.508   6.311   3.182
19555WAT     H158907   7.536   6.382   3.246
19555WAT     H258908   7.478   6.230   3.233
19556WAT      O58909   2.881   3.363   9.732
19556WAT     H158910   2.808   3.351   9.664
19556WAT     H258911   2.969   3.370   9.685
19557WAT      O58912   4.333   6.838   5.423
19557WAT     H158913   4.410   6.899   5.404
19557WAT     H258914   4.367   6.746   5.443
19558WAT      O58915   8.843   5.269   1.419
19558WAT     H158916   8.841   5.364   1.448
19558WAT     H258917   8.922   5.223   1.460
19559WAT      O58918   2.721   4.504   9.127
19559WAT     H158919   2.648   4.477   9.064
19559WAT     H258920   2.780   4.426   9.145
19560WAT      O58921   4.775   7.153   9.690
19560WAT     H158922   4.705   7.201   9.638
19560WAT     H258923   4.741   7.133   9.782
19561WAT      O58924   1.919   9.029   1.222
19561WAT     H158925   1.926   9.040   1.321
19561WAT     H258926   1.989   9.084   1.177
19562WAT      O58927   7.540   2.026   2.026
19562WAT     H158928   7.533   1.958   1.953
19562WAT     H258929   7.635   2.031   2.058
19563WAT      O58930   9.888   3.054   7.785
19563WAT     H158931   9.813   3.021   7.729
19563WAT     H258932   9.852   3.109   7.860
19564WAT      O58933   3.692   7.495   1.691
19564WAT     H158934   3.592   7.495   1.698
19564WAT     H258935   3.718   7.507   1.595
19565WAT      O58936   0.949   6.352   5.864
19565WAT     H158937   0.942   6.263   5.818
19565WAT     H258938   0.977   6.421   5.798
19566WAT      O58939   6.419   5.393   6.641
19566WAT     H158940   6.499   5.450   6.626
19566WAT     H258941   6.341   5.452   6.666
19567WAT      O58942   6.131   7.179   1.249
19567WAT     H158943   6.182   7.180   1.335
19567WAT     H258944   6.171   7.111   1.188
19568WAT      O58945   2.714   8.966   4.743
19568WAT     H158946   2.748   9.060   4.754
19568WAT     H258947   2.629   8.967   4.690
19569WAT      O58948   4.016   0.872   1.181
19569WAT     H158949   4.012   0.969   1.158
19569WAT     H258950   4.107   0.836   1.158
19570WAT      O58951   1.111   0.280   0.411
19570WAT     H158952   1.012   0.270   0.401
19570WAT     H258953   1.131   0.356   0.472
19571WAT      O58954   3.822   2.037   6.404
19571WAT     H158955   3.752   1.965   6.403
19571WAT     H258956   3.820   2.084   6.492
19572WAT      O58957   1.646   1.482   1.535
19572WAT     H158958   1.614   1.471   1.630
19572WAT     H258959   1.616   1.404   1.481
19573WAT      O58960   9.638   9.007   3.739
19573WAT     H158961   9.655   8.917   3.778
19573WAT     H258962   9.546   9.009   3.699
19574WAT      O58963   1.030   1.360   6.364
19574WAT     H158964   1.103   1.395   6.304
19574WAT     H258965   0.972   1.298   6.311
19575WAT      O58966   4.807   1.078   5.686
19575WAT     H158967   4.877   1.148   5.699
19575WAT     H258968   4.779   1.077   5.590
19576WAT      O58969   4.967   1.718   2.192
19576WAT     H158970   5.025   1.752   2.266
19576WAT     H258971   4.884   1.676   2.230
19577WAT      O58972   5.674   1.207   5.869
19577WAT     H158973   5.747   1.222   5.935
19577WAT     H258974   5.684   1.116   5.828
19578WAT      O58975   4.590   1.932   2.945
19578WAT     H158976   4.576   1.897   2.852
19578WAT     H258977   4.681   1.971   2.952
19579WAT      O58978   7.410   9.807   5.399
19579WAT     H158979   7.502   9.804   5.359
19579WAT     H258980   7.360   9.724   5.374
19580WAT      O58981   3.731   3.938   6.774
19580WAT     H158982   3.739   3.857   6.716
19580WAT     H258983   3.746   3.912   6.870
19581WAT      O58984   3.068   1.137   4.575
19581WAT     H158985   3.128   1.211   4.603
19581WAT     H258986   3.122   1.058   4.546
19582WAT      O58987   7.137   6.835   9.776
19582WAT     H158988   7.183   6.902   9.718
19582WAT     H258989   7.104   6.879   9.859
19583WAT      O58990   3.953   1.014   7.592
19583WAT     H158991   3.939   1.008   7.494
19583WAT     H258992   3.940   0.923   7.633
19584WAT      O58993   0.930   9.018   4.697
19584WAT     H158994   0.913   9.112   4.727
19584WAT     H258995   0.966   9.019   4.604
19585WAT      O58996   2.174   1.244   9.236
19585WAT     H158997   2.151   1.339   9.219
19585WAT     H258998   2.135   1.186   9.164
19586WAT      O58999   2.004   7.475   1.678
19586WAT     H159000   1.924   7.496   1.622
19586WAT     H259001   2.047   7.390   1.646
19587WAT      O59002   7.421   0.593   2.044
19587WAT     H159003   7.462   0.604   2.135
19587WAT     H259004   7.493   0.595   1.975
19588WAT      O59005   6.632   5.654   6.197
19588WAT     H159006   6.698   5.603   6.253
19588WAT     H259007   6.672   5.674   6.107
19589WAT      O59008   9.659   0.821   3.374
19589WAT     H159009   9.686   0.725   3.363
19589WAT     H259010   9.704   0.877   3.304
19590WAT      O59011   0.097   8.983   5.734
19590WAT     H159012   0.132   9.071   5.703
19590WAT     H259013   0.173   8.920   5.750
19591WAT      O59014   9.722   9.767   0.969
19591WAT     H159015   9.647   9.832   0.958
19591WAT     H259016   9.807   9.809   0.938
19592WAT      O59017   6.114   9.342   8.152
19592WAT     H159018   6.075   9.330   8.243
19592WAT     H259019   6.040   9.353   8.086
19593WAT      O59020   9.253   1.561   9.130
19593WAT     H159021   9.252   1.483   9.193
19593WAT     H259022   9.159   1.583   9.104
19594WAT      O59023   1.772   2.191   0.836
19594WAT     H159024   1.829   2.187   0.753
19594WAT     H259025   1.734   2.282   0.846
19595WAT      O59026   2.794   1.722   6.959
19595WAT     H159027   2.841   1.802   6.921
19595WAT     H259028   2.860   1.663   7.004
19596WAT      O59029   3.378   5.707   3.584
19596WAT     H159030   3.477   5.714   3.574
19596WAT     H259031   3.349   5.748   3.670
19597WAT      O59032   7.313   7.561   3.750
19597WAT     H159033   7.284   7.628   3.819
19597WAT     H259034   7.282   7.591   3.660
19598WAT      O59035   2.189   9.325   8.519
19598WAT     H159036   2.193   9.299   8.423
19598WAT     H259037   2.274   9.368   8.546
19599WAT      O59038   2.520   0.088   3.581
19599WAT     H159039   2.456   0.041   3.520
19599WAT     H259040   2.469   0.147   3.644
19600WAT      O59041   5.703   1.169   1.390
19600WAT     H159042   5.730   1.136   1.481
19600WAT     H259043   5.604   1.185   1.389
19601WAT      O59044   3.315   8.081   6.398
19601WAT     H159045   3.340   8.099   6.493
19601WAT     H259046   3.322   7.983   6.379
19602WAT      O59047   0.937   6.582   9.647
19602WAT     H159048   0.862   6.516   9.645
19602WAT     H259049   0.967   6.601   9.554
19603WAT      O59050   3.420   7.787   4.461
19603WAT     H159051   3.358   7.861   4.435
19603WAT     H259052   3.486   7.771   4.387
19604WAT      O59053   6.500   1.585   9.816
19604WAT     H159054   6.581   1.527   9.811
19604WAT     H259055   6.516   1.671   9.769
19605WAT      O59056   2.185   3.927   3.530
19605WAT     H159057   2.277   3.896   3.557
19605WAT     H259058   2.164   4.013   3.575
19606WAT      O59059   0.742   7.768   2.561
19606WAT     H159060   0.730   7.862   2.592
19606WAT     H259061   0.750   7.707   2.641
19607WAT      O59062   9.451   0.444   1.895
19607WAT     H159063   9.360   0.476   1.870
19607WAT     H259064   9.511   0.523   1.909
19608WAT      O59065   2.362   3.180   7.800
19608WAT     H159066   2.434   3.200   7.734
19608WAT     H259067   2.384   3.224   7.887
19609WAT      O59068   2.702   0.596   2.934
19609WAT     H159069   2.702   0.657   3.013
19609WAT     H259070   2.776   0.529   2.943
19610WAT      O59071   7.358   0.089   1.263
19610WAT     H159072   7.390   0.097   1.168
19610WAT     H259073   7.433   0.111   1.325
19611WAT      O59074   6.386   8.842   9.125
19611WAT     H159075   6.409   8.773   9.057
19611WAT     H259076   6.352   8.924   9.079
19612WAT      O59077   4.836   5.621   3.408
19612WAT     H159078   4.909   5.653   3.348
19612WAT     H259079   4.872   5.608   3.501
19613WAT      O59080   2.031   5.100   8.372
19613WAT     H159081   2.126   5.105   8.403
19613WAT     H259082   2.023   5.145   8.283
19614WAT      O59083   9.546   2.183   8.411
19614WAT     H159084   9.573   2.279   8.415
19614WAT     H259085   9.576   2.137   8.495
19615WAT      O59086   5.953   5.653   6.851
19615WAT     H159087   5.951   5.553   6.847
19615WAT     H259088   5.898   5.691   6.777
19616WAT      O59089   1.025   3.530   6.108
19616WAT     H159090   1.090   3.539   6.183
19616WAT     H259091   0.935   3.507   6.144
19617WAT      O59092   8.340   0.573   0.880
19617WAT     H159093   8.313   0.641   0.948
19617WAT     H259094   8.295   0.594   0.793
19618WAT      O59095   3.469   0.812   6.559
19618WAT     H159096   3.449   0.835   6.464
19618WAT     H259097   3.383   0.803   6.610
19619WAT      O59098   6.690   2.193   8.218
19619WAT     H159099   6.599   2.151   8.213
19619WAT     H259100   6.753   2.131   8.264
19620WAT      O59101   2.186   9.067   4.869
19620WAT     H159102   2.263   9.103   4.815
19620WAT     H259103   2.220   9.027   4.953
19621WAT      O59104   6.193   0.431   5.615
19621WAT     H159105   6.107   0.380   5.610
19621WAT     H259106   6.252   0.389   5.683
19622WAT      O59107   2.215   4.431   3.663
19622WAT     H159108   2.176   4.466   3.577
19622WAT     H259109   2.153   4.453   3.738
19623WAT      O59110   9.091   8.547   7.966
19623WAT     H159111   9.057   8.640   7.979
19623WAT     H259112   9.155   8.545   7.890
19624WAT      O59113   7.005   1.099   1.836
19624WAT     H159114   6.913   1.125   1.808
19624WAT     H259115   7.028   1.010   1.797
19625WAT      O59116   7.544   2.668   6.523
19625WAT     H159117   7.514   2.578   6.555
19625WAT     H259118   7.589   2.716   6.599
19626WAT      O59119   0.148   8.761   5.052
19626WAT     H159120   0.102   8.717   5.129
19626WAT     H259121   0.177   8.691   4.986
19627WAT      O59122   5.487   5.880   5.191
19627WAT     H159123   5.575   5.920   5.165
19627WAT     H259124   5.437   5.854   5.109
19628WAT      O59125   6.380   2.315   4.850
19628WAT     H159126   6.408   2.345   4.758
19628WAT     H259127   6.360   2.395   4.906
19629WAT      O59128   5.451   1.761   4.007
19629WAT     H159129   5.408   1.753   3.917
19629WAT     H259130   5.383   1.792   4.073
19630WAT      O59131   0.573   7.351   6.669
19630WAT     H159132   0.473   7.346   6.658
19630WAT     H259133   0.595   7.392   6.758
19631WAT      O59134   9.366   7.951   8.461
19631WAT     H159135   9.269   7.936   8.480
19631WAT     H259136   9.422   7.897   8.524
19632WAT      O59137   0.168   1.923   0.230
19632WAT     H159138   0.237   1.854   0.211
19632WAT     H259139   0.170   1.946   0.328
19633WAT      O59140   1.434   6.066   6.366
19633WAT     H159141   1.402   6.147   6.414
19633WAT     H259142   1.442   5.990   6.430
19634WAT      O59143   5.658   0.870   2.130
19634WAT     H159144   5.687   0.802   2.062
19634WAT     H259145   5.737   0.925   2.157
19635WAT      O59146   2.055   7.709   0.232
19635WAT     H159147   1.956   7.694   0.233
19635WAT     H259148   2.095   7.662   0.154
19636WAT      O59149   8.588   5.254   3.637
19636WAT     H159150   8.631   5.343   3.628
19636WAT     H259151   8.592   5.223   3.732
19637WAT      O59152   1.559   1.081   6.260
19637WAT     H159153   1.650   1.039   6.263
19637WAT     H259154   1.498   1.025   6.205
19638WAT      O59155   1.981   1.367   9.829
19638WAT     H159156   2.027   1.281   9.807
19638WAT     H259157   2.000   1.434   9.757
19639WAT      O59158   7.422   3.623   7.883
19639WAT     H159159   7.404   3.571   7.799
19639WAT     H259160   7.383   3.575   7.961
19640WAT      O59161   8.145   6.740   1.604
19640WAT     H159162   8.223   6.749   1.542
19640WAT     H259163   8.097   6.654   1.586
19641WAT      O59164   0.216   8.304   9.522
19641WAT     H159165   0.294   8.266   9.571
19641WAT     H259166   0.248   8.356   9.443
19642WAT      O59167   4.661   4.388   1.896
19642WAT     H159168   4.632   4.353   1.807
19642WAT     H259169   4.759   4.405   1.894
19643WAT      O59170   9.656   3.191   9.733
19643WAT     H159171   9.660   3.291   9.732
19643WAT     H259172   9.670   3.156   9.640
19644WAT      O59173   0.514   6.641   5.320
19644WAT     H159174   0.459   6.723   5.334
19644WAT     H259175   0.606   6.667   5.291
19645WAT      O59176   3.745   3.208   4.561
19645WAT     H159177   3.645   3.203   4.561
19645WAT     H259178   3.773   3.302   4.541
19646WAT      O59179   8.166   9.151   7.326
19646WAT     H159180   8.170   9.228   7.390
19646WAT     H259181   8.211   9.072   7.367
19647WAT      O59182   4.652   2.171   8.901
19647WAT     H159183   4.611   2.083   8.877
19647WAT     H259184   4.582   2.243   8.894
19648WAT      O59185   5.723   0.249   8.687
19648WAT     H159186   5.768   0.294   8.764
19648WAT     H259187   5.793   0.213   8.625
19649WAT      O59188   2.476   2.663   1.639
19649WAT     H159189   2.572   2.690   1.640
19649WAT     H259190   2.418   2.742   1.656
19650WAT      O59191   2.587   7.108   4.904
19650WAT     H159192   2.492   7.100   4.933
19650WAT     H259193   2.608   7.035   4.839
19651WAT      O59194   1.025   7.247   7.509
19651WAT     H159195   0.939   7.300   7.510
19651WAT     H259196   1.026   7.183   7.586
19652WAT      O59197   2.960   4.181   9.018
19652WAT     H159198   2.903   4.179   8.936
19652WAT     H259199   2.965   4.089   9.058
19653WAT      O59200   5.684   3.747   9.781
19653WAT     H159201   5.602   3.754   9.837
19653WAT     H259202   5.744   3.676   9.817
19654WAT      O59203   1.098   9.354   2.879
19654WAT     H159204   1.081   9.417   2.954
19654WAT     H259205   1.180   9.382   2.829
19655WAT      O59206   1.055   9.791   6.233
19655WAT     H159207   1.153   9.773   6.223
19655WAT     H259208   1.006   9.704   6.242
19656WAT      O59209   4.222   4.444   6.242
19656WAT     H159210   4.282   4.368   6.268
19656WAT     H259211   4.165   4.469   6.319
19657WAT      O59212   7.291   2.124   3.349
19657WAT     H159213   7.227   2.052   3.375
19657WAT     H259214   7.307   2.120   3.250
19658WAT      O59215   0.175   5.079   0.075
19658WAT     H159216   0.089   5.028   0.073
19658WAT     H259217   0.247   5.022   0.116
19659WAT      O59218   1.233   5.237   9.887
19659WAT     H159219   1.255   5.213   9.792
19659WAT     H259220   1.179   5.164   9.928
19660WAT      O59221   4.281   6.467   9.040
19660WAT     H159222   4.206   6.407   9.013
19660WAT     H259223   4.367   6.430   9.007
19661WAT      O59224   2.552   1.801   8.972
19661WAT     H159225   2.581   1.873   9.035
19661WAT     H259226   2.551   1.836   8.878
19662WAT      O59227   3.550   1.048   1.500
19662WAT     H159228   3.602   1.099   1.568
19662WAT     H259229   3.527   0.958   1.537
19663WAT      O59230   7.386   9.267   2.610
19663WAT     H159231   7.470   9.319   2.591
19663WAT     H259232   7.341   9.305   2.691
19664WAT      O59233   0.117   9.438   2.115
19664WAT     H159234   0.051   9.513   2.124
19664WAT     H259235   0.195   9.455   2.176
19665WAT      O59236   1.536   2.225   8.065
19665WAT     H159237   1.606   2.181   8.009
19665WAT     H259238   1.574   2.308   8.106
19666WAT      O59239   1.433   4.963   7.944
19666WAT     H159240   1.464   4.898   8.013
19666WAT     H259241   1.452   4.926   7.853
19667WAT      O59242   9.547   2.523   0.283
19667WAT     H159243   9.638   2.496   0.253
19667WAT     H259244   9.482   2.509   0.207
19668WAT      O59245   3.220   6.390   5.738
19668WAT     H159246   3.197   6.319   5.804
19668WAT     H259247   3.142   6.406   5.678
19669WAT      O59248   3.832   4.416   4.489
19669WAT     H159249   3.822   4.500   4.542
19669WAT     H259250   3.877   4.436   4.402
19670WAT      O59251   5.692   5.332   4.266
19670WAT     H159252   5.750   5.253   4.248
19670WAT     H259253   5.599   5.301   4.288
19671WAT      O59254   2.334   8.788   1.274
19671WAT     H159255   2.343   8.886   1.258
19671WAT     H259256   2.419   8.753   1.315
19672WAT      O59257   8.444   2.797   0.315
19672WAT     H159258   8.439   2.895   0.299
19672WAT     H259259   8.518   2.777   0.379
19673WAT      O59260   1.368   3.851   4.932
19673WAT     H159261   1.330   3.823   5.020
19673WAT     H259262   1.306   3.824   4.859
19674WAT      O59263   8.542   1.381   6.311
19674WAT     H159264   8.449   1.385   6.272
19674WAT     H259265   8.584   1.294   6.287
19675WAT      O59266   2.741   6.816   5.499
19675WAT     H159267   2.745   6.859   5.408
19675WAT     H259268   2.835   6.802   5.532
19676WAT      O59269   0.059   8.484   1.540
19676WAT     H159270   0.105   8.409   1.492
19676WAT     H259271  -0.022   8.450   1.586
19677WAT      O59272   9.802   3.368   3.184
19677WAT     H159273   9.861   3.441   3.217
19677WAT     H259274   9.829   3.281   3.226
19678WAT      O59275   5.138   2.810   3.338
19678WAT     H159276   5.167   2.876   3.268
19678WAT     H259277   5.051   2.769   3.309
19679WAT      O59278   8.400   6.833   7.853
19679WAT     H159279   8.466   6.820   7.927
19679WAT     H259280   8.449   6.847   7.767
19680WAT      O59281   2.867   8.829   6.038
19680WAT     H159282   2.785   8.788   6.079
19680WAT     H259283   2.840   8.896   5.969
19681WAT      O59284   2.261   6.313   5.917
19681WAT     H159285   2.359   6.330   5.909
19681WAT     H259286   2.219   6.316   5.826
19682WAT      O59287   7.902   4.944   6.971
19682WAT     H159288   7.989   4.895   6.976
19682WAT     H259289   7.903   5.021   7.035
19683WAT      O59290   0.899   5.770   3.439
19683WAT     H159291   0.943   5.680   3.448
19683WAT     H259292   0.803   5.757   3.412
19684WAT      O59293   7.687   5.252   3.220
19684WAT     H159294   7.591   5.260   3.245
19684WAT     H259295   7.695   5.230   3.123
19685WAT      O59296   2.798   6.023   4.293
19685WAT     H159297   2.780   6.060   4.202
19685WAT     H259298   2.795   5.923   4.290
19686WAT      O59299   1.393   9.043   4.371
19686WAT     H159300   1.429   8.953   4.346
19686WAT     H259301   1.303   9.056   4.330
19687WAT      O59302   7.647   9.550   3.378
19687WAT     H159303   7.566   9.596   3.340
19687WAT     H259304   7.720   9.617   3.391
19688WAT      O59305   3.001   9.503   1.038
19688WAT     H159306   3.056   9.491   1.121
19688WAT     H259307   3.051   9.561   0.974
19689WAT      O59308   6.908   4.730   7.310
19689WAT     H159309   6.865   4.746   7.399
19689WAT     H259310   6.848   4.764   7.238
19690WAT      O59311   8.767   5.455   1.978
19690WAT     H159312   8.820   5.500   2.050
19690WAT     H259313   8.780   5.356   1.983
19691WAT      O59314   4.848   9.459   3.773
19691WAT     H159315   4.825   9.474   3.677
19691WAT     H259316   4.947   9.459   3.784
19692WAT      O59317   5.802   8.170   5.980
19692WAT     H159318   5.801   8.180   5.881
19692WAT     H259319   5.897   8.171   6.012
19693WAT      O59320   5.202   1.483   8.464
19693WAT     H159321   5.148   1.443   8.538
19693WAT     H259322   5.151   1.476   8.378
19694WAT      O59323   3.596   1.846   7.898
19694WAT     H159324   3.650   1.776   7.945
19694WAT     H259325   3.508   1.807   7.871
19695WAT      O59326   4.927   8.396   0.288
19695WAT     H159327   4.862   8.416   0.215
19695WAT     H259328   4.924   8.470   0.356
19696WAT      O59329   1.204   8.587   8.167
19696WAT     H159330   1.125   8.605   8.110
19696WAT     H259331   1.229   8.671   8.216
19697WAT      O59332   0.946   8.153   1.929
19697WAT     H159333   0.855   8.137   1.890
19697WAT     H259334   1.002   8.071   1.917
19698WAT      O59335   9.269   1.508   6.617
19698WAT     H159336   9.330   1.512   6.696
19698WAT     H259337   9.231   1.599   6.600
19699WAT      O59338   9.702   5.966   0.104
19699WAT     H159339   9.681   5.908   0.025
19699WAT     H259340   9.776   6.029   0.080
19700WAT      O59341   9.270   8.565   2.994
19700WAT     H159342   9.274   8.612   2.906
19700WAT     H259343   9.212   8.484   2.986
19701WAT      O59344   5.173   7.667   0.734
19701WAT     H159345   5.218   7.754   0.713
19701WAT     H259346   5.078   7.685   0.760
19702WAT      O59347   9.207   5.698   6.382
19702WAT     H159348   9.293   5.703   6.433
19702WAT     H259349   9.225   5.665   6.289
19703WAT      O59350   0.174   6.480   7.423
19703WAT     H159351   0.231   6.557   7.396
19703WAT     H259352   0.078   6.502   7.407
19704WAT      O59353   0.232   2.285   1.091
19704WAT     H159354   0.289   2.301   1.010
19704WAT     H259355   0.282   2.229   1.156
19705WAT      O59356   7.511   1.713   5.655
19705WAT     H159357   7.546   1.804   5.636
19705WAT     H259358   7.426   1.699   5.604
19706WAT      O59359   0.946   3.708   2.624
19706WAT     H159360   0.978   3.672   2.536
19706WAT     H259361   0.921   3.805   2.613
19707WAT      O59362   4.453   6.155   1.435
19707WAT     H159363   4.493   6.225   1.376
19707WAT     H259364   4.523   6.087   1.458
19708WAT      O59365   4.307   5.618   7.684
19708WAT     H159366   4.356   5.682   7.743
19708WAT     H259367   4.330   5.636   7.588
19709WAT      O59368   8.521   1.641   7.048
19709WAT     H159369   8.480   1.688   6.970
19709WAT     H259370   8.519   1.701   7.128
19710WAT      O59371   9.036   9.715   4.341
19710WAT     H159372   9.026   9.815   4.340
19710WAT     H259373   8.947   9.673   4.319
19711WAT      O59374   5.075   7.580   9.031
19711WAT     H159375   4.987   7.551   8.993
19711WAT     H259376   5.060   7.615   9.124
19712WAT      O59377   0.416   2.908   7.270
19712WAT     H159378   0.421   2.854   7.186
19712WAT     H259379   0.501   2.897   7.322
19713WAT      O59380   5.490   3.196   2.100
19713WAT     H159381   5.391   3.202   2.102
19713WAT     H259382   5.520   3.165   2.010
19714WAT      O59383   6.171   6.978   5.449
19714WAT     H159384   6.259   7.025   5.448
19714WAT     H259385   6.103   7.032   5.399
19715WAT      O59386   7.202   9.657   0.700
19715WAT     H159387   7.247   9.726   0.643
19715WAT     H259388   7.255   9.642   0.783
19716WAT      O59389   9.088   3.583   1.104
19716WAT     H159390   9.157   3.536   1.160
19716WAT     H259391   9.027   3.515   1.063
19717WAT      O59392   2.787   4.178   7.070
19717WAT     H159393   2.760   4.170   6.974
19717WAT     H259394   2.707   4.203   7.125
19718WAT      O59395   7.427   5.209   3.345
19718WAT     H159396   7.443   5.142   3.417
19718WAT     H259397   7.386   5.291   3.384
19719WAT      O59398   3.775   7.878   5.725
19719WAT     H159399   3.769   7.796   5.669
19719WAT     H259400   3.688   7.895   5.771
19720WAT      O59401   2.048   8.549   3.425
19720WAT     H159402   2.112   8.583   3.357
19720WAT     H259403   1.957   8.585   3.407
19721WAT      O59404   2.890   6.180   3.372
19721WAT     H159405   2.907   6.081   3.382
19721WAT     H259406   2.965   6.230   3.414
19722WAT      O59407   4.902   1.739   7.337
19722WAT     H159408   4.893   1.687   7.252
19722WAT     H259409   4.828   1.807   7.343
19723WAT      O59410   4.344   0.646   8.626
19723WAT     H159411   4.348   0.665   8.724
19723WAT     H259412   4.367   0.730   8.576
19724WAT      O59413   1.546   9.332   9.889
19724WAT     H159414   1.524   9.407   9.826
19724WAT     H259415   1.643   9.307   9.878
19725WAT      O59416   1.642   0.210   6.985
19725WAT     H159417   1.613   0.294   6.938
19725WAT     H259418   1.566   0.145   6.986
19726WAT      O59419   0.520   9.557   3.033
19726WAT     H159420   0.489   9.486   3.097
19726WAT     H259421   0.553   9.636   3.085
19727WAT      O59422   7.183   2.387   4.395
19727WAT     H159423   7.204   2.482   4.419
19727WAT     H259424   7.205   2.328   4.472
19728WAT      O59425   3.417   4.169   4.121
19728WAT     H159426   3.434   4.144   4.026
19728WAT     H259427   3.445   4.263   4.137
19729WAT      O59428   4.706   3.254   9.330
19729WAT     H159429   4.686   3.192   9.406
19729WAT     H259430   4.747   3.338   9.364
19730WAT      O59431   1.860   2.659   0.330
19730WAT     H159432   1.882   2.567   0.298
19730WAT     H259433   1.924   2.686   0.401
19731WAT      O59434   4.175   9.537   9.455
19731WAT     H159435   4.183   9.438   9.462
19731WAT     H259436   4.249   9.580   9.508
19732WAT      O59437   9.822   1.728   5.600
19732WAT     H159438   9.896   1.757   5.539
19732WAT     H259439   9.814   1.793   5.676
19733WAT      O59440   1.353   7.114   8.198
19733WAT     H159441   1.389   7.171   8.272
19733WAT     H259442   1.328   7.025   8.234
19734WAT      O59443   1.799   5.430   2.759
19734WAT     H159444   1.751   5.518   2.755
19734WAT     H259445   1.878   5.433   2.699
19735WAT      O59446   0.480   1.762   3.052
19735WAT     H159447   0.512   1.667   3.057
19735WAT     H259448   0.558   1.823   3.040
19736WAT      O59449   7.215   1.180   6.040
19736WAT     H159450   7.236   1.244   6.114
19736WAT     H259451   7.140   1.120   6.068
19737WAT      O59452   6.178   9.843   8.279
19737WAT     H159453   6.253   9.823   8.216
19737WAT     H259454   6.203   9.813   8.371
19738WAT      O59455   0.388   3.592   5.198
19738WAT     H159456   0.289   3.587   5.184
19738WAT     H259457   0.419   3.687   5.186
19739WAT      O59458   5.523   4.351   0.637
19739WAT     H159459   5.479   4.441   0.632
19739WAT     H259460   5.542   4.328   0.732
19740WAT      O59461   7.967   8.116   0.704
19740WAT     H159462   7.883   8.149   0.660
19740WAT     H259463   7.992   8.178   0.778
19741WAT      O59464   6.191   7.513   4.475
19741WAT     H159465   6.184   7.419   4.509
19741WAT     H259466   6.102   7.558   4.484
19742WAT      O59467   8.454   3.561   3.530
19742WAT     H159468   8.418   3.614   3.607
19742WAT     H259469   8.523   3.615   3.482
19743WAT      O59470   8.820   3.483   5.788
19743WAT     H159471   8.829   3.488   5.689
19743WAT     H259472   8.904   3.443   5.826
19744WAT      O59473   7.607   1.198   4.143
19744WAT     H159474   7.602   1.104   4.109
19744WAT     H259475   7.528   1.249   4.110
19745WAT      O59476   3.438   6.959   6.566
19745WAT     H159477   3.529   6.974   6.605
19745WAT     H259478   3.431   7.007   6.478
19746WAT      O59479   7.473   6.725   5.383
19746WAT     H159480   7.390   6.685   5.345
19746WAT     H259481   7.539   6.740   5.310
19747WAT      O59482   9.146   6.837   5.805
19747WAT     H159483   9.217   6.795   5.862
19747WAT     H259484   9.189   6.895   5.737
19748WAT      O59485   3.104   0.194   0.895
19748WAT     H159486   3.075   0.104   0.862
19748WAT     H259487   3.137   0.249   0.819
19749WAT      O59488   4.904   3.999   6.952
19749WAT     H159489   4.955   3.951   6.880
19749WAT     H259490   4.820   3.948   6.973
19750WAT      O59491   3.466   2.907   6.904
19750WAT     H159492   3.477   2.895   7.002
19750WAT     H259493   3.369   2.914   6.881
19751WAT      O59494   2.304   7.174   4.409
19751WAT     H159495   2.320   7.095   4.467
19751WAT     H259496   2.275   7.252   4.465
19752WAT      O59497   9.106   0.628   2.212
19752WAT     H159498   9.182   0.676   2.168
19752WAT     H259499   9.032   0.693   2.230
19753WAT      O59500   4.781   6.695   6.575
19753WAT     H159501   4.687   6.714   6.604
19753WAT     H259502   4.810   6.607   6.612
19754WAT      O59503   8.122   8.873   8.578
19754WAT     H159504   8.028   8.903   8.561
19754WAT     H259505   8.180   8.952   8.594
19755WAT      O59506   9.268   2.498   1.721
19755WAT     H159507   9.338   2.449   1.670
19755WAT     H259508   9.230   2.438   1.792
19756WAT      O59509   4.560   2.072   0.433
19756WAT     H159510   4.489   2.112   0.374
19756WAT     H259511   4.638   2.044   0.377
19757WAT      O59512   8.293   3.111   5.820
19757WAT     H159513   8.283   3.167   5.902
19757WAT     H259514   8.275   3.015   5.843
19758WAT      O59515   1.530   2.944   1.580
19758WAT     H159516   1.569   2.892   1.504
19758WAT     H259517   1.443   2.904   1.608
19759WAT      O59518   6.699   9.829   1.579
19759WAT     H159519   6.794   9.851   1.598
19759WAT     H259520   6.695   9.761   1.506
19760WAT      O59521   3.040   7.985   9.612
19760WAT     H159522   3.044   7.949   9.705
19760WAT     H259523   2.993   7.920   9.552
19761WAT      O59524   3.520   4.847   9.189
19761WAT     H159525   3.449   4.794   9.141
19761WAT     H259526   3.607   4.837   9.141
19762WAT      O59527   1.071   2.176   8.010
19762WAT     H159528   1.103   2.219   7.925
19762WAT     H259529   1.150   2.153   8.067
19763WAT      O59530   6.175   2.785   5.621
19763WAT     H159531   6.164   2.703   5.677
19763WAT     H259532   6.263   2.780   5.572
19764WAT      O59533   1.635   8.356   0.414
19764WAT     H159534   1.554   8.404   0.381
19764WAT     H259535   1.715   8.415   0.403
19765WAT      O59536   4.413   4.527   2.995
19765WAT     H159537   4.480   4.557   3.063
19765WAT     H259538   4.366   4.606   2.957
19766WAT      O59539   4.924   8.782   9.379
19766WAT     H159540   4.989   8.856   9.360
19766WAT     H259541   4.847   8.788   9.315
19767WAT      O59542   9.152   8.008   6.176
19767WAT     H159543   9.158   7.957   6.091
19767WAT     H259544   9.244   8.026   6.212
19768WAT      O59545   5.129   6.943   3.343
19768WAT     H159546   5.137   7.015   3.413
19768WAT     H259547   5.180   6.862   3.373
19769WAT      O59548   8.055   4.619   0.069
19769WAT     H159549   7.969   4.579   0.036
19769WAT     H259550   8.096   4.559   0.137
19770WAT      O59551   9.352   7.741   4.485
19770WAT     H159552   9.253   7.730   4.498
19770WAT     H259553   9.368   7.818   4.424
19771WAT      O59554   2.772   1.021   6.105
19771WAT     H159555   2.725   0.933   6.105
19771WAT     H259556   2.869   1.007   6.125
19772WAT      O59557   7.882   5.641   9.478
19772WAT     H159558   7.939   5.585   9.417
19772WAT     H259559   7.871   5.732   9.438
19773WAT      O59560   6.390   6.200   1.422
19773WAT     H159561   6.384   6.101   1.413
19773WAT     H259562   6.383   6.226   1.518
19774WAT      O59563   6.086   3.278   5.788
19774WAT     H159564   6.106   3.193   5.739
19774WAT     H259565   6.021   3.332   5.736
19775WAT      O59566   7.764   1.816   9.500
19775WAT     H159567   7.730   1.740   9.446
19775WAT     H259568   7.689   1.878   9.522
19776WAT      O59569   5.168   7.347   6.769
19776WAT     H159570   5.255   7.315   6.732
19776WAT     H259571   5.170   7.340   6.869
19777WAT      O59572   7.362   5.110   8.789
19777WAT     H159573   7.358   5.010   8.785
19777WAT     H259574   7.410   5.138   8.872
19778WAT      O59575   3.304   3.859   8.600
19778WAT     H159576   3.368   3.935   8.606
19778WAT     H259577   3.354   3.774   8.587
19779WAT      O59578   0.346   4.532   7.786
19779WAT     H159579   0.320   4.627   7.803
19779WAT     H259580   0.435   4.529   7.741
19780WAT      O59581   4.495   1.479   2.989
19780WAT     H159582   4.437   1.398   2.982
19780WAT     H259583   4.442   1.555   3.028
19781WAT      O59584   9.606   7.738   6.105
19781WAT     H159585   9.689   7.685   6.124
19781WAT     H259586   9.631   7.833   6.088
19782WAT      O59587   6.575   9.477   1.566
19782WAT     H159588   6.611   9.532   1.491
19782WAT     H259589   6.523   9.400   1.529
19783WAT      O59590   6.714   5.401   8.937
19783WAT     H159591   6.651   5.440   9.003
19783WAT     H259592   6.774   5.473   8.901
19784WAT      O59593   4.733   1.912   7.561
19784WAT     H159594   4.687   1.878   7.479
19784WAT     H259595   4.815   1.963   7.534
19785WAT      O59596   4.833   7.332   4.071
19785WAT     H159597   4.763   7.381   4.018
19785WAT     H259598   4.866   7.254   4.018
19786WAT      O59599   1.595   4.194   2.576
19786WAT     H159600   1.578   4.104   2.535
19786WAT     H259601   1.511   4.248   2.574
19787WAT      O59602   0.092   2.160   1.945
19787WAT     H159603   0.066   2.082   1.889
19787WAT     H259604   0.126   2.129   2.034
19788WAT      O59605   7.502   6.367   0.568
19788WAT     H159606   7.570   6.341   0.499
19788WAT     H259607   7.445   6.440   0.533
19789WAT      O59608   9.620   5.878   8.613
19789WAT     H159609   9.676   5.889   8.531
19789WAT     H259610   9.608   5.966   8.658
19790WAT      O59611   7.817   6.891   5.315
19790WAT     H159612   7.850   6.823   5.249
19790WAT     H259613   7.763   6.960   5.267
19791WAT      O59614   7.472   1.229   3.780
19791WAT     H159615   7.550   1.269   3.732
19791WAT     H259616   7.481   1.129   3.781
19792WAT      O59617   5.779   9.770   4.485
19792WAT     H159618   5.720   9.689   4.489
19792WAT     H259619   5.757   9.831   4.561
19793WAT      O59620   2.754   9.490   3.337
19793WAT     H159621   2.846   9.507   3.300
19793WAT     H259622   2.762   9.437   3.422
19794WAT      O59623   2.257   1.894   8.809
19794WAT     H159624   2.312   1.975   8.794
19794WAT     H259625   2.305   1.813   8.774
19795WAT      O59626   3.381   0.556   7.892
19795WAT     H159627   3.334   0.480   7.848
19795WAT     H259628   3.407   0.530   7.985
19796WAT      O59629   3.215   4.540   8.714
19796WAT     H159630   3.297   4.530   8.658
19796WAT     H259631   3.161   4.618   8.680
19797WAT      O59632   8.757   4.001   5.368
19797WAT     H159633   8.672   3.991   5.318
19797WAT     H259634   8.783   3.913   5.408
19798WAT      O59635   6.554   8.625   0.886
19798WAT     H159636   6.537   8.647   0.790
19798WAT     H259637   6.491   8.553   0.915
19799WAT      O59638   6.203   0.204   3.707
19799WAT     H159639   6.241   0.289   3.671
19799WAT     H259640   6.259   0.173   3.784
19800WAT      O59641   6.743   7.006   8.351
19800WAT     H159642   6.679   6.996   8.426
19800WAT     H259643   6.837   7.009   8.387
19801WAT      O59644   1.764   3.059   8.323
19801WAT     H159645   1.863   3.050   8.309
19801WAT     H259646   1.717   2.981   8.282
19802WAT      O59647   9.058   1.409   3.259
19802WAT     H159648   9.014   1.338   3.314
19802WAT     H259649   9.032   1.499   3.292
19803WAT      O59650   0.432   1.002   1.436
19803WAT     H159651   0.379   1.061   1.496
19803WAT     H259652   0.498   0.950   1.490
19804WAT      O59653   8.240   8.213   7.925
19804WAT     H159654   8.266   8.306   7.951
19804WAT     H259655   8.294   8.148   7.977
19805WAT      O59656   0.551   8.035   2.543
19805WAT     H159657   0.504   8.098   2.482
19805WAT     H259658   0.650   8.048   2.535
19806WAT      O59659   4.397   9.039   2.322
19806WAT     H159660   4.424   9.135   2.314
19806WAT     H259661   4.401   9.011   2.418
19807WAT      O59662   2.227   3.871   6.689
19807WAT     H159663   2.268   3.934   6.623
19807WAT     H259664   2.278   3.785   6.690
19808WAT      O59665   6.748   7.539   5.898
19808WAT     H159666   6.678   7.468   5.903
19808WAT     H259667   6.756   7.586   5.986
19809WAT      O59668   3.157   3.857   2.016
19809WAT     H159669   3.147   3.813   1.926
19809WAT     H259670   3.086   3.926   2.027
19810WAT      O59671   9.118   2.804   4.046
19810WAT     H159672   9.146   2.715   4.082
19810WAT     H259673   9.067   2.854   4.116
19811WAT      O59674   0.301   1.004   4.155
19811WAT     H159675   0.236   1.003   4.231
19811WAT     H259676   0.393   1.023   4.190
19812WAT      O59677   4.964   2.163   3.588
19812WAT     H159678   4.881   2.119   3.622
19812WAT     H259679   4.995   2.231   3.654
19813WAT      O59680   3.747   6.983   6.283
19813WAT     H159681   3.708   7.075   6.295
19813WAT     H259682   3.737   6.954   6.188
19814WAT      O59683   1.438   2.866   9.392
19814WAT     H159684   1.497   2.830   9.320
19814WAT     H259685   1.493   2.885   9.474
19815WAT      O59686   5.617   4.433   6.404
19815WAT     H159687   5.639   4.347   6.451
19815WAT     H259688   5.635   4.423   6.306
19816WAT      O59689   2.563   8.955   6.862
19816WAT     H159690   2.549   8.945   6.763
19816WAT     H259691   2.542   8.868   6.907
19817WAT      O59692   4.992   2.336   6.651
19817WAT     H159693   4.947   2.380   6.573
19817WAT     H259694   5.035   2.405   6.709
19818WAT      O59695   9.696   4.494   5.826
19818WAT     H159696   9.764   4.541   5.882
19818WAT     H259697   9.714   4.511   5.730
19819WAT      O59698   6.002   6.386   7.979
19819WAT     H159699   5.998   6.295   7.937
19819WAT     H259700   6.037   6.452   7.912
19820WAT      O59701   7.195   0.633   7.774
19820WAT     H159702   7.184   0.628   7.675
19820WAT     H259703   7.278   0.684   7.796
19821WAT      O59704   8.642   1.786   5.797
19821WAT     H159705   8.633   1.829   5.887
19821WAT     H259706   8.603   1.847   5.727
19822WAT      O59707   1.616   5.487   3.236
19822WAT     H159708   1.609   5.579   3.273
19822WAT     H259709   1.708   5.472   3.200
19823WAT      O59710   7.086   8.590   5.441
19823WAT     H159711   7.089   8.530   5.520
19823WAT     H259712   7.176   8.630   5.426
19824WAT      O59713   3.835   0.474   9.094
19824WAT     H159714   3.871   0.503   9.182
19824WAT     H259715   3.898   0.502   9.021
19825WAT      O59716   4.262   3.144   9.725
19825WAT     H159717   4.225   3.235   9.707
19825WAT     H259718   4.331   3.123   9.655
19826WAT      O59719   3.611   0.686   3.886
19826WAT     H159720   3.623   0.785   3.890
19826WAT     H259721   3.613   0.648   3.979
19827WAT      O59722   3.995   4.229   6.883
19827WAT     H159723   3.965   4.142   6.844
19827WAT     H259724   3.998   4.221   6.983
19828WAT      O59725   9.277   5.270   3.066
19828WAT     H159726   9.277   5.340   2.994
19828WAT     H259727   9.231   5.306   3.147
19829WAT      O59728   3.618   6.505   7.004
19829WAT     H159729   3.646   6.600   6.990
19829WAT     H259730   3.534   6.487   6.953
19830WAT      O59731   9.691   1.289   6.147
19830WAT     H159732   9.656   1.338   6.226
19830WAT     H259733   9.778   1.245   6.171
19831WAT      O59734   7.191   2.178   4.600
19831WAT     H159735   7.135   2.201   4.679
19831WAT     H259736   7.196   2.079   4.590
19832WAT      O59737   3.588   6.279   6.691
19832WAT     H159738   3.513   6.221   6.660
19832WAT     H259739   3.667   6.223   6.713
19833WAT      O59740   0.783   6.827   2.665
19833WAT     H159741   0.804   6.730   2.655
19833WAT     H259742   0.812   6.876   2.582
19834WAT      O59743   0.621   1.062   6.010
19834WAT     H159744   0.596   1.017   5.925
19834WAT     H259745   0.719   1.050   6.027
19835WAT      O59746   2.759   0.200   8.778
19835WAT     H159747   2.797   0.108   8.790
19835WAT     H259748   2.722   0.209   8.685
19836WAT      O59749   8.058   2.049   9.824
19836WAT     H159750   8.153   2.033   9.850
19836WAT     H259751   8.027   1.976   9.762
19837WAT      O59752   8.088   2.706   5.516
19837WAT     H159753   8.102   2.803   5.532
19837WAT     H259754   8.069   2.660   5.603
19838WAT      O59755   4.540   2.876   6.587
19838WAT     H159756   4.487   2.796   6.617
19838WAT     H259757   4.554   2.938   6.664
19839WAT      O59758   1.096   4.009   4.151
19839WAT     H159759   1.184   3.973   4.121
19839WAT     H259760   1.109   4.064   4.234
19840WAT      O59761   4.247   0.280   2.272
19840WAT     H159762   4.233   0.324   2.183
19840WAT     H259763   4.219   0.184   2.266
19841WAT      O59764   6.809   2.539   6.829
19841WAT     H159765   6.886   2.602   6.841
19841WAT     H259766   6.825   2.458   6.885
19842WAT      O59767   5.064   9.366   5.559
19842WAT     H159768   5.092   9.313   5.479
19842WAT     H259769   5.127   9.348   5.635
19843WAT      O59770   2.245   5.884   4.774
19843WAT     H159771   2.190   5.919   4.850
19843WAT     H259772   2.201   5.803   4.736
19844WAT      O59773   9.670   9.380   2.708
19844WAT     H159774   9.750   9.434   2.684
19844WAT     H259775   9.696   9.305   2.768
19845WAT      O59776   8.784   7.498   4.510
19845WAT     H159777   8.722   7.474   4.585
19845WAT     H259778   8.767   7.592   4.482
19846WAT      O59779   5.535   9.199   1.974
19846WAT     H159780   5.564   9.282   2.020
19846WAT     H259781   5.460   9.220   1.912
19847WAT      O59782   1.750   1.903   7.275
19847WAT     H159783   1.813   1.830   7.301
19847WAT     H259784   1.758   1.921   7.177
19848WAT      O59785   7.742   4.024   9.594
19848WAT     H159786   7.831   4.064   9.571
19848WAT     H259787   7.669   4.081   9.557
19849WAT      O59788   6.248   7.128   8.743
19849WAT     H159789   6.264   7.030   8.743
19849WAT     H259790   6.308   7.172   8.676
19850WAT      O59791   5.537   3.378   5.325
19850WAT     H159792   5.562   3.454   5.386
19850WAT     H259793   5.538   3.410   5.230
19851WAT      O59794   5.513   6.342   2.310
19851WAT     H159795   5.460   6.269   2.354
19851WAT     H259796   5.580   6.379   2.375
19852WAT      O59797   5.320   2.748   8.130
19852WAT     H159798   5.226   2.780   8.122
19852WAT     H259799   5.347   2.749   8.226
19853WAT      O59800   4.509   8.208   4.307
19853WAT     H159801   4.456   8.283   4.266
19853WAT     H259802   4.464   8.179   4.391
19854WAT      O59803   7.526   7.011   4.514
19854WAT     H159804   7.505   7.108   4.502
19854WAT     H259805   7.611   6.989   4.468
19855WAT      O59806   8.516   0.577   4.625
19855WAT     H159807   8.606   0.616   4.645
19855WAT     H259808   8.451   0.605   4.696
19856WAT      O59809   1.397   2.516   5.229
19856WAT     H159810   1.432   2.507   5.135
19856WAT     H259811   1.350   2.603   5.239
19857WAT      O59812   2.681   8.750   2.322
19857WAT     H159813   2.613   8.788   2.258
19857WAT     H259814   2.741   8.687   2.273
19858WAT      O59815   0.709   6.820   7.911
19858WAT     H159816   0.707   6.905   7.962
19858WAT     H259817   0.620   6.803   7.870
19859WAT      O59818   8.226   0.707   8.242
19859WAT     H159819   8.172   0.790   8.227
19859WAT     H259820   8.209   0.643   8.167
19860WAT      O59821   1.429   3.707   0.313
19860WAT     H159822   1.351   3.768   0.306
19860WAT     H259823   1.462   3.685   0.221
19861WAT      O59824   2.050   8.180   1.747
19861WAT     H159825   1.996   8.141   1.822
19861WAT     H259826   1.998   8.254   1.704
19862WAT      O59827   1.235   1.943   4.199
19862WAT     H159828   1.229   1.864   4.260
19862WAT     H259829   1.301   2.008   4.235
19863WAT      O59830   9.439   2.646   4.456
19863WAT     H159831   9.521   2.682   4.412
19863WAT     H259832   9.438   2.546   4.449
19864WAT      O59833   9.597   4.330   0.180
19864WAT     H159834   9.510   4.376   0.164
19864WAT     H259835   9.585   4.231   0.172
19865WAT      O59836   1.384   6.907   2.935
19865WAT     H159837   1.315   6.864   2.993
19865WAT     H259838   1.372   7.006   2.937
19866WAT      O59839   3.484   0.911   3.248
19866WAT     H159840   3.448   0.834   3.195
19866WAT     H259841   3.424   0.929   3.325
19867WAT      O59842   7.902   8.809   0.608
19867WAT     H159843   7.925   8.722   0.565
19867WAT     H259844   7.969   8.830   0.679
19868WAT      O59845   8.476   3.872   3.427
19868WAT     H159846   8.560   3.821   3.406
19868WAT     H259847   8.399   3.832   3.377
19869WAT      O59848   8.486   8.714   7.161
19869WAT     H159849   8.515   8.744   7.070
19869WAT     H259850   8.566   8.705   7.221
19870WAT      O59851   1.573   4.620   7.486
19870WAT     H159852   1.669   4.646   7.498
19870WAT     H259853   1.515   4.699   7.506
19871WAT      O59854   3.677   6.802   9.291
19871WAT     H159855   3.669   6.769   9.197
19871WAT     H259856   3.772   6.794   9.321
19872WAT      O59857   8.911   2.369   0.313
19872WAT     H159858   8.830   2.340   0.363
19872WAT     H259859   8.963   2.289   0.283
19873WAT      O59860   5.007   0.742   7.444
19873WAT     H159861   4.961   0.666   7.489
19873WAT     H259862   4.942   0.815   7.426
19874WAT      O59863   7.669   4.901   8.918
19874WAT     H159864   7.750   4.843   8.905
19874WAT     H259865   7.638   4.894   9.013
19875WAT      O59866   8.568   1.369   0.263
19875WAT     H159867   8.564   1.435   0.339
19875WAT     H259868   8.534   1.412   0.180
19876WAT      O59869   0.759   9.063   3.463
19876WAT     H159870   0.845   9.078   3.511
19876WAT     H259871   0.744   8.965   3.450
19877WAT      O59872   0.537   9.098   8.247
19877WAT     H159873   0.633   9.123   8.259
19877WAT     H259874   0.522   9.005   8.281
19878WAT      O59875   0.944   7.635   6.878
19878WAT     H159876   0.927   7.651   6.975
19878WAT     H259877   0.948   7.537   6.861
19879WAT      O59878   6.955   7.944   5.086
19879WAT     H159879   6.931   7.850   5.062
19879WAT     H259880   6.940   8.003   5.006
19880WAT      O59881   2.999   9.651   6.988
19880WAT     H159882   2.959   9.741   7.003
19880WAT     H259883   2.997   9.628   6.890
19881WAT      O59884   7.992   6.379   3.362
19881WAT     H159885   7.908   6.403   3.313
19881WAT     H259886   7.970   6.320   3.439
19882WAT      O59887   3.895   4.290   9.804
19882WAT     H159888   3.857   4.356   9.868
19882WAT     H259889   3.970   4.240   9.848
19883WAT      O59890   3.575   1.808   2.326
19883WAT     H159891   3.582   1.907   2.339
19883WAT     H259892   3.567   1.764   2.416
19884WAT      O59893   6.058   3.872   4.950
19884WAT     H159894   6.017   3.962   4.958
19884WAT     H259895   6.069   3.849   4.853
19885WAT      O59896   2.487   2.229   3.291
19885WAT     H159897   2.545   2.308   3.313
19885WAT     H259898   2.416   2.258   3.226
19886WAT      O59899   7.367   5.544   4.055
19886WAT     H159900   7.399   5.477   3.988
19886WAT     H259901   7.272   5.525   4.078
19887WAT      O59902   9.458   4.068   8.424
19887WAT     H159903   9.459   4.048   8.522
19887WAT     H259904   9.363   4.082   8.394
19888WAT      O59905   8.591   4.844   4.262
19888WAT     H159906   8.586   4.823   4.360
19888WAT     H259907   8.685   4.832   4.230
19889WAT      O59908   0.723   2.812   3.841
19889WAT     H159909   0.646   2.748   3.838
19889WAT     H259910   0.749   2.827   3.937
19890WAT      O59911   8.585   7.622   9.213
19890WAT     H159912   8.488   7.604   9.198
19890WAT     H259913   8.627   7.545   9.261
19891WAT      O59914   1.263   3.785   6.148
19891WAT     H159915   1.281   3.734   6.064
19891WAT     H259916   1.228   3.723   6.218
19892WAT      O59917   6.281   2.497   6.854
19892WAT     H159918   6.187   2.513   6.824
19892WAT     H259919   6.340   2.486   6.774
19893WAT      O59920   6.727   4.609   5.595
19893WAT     H159921   6.653   4.547   5.623
19893WAT     H259922   6.688   4.685   5.543
19894WAT      O59923   7.891   2.871   1.720
19894WAT     H159924   7.837   2.876   1.804
19894WAT     H259925   7.965   2.939   1.724
19895WAT      O59926   4.849   0.341   1.526
19895WAT     H159927   4.868   0.289   1.609
19895WAT     H259928   4.772   0.301   1.477
19896WAT      O59929   8.215   0.715   1.064
19896WAT     H159930   8.260   0.789   1.113
19896WAT     H259931   8.154   0.754   0.995
19897WAT      O59932   6.825   1.468   8.535
19897WAT     H159933   6.924   1.476   8.524
19897WAT     H259934   6.796   1.519   8.616
19898WAT      O59935   3.398   9.175   3.358
19898WAT     H159936   3.472   9.228   3.315
19898WAT     H259937   3.398   9.195   3.456
19899WAT      O59938   3.748   5.616   5.988
19899WAT     H159939   3.682   5.555   6.030
19899WAT     H259940   3.834   5.613   6.039
19900WAT      O59941   1.922   5.179   7.875
19900WAT     H159942   1.948   5.198   7.970
19900WAT     H259943   1.995   5.127   7.831
19901WAT      O59944   3.482   2.797   7.469
19901WAT     H159945   3.408   2.854   7.506
19901WAT     H259946   3.449   2.703   7.458
19902WAT      O59947   9.359   6.121   5.266
19902WAT     H159948   9.341   6.185   5.191
19902WAT     H259949   9.311   6.035   5.248
19903WAT      O59950   1.481   1.883   2.198
19903WAT     H159951   1.509   1.871   2.103
19903WAT     H259952   1.557   1.859   2.258
19904WAT      O59953   9.197   9.654   2.336
19904WAT     H159954   9.155   9.738   2.371
19904WAT     H259955   9.291   9.647   2.368
19905WAT      O59956   8.668   7.473   0.263
19905WAT     H159957   8.681   7.567   0.232
19905WAT     H259958   8.578   7.440   0.235
19906WAT      O59959   4.591   8.183   7.214
19906WAT     H159960   4.502   8.160   7.255
19906WAT     H259961   4.604   8.129   7.131
19907WAT      O59962   2.293   5.092   8.094
19907WAT     H159963   2.338   5.055   8.013
19907WAT     H259964   2.361   5.113   8.164
19908WAT      O59965   4.218   2.888   3.841
19908WAT     H159966   4.163   2.822   3.891
19908WAT     H259967   4.312   2.886   3.874
19909WAT      O59968   4.417   2.928   3.533
19909WAT     H159969   4.396   2.970   3.445
19909WAT     H259970   4.454   2.998   3.594
19910WAT      O59971   9.658   3.816   3.045
19910WAT     H159972   9.619   3.831   2.954
19910WAT     H259973   9.622   3.731   3.083
19911WAT      O59974   9.001   3.196   5.633
19911WAT     H159975   9.041   3.235   5.715
19911WAT     H259976   8.968   3.270   5.574
19912WAT      O59977   0.289   2.148   3.517
19912WAT     H159978   0.332   2.071   3.564
19912WAT     H259979   0.327   2.234   3.552
19913WAT      O59980   5.464   5.774   1.164
19913WAT     H159981   5.443   5.858   1.114
19913WAT     H259982   5.485   5.701   1.098
19914WAT      O59983   7.307   7.244   8.942
19914WAT     H159984   7.373   7.171   8.926
19914WAT     H259985   7.230   7.209   8.995
19915WAT      O59986   5.326   0.394   3.866
19915WAT     H159987   5.367   0.485   3.858
19915WAT     H259988   5.252   0.385   3.800
19916WAT      O59989   0.452   4.361   4.042
19916WAT     H159990   0.454   4.276   4.094
19916WAT     H259991   0.492   4.346   3.952
19917WAT      O59992   5.303   4.257   1.953
19917WAT     H159993   5.270   4.351   1.962
19917WAT     H259994   5.285   4.224   1.860
19918WAT      O59995   0.718   0.631   1.849
19918WAT     H159996   0.666   0.657   1.931
19918WAT     H259997   0.798   0.578   1.875
19919WAT      O59998   2.968   9.654   4.827
19919WAT     H159999   3.052   9.629   4.779
19919WAT     H260000   2.989   9.721   4.898
19920WAT      O60001   5.211   1.135   4.325
19920WAT     H160002   5.256   1.071   4.262
19920WAT     H260003   5.246   1.119   4.418
19921WAT      O60004   3.746   9.005   6.099
19921WAT     H160005   3.678   9.068   6.062
19921WAT     H260006   3.830   9.056   6.121
19922WAT      O60007   5.948   5.890   2.443
19922WAT     H160008   5.956   5.964   2.377
19922WAT     H260009   6.038   5.851   2.461
19923WAT      O60010   3.592   0.368   3.442
19923WAT     H160011   3.654   0.444   3.424
19923WAT     H260012   3.619   0.322   3.526
19924WAT      O60013   5.251   0.348   9.840
19924WAT     H160014   5.168   0.388   9.801
19924WAT     H260015   5.332   0.388   9.798
19925WAT      O60016   9.549   2.764   1.401
19925WAT     H160017   9.638   2.728   1.372
19925WAT     H260018   9.554   2.789   1.498
19926WAT      O60019   7.195   3.316   8.516
19926WAT     H160020   7.219   3.380   8.589
19926WAT     H260021   7.139   3.363   8.448
19927WAT      O60022   6.221   2.708   8.904
19927WAT     H160023   6.143   2.672   8.852
19927WAT     H260024   6.225   2.664   8.993
19928WAT      O60025   9.838   5.144   6.862
19928WAT     H160026   9.776   5.217   6.891
19928WAT     H260027   9.821   5.123   6.766
19929WAT      O60028   1.101   7.650   6.608
19929WAT     H160029   1.191   7.621   6.640
19929WAT     H260030   1.040   7.663   6.686
19930WAT      O60031   8.929   5.444   0.740
19930WAT     H160032   9.021   5.481   0.730
19930WAT     H260033   8.933   5.344   0.738
19931WAT      O60034   5.627   3.064   0.877
19931WAT     H160035   5.637   2.965   0.884
19931WAT     H260036   5.531   3.089   0.889
19932WAT      O60037   9.538   4.775   7.086
19932WAT     H160038   9.625   4.778   7.037
19932WAT     H260039   9.511   4.867   7.114
19933WAT      O60040   1.862   5.138   7.307
19933WAT     H160041   1.790   5.190   7.259
19933WAT     H260042   1.819   5.075   7.371
19934WAT      O60043   7.931   5.578   4.019
19934WAT     H160044   7.926   5.505   3.951
19934WAT     H260045   7.867   5.651   3.994
19935WAT      O60046   8.419   7.742   3.159
19935WAT     H160047   8.465   7.662   3.196
19935WAT     H260048   8.486   7.810   3.130
19936WAT      O60049   7.213   3.302   7.803
19936WAT     H160050   7.284   3.256   7.750
19936WAT     H260051   7.153   3.353   7.741
19937WAT      O60052   7.018   9.785   6.437
19937WAT     H160053   7.059   9.856   6.378
19937WAT     H260054   7.010   9.821   6.530
19938WAT      O60055   8.500   9.580   7.973
19938WAT     H160056   8.439   9.659   7.981
19938WAT     H260057   8.454   9.498   8.008
19939WAT      O60058   9.239   9.709   9.532
19939WAT     H160059   9.260   9.657   9.615
19939WAT     H260060   9.296   9.791   9.528
19940WAT      O60061   3.575   3.418   5.311
19940WAT     H160062   3.548   3.473   5.391
19940WAT     H260063   3.644   3.352   5.338
19941WAT      O60064   6.621   7.314   1.718
19941WAT     H160065   6.636   7.399   1.667
19941WAT     H260066   6.703   7.257   1.713
19942WAT      O60067   0.195   2.852   7.398
19942WAT     H160068   0.200   2.862   7.497
19942WAT     H260069   0.285   2.872   7.358
19943WAT      O60070   1.662   4.583   8.614
19943WAT     H160071   1.563   4.596   8.612
19943WAT     H260072   1.682   4.487   8.636
19944WAT      O60073   4.332   8.645   5.750
19944WAT     H160074   4.239   8.681   5.740
19944WAT     H260075   4.385   8.707   5.809
19945WAT      O60076   5.758   0.852   1.302
19945WAT     H160077   5.717   0.774   1.351
19945WAT     H260078   5.727   0.937   1.345
19946WAT      O60079   4.589   5.273   8.442
19946WAT     H160080   4.509   5.331   8.428
19946WAT     H260081   4.640   5.306   8.522
19947WAT      O60082   6.779   3.909   8.051
19947WAT     H160083   6.865   3.873   8.015
19947WAT     H260084   6.713   3.835   8.060
19948WAT      O60085   2.701   2.774   3.656
19948WAT     H160086   2.775   2.840   3.666
19948WAT     H260087   2.614   2.823   3.648
19949WAT      O60088   2.935   1.436   8.660
19949WAT     H160089   2.922   1.364   8.592
19949WAT     H260090   3.019   1.418   8.711
19950WAT      O60091   7.605   2.383   6.824
19950WAT     H160092   7.532   2.413   6.886
19950WAT     H260093   7.564   2.338   6.744
19951WAT      O60094   6.205   5.261   3.130
19951WAT     H160095   6.221   5.186   3.067
19951WAT     H260096   6.149   5.229   3.207
19952WAT      O60097   5.345   4.456   6.355
19952WAT     H160098   5.317   4.493   6.444
19952WAT     H260099   5.444   4.451   6.351
19953WAT      O60100   5.476   5.951   2.264
19953WAT     H160101   5.454   6.036   2.312
19953WAT     H260102   5.440   5.874   2.316
19954WAT      O60103   4.187   6.830   0.529
19954WAT     H160104   4.138   6.910   0.564
19954WAT     H260105   4.160   6.749   0.580
19955WAT      O60106   0.975   5.689   7.449
19955WAT     H160107   0.918   5.607   7.452
19955WAT     H260108   0.917   5.769   7.438
19956WAT      O60109   0.637   2.204   6.666
19956WAT     H160110   0.710   2.159   6.717
19956WAT     H260111   0.626   2.298   6.699
19957WAT      O60112   2.458   5.193   7.473
19957WAT     H160113   2.498   5.284   7.484
19957WAT     H260114   2.427   5.182   7.379
19958WAT      O60115   0.882   1.840   4.397
19958WAT     H160116   0.791   1.875   4.375
19958WAT     H260117   0.898   1.848   4.496
19959WAT      O60118   8.070   0.852   5.975
19959WAT     H160119   8.111   0.792   5.907
19959WAT     H260120   7.977   0.877   5.947
19960WAT      O60121   0.508   7.707   2.433
19960WAT     H160122   0.586   7.729   2.491
19960WAT     H260123   0.540   7.692   2.339
19961WAT      O60124   9.352   8.930   1.311
19961WAT     H160125   9.262   8.941   1.353
19961WAT     H260126   9.418   8.902   1.381
19962WAT      O60127   3.170   3.234   4.250
19962WAT     H160128   3.241   3.296   4.283
19962WAT     H260129   3.185   3.216   4.153
19963WAT      O60130   9.472   0.871   1.810
19963WAT     H160131   9.503   0.833   1.723
19963WAT     H260132   9.401   0.812   1.849
19964WAT      O60133   9.484   7.091   6.238
19964WAT     H160134   9.403   7.063   6.288
19964WAT     H260135   9.463   7.172   6.183
19965WAT      O60136   2.290   2.640   7.479
19965WAT     H160137   2.259   2.550   7.510
19965WAT     H260138   2.214   2.688   7.436
19966WAT      O60139   1.572   5.695   5.994
19966WAT     H160140   1.507   5.700   6.071
19966WAT     H260141   1.572   5.602   5.957
19967WAT      O60142   5.584   2.364   4.714
19967WAT     H160143   5.588   2.293   4.784
19967WAT     H260144   5.660   2.428   4.726
19968WAT      O60145   8.789   7.174   4.622
19968WAT     H160146   8.857   7.229   4.670
19968WAT     H260147   8.791   7.196   4.525
19969WAT      O60148   4.983   9.172   3.341
19969WAT     H160149   4.941   9.230   3.271
19969WAT     H260150   4.971   9.214   3.431
19970WAT      O60151   5.391   9.232   5.917
19970WAT     H160152   5.318   9.273   5.862
19970WAT     H260153   5.476   9.230   5.864
19971WAT      O60154   8.089   4.519   5.517
19971WAT     H160155   8.053   4.466   5.440
19971WAT     H260156   8.186   4.499   5.529
19972WAT      O60157   4.800   1.105   2.353
19972WAT     H160158   4.722   1.060   2.396
19972WAT     H260159   4.871   1.037   2.333
19973WAT      O60160   6.645   7.652   7.205
19973WAT     H160161   6.548   7.658   7.180
19973WAT     H260162   6.683   7.566   7.172
19974WAT      O60163   7.801   2.246   2.093
19974WAT     H160164   7.775   2.314   2.162
19974WAT     H260165   7.880   2.279   2.041
19975WAT      O60166   5.391   3.051   3.825
19975WAT     H160167   5.457   3.045   3.750
19975WAT     H260168   5.342   2.964   3.833
19976WAT      O60169   2.812   4.834   9.325
19976WAT     H160170   2.865   4.779   9.261
19976WAT     H260171   2.720   4.849   9.288
19977WAT      O60172   9.577   8.017   2.499
19977WAT     H160173   9.629   7.999   2.416
19977WAT     H260174   9.481   8.034   2.475
19978WAT      O60175   8.767   5.483   5.957
19978WAT     H160176   8.778   5.578   5.989
19978WAT     H260177   8.852   5.433   5.973
19979WAT      O60178   6.286   1.448   4.210
19979WAT     H160179   6.300   1.534   4.161
19979WAT     H260180   6.259   1.377   4.146
19980WAT      O60181   9.291   9.229   4.920
19980WAT     H160182   9.214   9.200   4.863
19980WAT     H260183   9.307   9.161   4.992
19981WAT      O60184   4.143   4.199   2.524
19981WAT     H160185   4.229   4.233   2.486
19981WAT     H260186   4.066   4.229   2.468
19982WAT      O60187   2.127   6.102   6.016
19982WAT     H160188   2.063   6.070   5.946
19982WAT     H260189   2.174   6.184   5.982
19983WAT      O60190   0.302   9.286   4.518
19983WAT     H160191   0.321   9.338   4.435
19983WAT     H260192   0.385   9.275   4.571
19984WAT      O60193   6.138   1.915   9.554
19984WAT     H160194   6.076   1.990   9.532
19984WAT     H260195   6.180   1.930   9.643
19985WAT      O60196   5.963   1.442   0.331
19985WAT     H160197   6.021   1.507   0.281
19985WAT     H260198   5.912   1.491   0.402
19986WAT      O60199   7.922   0.665   7.896
19986WAT     H160200   7.852   0.642   7.828
19986WAT     H260201   8.010   0.626   7.869
19987WAT      O60202   5.417   4.476   9.206
19987WAT     H160203   5.420   4.527   9.120
19987WAT     H260204   5.352   4.400   9.198
19988WAT      O60205   4.506   2.255   3.350
19988WAT     H160206   4.552   2.311   3.419
19988WAT     H260207   4.567   2.242   3.272
19989WAT      O60208   0.905   3.154   8.912
19989WAT     H160209   0.835   3.092   8.949
19989WAT     H260210   0.906   3.146   8.812
19990WAT      O60211   2.093   1.368   3.416
19990WAT     H160212   2.080   1.333   3.324
19990WAT     H260213   2.181   1.335   3.452
19991WAT      O60214   2.392   9.633   1.845
19991WAT     H160215   2.301   9.667   1.868
19991WAT     H260216   2.450   9.709   1.815
19992WAT      O60217   7.867   1.989   7.029
19992WAT     H160218   7.801   2.028   6.965
19992WAT     H260219   7.907   2.062   7.085
19993WAT      O60220   1.079   5.321   8.119
19993WAT     H160221   1.089   5.412   8.079
19993WAT     H260222   1.149   5.260   8.081
19994WAT      O60223   6.520   0.589   0.293
19994WAT     H160224   6.521   0.688   0.280
19994WAT     H260225   6.535   0.543   0.206
19995WAT      O60226   3.276   2.757   3.958
19995WAT     H160227   3.301   2.821   3.885
19995WAT     H260228   3.280   2.664   3.923
19996WAT      O60229   5.814   4.594   5.411
19996WAT     H160230   5.727   4.605   5.458
19996WAT     H260231   5.878   4.664   5.442
19997WAT      O60232   3.053   6.462   6.566
19997WAT     H160233   2.969   6.415   6.593
19997WAT     H260234   3.122   6.395   6.540
19998WAT      O60235   7.788   8.588   3.485
19998WAT     H160236   7.762   8.496   3.457
19998WAT     H260237   7.821   8.639   3.406
19999WAT      O60238   4.498   0.844   9.779
19999WAT     H160239   4.455   0.757   9.803
19999WAT     H260240   4.597   0.837   9.791
20000WAT      O60241   8.582   3.593   1.054
20000WAT     H160242   8.483   3.591   1.068
20000WAT     H260243   8.625   3.646   1.127
20001WAT      O60244   5.548   1.813   6.005
20001WAT     H160245   5.565   1.769   5.917
20001WAT     H260246   5.631   1.862   6.034
20002WAT      O60247   7.223   8.846   1.292
20002WAT     H160248   7.286   8.845   1.369
20002WAT     H260249   7.159   8.769   1.300
20003WAT      O60250   2.797   6.844   2.860
20003WAT     H160251   2.848   6.847   2.946
20003WAT     H260252   2.703   6.873   2.876
20004WAT      O60253   0.492   7.179   8.615
20004WAT     H160254   0.470   7.082   8.627
20004WAT     H260255   0.490   7.201   8.517
20005WAT      O60256   0.670   5.417   5.551
20005WAT     H160257   0.741   5.363   5.595
20005WAT     H260258   0.696   5.514   5.551
20006WAT      O60259   6.879   9.246   7.356
20006WAT     H160260   6.894   9.324   7.418
20006WAT     H260261   6.782   9.243   7.330
20007WAT      O60262   5.429   6.571   7.323
20007WAT     H160263   5.407   6.506   7.251
20007WAT     H260264   5.516   6.616   7.302
20008WAT      O60265   0.470   4.149   8.872
20008WAT     H160266   0.426   4.206   8.802
20008WAT     H260267   0.568   4.141   8.851
20009WAT      O60268   7.994   5.409   8.728
20009WAT     H160269   7.908   5.452   8.756
20009WAT     H260270   7.994   5.313   8.755
20010WAT      O60271   8.133   8.958   9.481
20010WAT     H160272   8.061   8.954   9.411
20010WAT     H260273   8.124   9.042   9.534
20011WAT      O60274   8.539   5.615   5.406
20011WAT     H160275   8.479   5.647   5.333
20011WAT     H260276   8.627   5.586   5.368
20012WAT      O60277   0.642   6.323   0.280
20012WAT     H160278   0.626   6.247   0.343
20012WAT     H260279   0.571   6.392   0.294
20013WAT      O60280   6.326   5.179   8.828
20013WAT     H160281   6.305   5.095   8.879
20013WAT     H260282   6.274   5.255   8.867
20014WAT      O60283   1.678   5.746   4.239
20014WAT     H160284   1.720   5.661   4.206
20014WAT     H260285   1.742   5.794   4.299
20015WAT      O60286   4.164   3.936   9.045
20015WAT     H160287   4.082   3.965   9.095
20015WAT     H260288   4.137   3.887   8.962
20016WAT      O60289   0.790   4.720   6.529
20016WAT     H160290   0.814   4.805   6.482
20016WAT     H260291   0.796   4.733   6.628
20017WAT      O60292   1.060   8.773   7.583
20017WAT     H160293   1.149   8.779   7.629
20017WAT     H260294   1.068   8.807   7.490
20018WAT      O60295   8.465   2.980   1.964
20018WAT     H160296   8.418   3.016   2.044
20018WAT     H260297   8.522   2.902   1.991
20019WAT      O60298   7.214   3.625   8.945
20019WAT     H160299   7.123   3.653   8.977
20019WAT     H260300   7.209   3.599   8.849
20020WAT      O60301   6.606   9.456   4.159
20020WAT     H160302   6.540   9.462   4.084
20020WAT     H260303   6.682   9.518   4.141
20021WAT      O60304   4.030   7.237   9.850
20021WAT     H160305   4.118   7.275   9.821
20021WAT     H260306   4.044   7.179   9.930
20022WAT      O60307   2.082   4.062   9.440
20022WAT     H160308   2.172   4.105   9.428
20022WAT     H260309   2.094   3.972   9.482
20023WAT      O60310   7.881   9.825   4.174
20023WAT     H160311   7.949   9.879   4.224
20023WAT     H260312   7.905   9.728   4.179
20024WAT      O60313   1.691   0.558   7.267
20024WAT     H160314   1.602   0.541   7.310
20024WAT     H260315   1.677   0.603   7.179
20025WAT      O60316   5.943   7.389   4.728
20025WAT     H160317   5.916   7.326   4.800
20025WAT     H260318   5.866   7.447   4.703
20026WAT      O60319   3.412   2.778   9.142
20026WAT     H160320   3.451   2.858   9.190
20026WAT     H260321   3.382   2.711   9.209
20027WAT      O60322   0.285   9.650   4.759
20027WAT     H160323   0.331   9.687   4.840
20027WAT     H260324   0.226   9.720   4.719
20028WAT      O60325   6.230   2.889   1.459
20028WAT     H160326   6.297   2.867   1.388
20028WAT     H260327   6.179   2.970   1.432
20029WAT      O60328   1.721   6.368   1.511
20029WAT     H160329   1.737   6.302   1.438
20029WAT     H260330   1.711   6.459   1.472
20030WAT      O60331   7.770   1.199   1.627
20030WAT     H160332   7.735   1.269   1.689
20030WAT     H260333   7.694   1.156   1.579
20031WAT      O60334   1.740   8.526   3.075
20031WAT     H160335   1.817   8.588   3.058
20031WAT     H260336   1.702   8.544   3.165
20032WAT      O60337   0.679   5.305   9.477
20032WAT     H160338   0.770   5.275   9.505
20032WAT     H260339   0.610   5.266   9.539
20033WAT      O60340   4.744   7.825   1.523
20033WAT     H160341   4.741   7.924   1.532
20033WAT     H260342   4.661   7.793   1.479
20034WAT      O60343   2.983   2.603   4.825
20034WAT     H160344   3.013   2.681   4.879
20034WAT     H260345   2.990   2.625   4.727
20035WAT      O60346   2.586   9.307   3.206
20035WAT     H160347   2.653   9.364   3.252
20035WAT     H260348   2.600   9.311   3.107
20036WAT      O60349   9.539   1.668   6.620
20036WAT     H160350   9.638   1.667   6.636
20036WAT     H260351   9.520   1.649   6.524
20037WAT      O60352   3.880   7.800   4.999
20037WAT     H160353   3.896   7.805   4.901
20037WAT     H260354   3.809   7.732   5.018
20038WAT      O60355   3.868   6.664   9.611
20038WAT     H160356   3.873   6.707   9.521
20038WAT     H260357   3.865   6.564   9.600
20039WAT      O60358   8.882   2.266   2.048
20039WAT     H160359   8.965   2.286   1.996
20039WAT     H260360   8.907   2.240   2.142
20040WAT      O60361   8.433   0.736   3.233
20040WAT     H160362   8.366   0.770   3.299
20040WAT     H260363   8.411   0.642   3.207
20041WAT      O60364   0.637   1.053   6.935
20041WAT     H160365   0.606   1.145   6.960
20041WAT     H260366   0.560   0.989   6.943
20042WAT      O60367   1.165   1.942   0.435
20042WAT     H160368   1.099   2.017   0.443
20042WAT     H260369   1.237   1.954   0.503
20043WAT      O60370   0.591   0.507   6.768
20043WAT     H160371   0.543   0.502   6.856
20043WAT     H260372   0.551   0.580   6.713
20044WAT      O60373   6.618   4.485   3.652
20044WAT     H160374   6.522   4.466   3.631
20044WAT     H260375   6.670   4.400   3.651
20045WAT      O60376   0.543   9.698   4.563
20045WAT     H160377   0.453   9.655   4.557
20045WAT     H260378   0.603   9.659   4.493
20046WAT      O60379   2.143   2.421   4.207
20046WAT     H160380   2.190   2.507   4.221
20046WAT     H260381   2.205   2.355   4.164
20047WAT      O60382   5.096   0.758   4.961
20047WAT     H160383   5.011   0.810   4.963
20047WAT     H260384   5.155   0.787   5.037
20048WAT      O60385   7.591   9.549   8.964
20048WAT     H160386   7.684   9.583   8.975
20048WAT     H260387   7.588   9.481   8.891
20049WAT      O60388   7.729   1.647   3.444
20049WAT     H160389   7.686   1.667   3.533
20049WAT     H260390   7.773   1.730   3.409
20050WAT      O60391   8.802   1.077   7.979
20050WAT     H160392   8.893   1.036   7.986
20050WAT     H260393   8.804   1.169   8.018
20051WAT      O60394   7.818   7.868   0.727
20051WAT     H160395   7.878   7.946   0.748
20051WAT     H260396   7.722   7.896   0.738
20052WAT      O60397   0.053   4.299   1.395
20052WAT     H160398   0.020   4.293   1.489
20052WAT     H260399  -0.020   4.331   1.336
20053WAT      O60400   5.851   6.238   3.531
20053WAT     H160401   5.818   6.170   3.595
20053WAT     H260402   5.896   6.193   3.454
20054WAT      O60403   7.844   4.210   7.500
20054WAT     H160404   7.825   4.144   7.573
20054WAT     H260405   7.823   4.169   7.412
20055WAT      O60406   0.218   0.643   3.702
20055WAT     H160407   0.169   0.714   3.653
20055WAT     H260408   0.292   0.685   3.756
20056WAT      O60409   6.216   5.947   2.761
20056WAT     H160410   6.237   5.873   2.825
20056WAT     H260411   6.214   5.911   2.668
20057WAT      O60412   0.170   5.444   5.140
20057WAT     H160413   0.079   5.482   5.120
20057WAT     H260414   0.160   5.359   5.191
20058WAT      O60415   3.093   7.119   2.769
20058WAT     H160416   3.030   7.112   2.691
20058WAT     H260417   3.157   7.194   2.754
20059WAT      O60418   3.286   5.251   5.962
20059WAT     H160419   3.299   5.177   6.027
20059WAT     H260420   3.249   5.331   6.009
20060WAT      O60421   6.404   7.836   1.769
20060WAT     H160422   6.374   7.803   1.858
20060WAT     H260423   6.349   7.793   1.697
20061WAT      O60424   9.682   6.632   5.574
20061WAT     H160425   9.623   6.553   5.588
20061WAT     H260426   9.731   6.653   5.658
20062WAT      O60427   4.297   4.914   7.492
20062WAT     H160428   4.310   4.825   7.450
20062WAT     H260429   4.215   4.957   7.455
20063WAT      O60430   8.448   7.332   6.052
20063WAT     H160431   8.353   7.358   6.071
20063WAT     H260432   8.495   7.312   6.138
20064WAT      O60433   7.106   4.931   6.870
20064WAT     H160434   7.084   4.834   6.875
20064WAT     H260435   7.158   4.949   6.786
20065WAT      O60436   9.492   3.036   0.450
20065WAT     H160437   9.465   3.052   0.545
20065WAT     H260438   9.591   3.048   0.441
20066WAT      O60439   3.267   1.134   9.666
20066WAT     H160440   3.215   1.118   9.750
20066WAT     H260441   3.293   1.230   9.660
20067WAT      O60442   7.363   1.021   1.291
20067WAT     H160443   7.392   0.982   1.204
20067WAT     H260444   7.270   0.991   1.312
20068WAT      O60445   9.069   3.300   3.796
20068WAT     H160446   9.137   3.340   3.857
20068WAT     H260447   9.088   3.329   3.702
20069WAT      O60448   7.420   7.513   7.613
20069WAT     H160449   7.387   7.448   7.544
20069WAT     H260450   7.504   7.478   7.654
20070WAT      O60451   8.714   6.403   5.495
20070WAT     H160452   8.699   6.321   5.439
20070WAT     H260453   8.642   6.410   5.563
20071WAT      O60454   9.306   7.702   6.969
20071WAT     H160455   9.337   7.722   6.876
20071WAT     H260456   9.341   7.614   6.999
20072WAT      O60457   0.117   7.578   9.221
20072WAT     H160458   0.096   7.660   9.168
20072WAT     H260459   0.213   7.553   9.207
20073WAT      O60460   3.450   8.845   0.388
20073WAT     H160461   3.429   8.895   0.304
20073WAT     H260462   3.394   8.763   0.393
20074WAT      O60463   5.468   4.709   5.948
20074WAT     H160464   5.383   4.678   5.989
20074WAT     H260465   5.474   4.809   5.955
20075WAT      O60466   4.496   0.924   3.657
20075WAT     H160467   4.432   0.916   3.580
20075WAT     H260468   4.587   0.896   3.629
20076WAT      O60469   1.869   7.471   9.614
20076WAT     H160470   1.847   7.514   9.702
20076WAT     H260471   1.909   7.540   9.553
20077WAT      O60472   7.093   8.446   2.193
20077WAT     H160473   7.126   8.541   2.199
20077WAT     H260474   7.151   8.387   2.248
20078WAT      O60475   0.383   3.699   8.129
20078WAT     H160476   0.369   3.712   8.227
20078WAT     H260477   0.468   3.649   8.113
20079WAT      O60478   4.480   7.999   5.302
20079WAT     H160479   4.492   8.050   5.387
20079WAT     H260480   4.514   7.906   5.313
20080WAT      O60481   2.029   3.571   0.739
20080WAT     H160482   1.946   3.551   0.792
20080WAT     H260483   2.062   3.486   0.697
20081WAT      O60484   2.118   4.098   3.206
20081WAT     H160485   2.186   4.155   3.252
20081WAT     H260486   2.163   4.019   3.165
20082WAT      O60487   4.266   0.178   7.268
20082WAT     H160488   4.170   0.153   7.267
20082WAT     H260489   4.311   0.135   7.346
20083WAT      O60490   2.767   3.101   5.892
20083WAT     H160491   2.759   3.200   5.905
20083WAT     H260492   2.681   3.057   5.917
20084WAT      O60493   7.017   0.233   9.005
20084WAT     H160494   7.021   0.160   9.072
20084WAT     H260495   6.974   0.200   8.921
20085WAT      O60496   2.520   9.510   8.027
20085WAT     H160497   2.422   9.494   8.019
20085WAT     H260498   2.558   9.453   8.101
20086WAT      O60499   0.312   4.724   5.769
20086WAT     H160500   0.314   4.793   5.841
20086WAT     H260501   0.303   4.768   5.680
20087WAT      O60502   6.241   4.460   1.622
20087WAT     H160503   6.314   4.518   1.589
20087WAT     H260504   6.162   4.466   1.561
20088WAT      O60505   3.345   8.708   6.144
20088WAT     H160506   3.268   8.772   6.143
20088WAT     H260507   3.389   8.710   6.234
20089WAT      O60508   3.634   5.800   6.835
20089WAT     H160509   3.628   5.783   6.933
20089WAT     H260510   3.683   5.725   6.791
20090WAT      O60511   2.328   7.787   9.411
20090WAT     H160512   2.300   7.753   9.501
20090WAT     H260513   2.428   7.786   9.405
20091WAT      O60514   2.668   0.672   4.606
20091WAT     H160515   2.636   0.633   4.692
20091WAT     H260516   2.599   0.658   4.535
20092WAT      O60517   2.275   1.575   8.043
20092WAT     H160518   2.360   1.620   8.070
20092WAT     H260519   2.272   1.482   8.080
20093WAT      O60520   7.405   1.513   2.900
20093WAT     H160521   7.450   1.428   2.928
20093WAT     H260522   7.443   1.543   2.813
20094WAT      O60523   5.200   1.751   8.753
20094WAT     H160524   5.187   1.825   8.820
20094WAT     H260525   5.129   1.681   8.767
20095WAT      O60526   2.735   7.953   0.232
20095WAT     H160527   2.708   7.874   0.287
20095WAT     H260528   2.667   7.970   0.161
20096WAT      O60529   8.462   9.174   9.425
20096WAT     H160530   8.559   9.161   9.444
20096WAT     H260531   8.413   9.189   9.511
20097WAT      O60532   0.157   6.975   0.421
20097WAT     H160533   0.153   6.884   0.462
20097WAT     H260534   0.101   7.038   0.476
20098WAT      O60535   2.956   1.830   7.658
20098WAT     H160536   3.043   1.845   7.705
20098WAT     H260537   2.922   1.918   7.624
20099WAT      O60538   3.066   5.762   1.621
20099WAT     H160539   3.053   5.770   1.720
20099WAT     H260540   3.154   5.719   1.603
20100WAT      O60541   3.118   8.573   1.767
20100WAT     H160542   3.093   8.522   1.684
20100WAT     H260543   3.209   8.614   1.755
20101WAT      O60544   2.589   0.207   9.148
20101WAT     H160545   2.631   0.209   9.239
20101WAT     H260546   2.537   0.292   9.135
20102WAT      O60547   5.645   0.420   8.160
20102WAT     H160548   5.600   0.367   8.232
20102WAT     H260549   5.658   0.514   8.192
20103WAT      O60550   0.208   0.414   8.958
20103WAT     H160551   0.192   0.319   8.985
20103WAT     H260552   0.172   0.475   9.029
20104WAT      O60553   1.681   2.452   3.220
20104WAT     H160554   1.750   2.507   3.266
20104WAT     H260555   1.601   2.509   3.199
20105WAT      O60556   3.907   9.660   8.146
20105WAT     H160557   3.832   9.594   8.137
20105WAT     H260558   3.925   9.703   8.058
20106WAT      O60559   5.625   8.717   6.069
20106WAT     H160560   5.546   8.678   6.116
20106WAT     H260561   5.595   8.763   5.985
20107WAT      O60562   4.049   1.576   3.689
20107WAT     H160563   4.015   1.493   3.733
20107WAT     H260564   4.142   1.595   3.719
20108WAT      O60565   4.576   1.112   1.788
20108WAT     H160566   4.578   1.016   1.759
20108WAT     H260567   4.634   1.124   1.869
20109WAT      O60568   1.569   6.714   9.764
20109WAT     H160569   1.633   6.748   9.695
20109WAT     H260570   1.603   6.737   9.855
20110WAT      O60571   2.304   4.131   5.565
20110WAT     H160572   2.223   4.169   5.520
20110WAT     H260573   2.289   4.130   5.664
20111WAT      O60574   3.861   9.716   0.672
20111WAT     H160575   3.945   9.770   0.678
20111WAT     H260576   3.870   9.649   0.599
20112WAT      O60577   9.511   9.446   9.571
20112WAT     H160578   9.486   9.410   9.481
20112WAT     H260579   9.430   9.482   9.617
20113WAT      O60580   6.161   0.544   4.468
20113WAT     H160581   6.199   0.496   4.389
20113WAT     H260582   6.208   0.514   4.551
20114WAT      O60583   9.643   4.411   1.672
20114WAT     H160584   9.647   4.470   1.592
20114WAT     H260585   9.716   4.343   1.668
20115WAT      O60586   3.883   1.344   7.707
20115WAT     H160587   3.959   1.310   7.653
20115WAT     H260588   3.813   1.383   7.647
20116WAT      O60589   9.341   1.734   8.634
20116WAT     H160590   9.281   1.655   8.640
20116WAT     H260591   9.379   1.741   8.542
20117WAT      O60592   5.936   7.992   7.936
20117WAT     H160593   5.966   8.037   8.020
20117WAT     H260594   5.864   7.925   7.958
20118WAT      O60595   9.789   7.084   7.739
20118WAT     H160596   9.881   7.106   7.705
20118WAT     H260597   9.745   7.020   7.676
20119WAT      O60598   5.570   7.118   8.770
20119WAT     H160599   5.511   7.190   8.805
20119WAT     H260600   5.577   7.125   8.671
20120WAT      O60601   9.278   9.051   6.200
20120WAT     H160602   9.348   9.059   6.271
20120WAT     H260603   9.206   9.118   6.216
20121WAT      O60604   7.171   0.771   9.825
20121WAT     H160605   7.101   0.815   9.769
20121WAT     H260606   7.193   0.829   9.903
20122WAT      O60607   1.563   4.258   4.909
20122WAT     H160608   1.593   4.258   5.005
20122WAT     H260609   1.643   4.259   4.849
20123WAT      O60610   6.525   2.558   2.609
20123WAT     H160611   6.489   2.477   2.657
20123WAT     H260612   6.451   2.601   2.557
20124WAT      O60613   3.051   0.004   1.420
20124WAT     H160614   2.984   0.026   1.350
20124WAT     H260615   3.003  -0.023   1.504
20125WAT      O60616   5.955   1.872   0.726
20125WAT     H160617   5.860   1.841   0.715
20125WAT     H260618   5.992   1.836   0.812
20126WAT      O60619   0.815  -0.002   5.030
20126WAT     H160620   0.769   0.079   5.064
20126WAT     H260621   0.817  -0.001   4.930
20127WAT      O60622   7.346   3.310   6.591
20127WAT     H160623   7.318   3.405   6.581
20127WAT     H260624   7.276   3.259   6.642
20128WAT      O60625   0.813   1.725   5.468
20128WAT     H160626   0.821   1.812   5.420
20128WAT     H260627   0.884   1.662   5.434
20129WAT      O60628   8.827   5.176   8.908
20129WAT     H160629   8.922   5.179   8.877
20129WAT     H260630   8.769   5.227   8.845
20130WAT      O60631   2.662   0.596   2.659
20130WAT     H160632   2.676   0.605   2.757
20130WAT     H260633   2.607   0.673   2.626
20131WAT      O60634   6.063   7.329   8.185
20131WAT     H160635   6.071   7.382   8.270
20131WAT     H260636   6.145   7.340   8.130
20132WAT      O60637   8.101   3.482   5.949
20132WAT     H160638   8.101   3.581   5.935
20132WAT     H260639   8.196   3.449   5.950
20133WAT      O60640   4.736   4.401   3.597
20133WAT     H160641   4.674   4.460   3.648
20133WAT     H260642   4.694   4.311   3.586
20134WAT      O60643   9.503   6.472   5.227
20134WAT     H160644   9.599   6.446   5.233
20134WAT     H260645   9.480   6.491   5.131
20135WAT      O60646   8.977   8.677   2.403
20135WAT     H160647   8.895   8.724   2.370
20135WAT     H260648   9.028   8.640   2.326
20136WAT      O60649   8.730   4.248   6.404
20136WAT     H160650   8.673   4.325   6.433
20136WAT     H260651   8.757   4.195   6.484
20137WAT      O60652   2.520   4.051   6.152
20137WAT     H160653   2.552   3.963   6.117
20137WAT     H260654   2.506   4.115   6.076
20138WAT      O60655   4.442   3.574   5.250
20138WAT     H160656   4.348   3.559   5.218
20138WAT     H260657   4.480   3.654   5.203
20139WAT      O60658   9.792   4.142   5.384
20139WAT     H160659   9.760   4.112   5.473
20139WAT     H260660   9.793   4.064   5.321
20140WAT      O60661   4.690   8.283   6.819
20140WAT     H160662   4.640   8.370   6.815
20140WAT     H260663   4.636   8.216   6.869
20141WAT      O60664   0.904   9.429   2.719
20141WAT     H160665   0.987   9.394   2.763
20141WAT     H260666   0.828   9.423   2.783
20142WAT      O60667   9.539   4.415   3.250
20142WAT     H160668   9.571   4.405   3.344
20142WAT     H260669   9.442   4.441   3.251
20143WAT      O60670   3.900   6.700   3.729
20143WAT     H160671   3.921   6.626   3.666
20143WAT     H260672   3.937   6.786   3.693
20144WAT      O60673   9.562   7.375   1.076
20144WAT     H160674   9.542   7.394   0.980
20144WAT     H260675   9.486   7.406   1.133
20145WAT      O60676   4.837   2.511   5.383
20145WAT     H160677   4.836   2.413   5.399
20145WAT     H260678   4.783   2.558   5.453
20146WAT      O60679   2.370   0.484   9.769
20146WAT     H160680   2.360   0.575   9.727
20146WAT     H260681   2.308   0.420   9.723
20147WAT      O60682   8.410   6.458   6.721
20147WAT     H160683   8.376   6.465   6.815
20147WAT     H260684   8.451   6.368   6.707
20148WAT      O60685   4.565   5.533   5.040
20148WAT     H160686   4.498   5.601   5.009
20148WAT     H260687   4.532   5.490   5.124
20149WAT      O60688   8.754   4.157   1.523
20149WAT     H160689   8.684   4.226   1.508
20149WAT     H260690   8.788   4.163   1.617
20150WAT      O60691   4.048   7.400   8.851
20150WAT     H160692   4.063   7.458   8.772
20150WAT     H260693   3.999   7.451   8.922
20151WAT      O60694   8.800   7.534   2.737
20151WAT     H160695   8.817   7.466   2.808
20151WAT     H260696   8.880   7.540   2.676
20152WAT      O60697   0.500   6.328   7.659
20152WAT     H160698   0.510   6.351   7.563
20152WAT     H260699   0.446   6.244   7.668
20153WAT      O60700   1.992   4.842   8.434
20153WAT     H160701   1.902   4.815   8.398
20153WAT     H260702   1.998   4.941   8.439
20154WAT      O60703   8.233   0.429   8.124
20154WAT     H160704   8.330   0.428   8.098
20154WAT     H260705   8.219   0.363   8.199
20155WAT      O60706   4.080   0.453   3.837
20155WAT     H160707   4.176   0.483   3.837
20155WAT     H260708   4.075   0.358   3.806
20156WAT      O60709   6.792   4.470   3.293
20156WAT     H160710   6.821   4.448   3.386
20156WAT     H260711   6.832   4.558   3.266
20157WAT      O60712   7.656   0.681   3.116
20157WAT     H160713   7.646   0.766   3.169
20157WAT     H260714   7.709   0.615   3.169
20158WAT      O60715   0.572   1.148   0.585
20158WAT     H160716   0.550   1.194   0.672
20158WAT     H260717   0.494   1.155   0.523
20159WAT      O60718   2.224   0.187   0.170
20159WAT     H160719   2.222   0.177   0.270
20159WAT     H260720   2.317   0.173   0.137
20160WAT      O60721   3.514   3.931   4.259
20160WAT     H160722   3.479   4.007   4.204
20160WAT     H260723   3.603   3.956   4.296
20161WAT      O60724   5.432   3.247   7.705
20161WAT     H160725   5.508   3.195   7.744
20161WAT     H260726   5.382   3.188   7.641
20162WAT      O60727   0.274   9.300   4.971
20162WAT     H160728   0.261   9.307   4.872
20162WAT     H260729   0.191   9.262   5.012
20163WAT      O60730   3.397   7.999   2.007
20163WAT     H160731   3.342   7.929   1.961
20163WAT     H260732   3.363   8.090   1.981
20164WAT      O60733   5.397   9.525   0.221
20164WAT     H160734   5.316   9.554   0.272
20164WAT     H260735   5.423   9.433   0.249
20165WAT      O60736   9.249   3.428   3.075
20165WAT     H160737   9.266   3.489   3.153
20165WAT     H260738   9.287   3.338   3.094
20166WAT      O60739   1.425   4.134   4.555
20166WAT     H160740   1.386   4.119   4.646
20166WAT     H260741   1.380   4.212   4.512
20167WAT      O60742   0.321   2.890   3.720
20167WAT     H160743   0.329   2.910   3.818
20167WAT     H260744   0.291   2.972   3.672
20168WAT      O60745   4.166   8.026   9.127
20168WAT     H160746   4.204   8.049   9.037
20168WAT     H260747   4.210   8.081   9.197
20169WAT      O60748   2.659   5.315   2.117
20169WAT     H160749   2.624   5.409   2.117
20169WAT     H260750   2.631   5.268   2.201
20170WAT      O60751   0.526   7.506   0.425
20170WAT     H160752   0.514   7.594   0.471
20170WAT     H260753   0.578   7.520   0.340
20171WAT      O60754   9.412   4.218   1.641
20171WAT     H160755   9.437   4.287   1.573
20171WAT     H260756   9.495   4.170   1.670
20172WAT      O60757   1.775   1.145   2.123
20172WAT     H160758   1.843   1.135   2.049
20172WAT     H260759   1.738   1.237   2.122
20173WAT      O60760   4.886   7.879   7.428
20173WAT     H160761   4.821   7.830   7.486
20173WAT     H260762   4.977   7.873   7.467
20174WAT      O60763   7.770   6.903   6.892
20174WAT     H160764   7.832   6.945   6.826
20174WAT     H260765   7.758   6.806   6.871
20175WAT      O60766   7.552   9.362   6.482
20175WAT     H160767   7.581   9.396   6.393
20175WAT     H260768   7.554   9.437   6.548
20176WAT      O60769   7.476   8.015   1.620
20176WAT     H160770   7.462   8.095   1.562
20176WAT     H260771   7.525   7.944   1.568
20177WAT      O60772   6.753   2.309   0.147
20177WAT     H160773   6.799   2.367   0.214
20177WAT     H260774   6.672   2.356   0.112
20178WAT      O60775   0.513   2.670   4.054
20178WAT     H160776   0.456   2.606   4.003
20178WAT     H260777   0.471   2.689   4.143
20179WAT      O60778   8.865   5.282   4.311
20179WAT     H160779   8.909   5.354   4.365
20179WAT     H260780   8.932   5.211   4.289
20180WAT      O60781   1.567   7.413   3.112
20180WAT     H160782   1.640   7.469   3.073
20180WAT     H260783   1.550   7.335   3.053
20181WAT      O60784   2.722   7.168   9.407
20181WAT     H160785   2.794   7.098   9.412
20181WAT     H260786   2.736   7.234   9.480
20182WAT      O60787   4.239   2.558   3.927
20182WAT     H160788   4.210   2.566   3.832
20182WAT     H260789   4.201   2.634   3.980
20183WAT      O60790   8.275   5.178   0.839
20183WAT     H160791   8.248   5.197   0.934
20183WAT     H260792   8.245   5.085   0.815
20184WAT      O60793   7.060   5.052   1.443
20184WAT     H160794   6.991   5.124   1.448
20184WAT     H260795   7.023   4.973   1.395
20185WAT      O60796   6.406   8.560   7.020
20185WAT     H160797   6.433   8.554   6.924
20185WAT     H260798   6.387   8.656   7.042
20186WAT      O60799   3.872   5.975   5.911
20186WAT     H160800   3.926   5.929   5.840
20186WAT     H260801   3.778   5.941   5.908
20187WAT      O60802   1.462   9.809   1.710
20187WAT     H160803   1.533   9.868   1.748
20187WAT     H260804   1.422   9.754   1.783
20188WAT      O60805   3.562   3.312   6.743
20188WAT     H160806   3.470   3.304   6.780
20188WAT     H260807   3.607   3.222   6.746
20189WAT      O60808   0.602   4.168   9.832
20189WAT     H160809   0.651   4.224   9.764
20189WAT     H260810   0.522   4.127   9.789
20190WAT      O60811   6.624   3.679   2.977
20190WAT     H160812   6.618   3.776   2.998
20190WAT     H260813   6.648   3.667   2.880
20191WAT      O60814   0.706   5.780   7.986
20191WAT     H160815   0.667   5.690   8.006
20191WAT     H260816   0.677   5.809   7.895
20192WAT      O60817   0.337   8.100   7.029
20192WAT     H160818   0.374   8.008   7.043
20192WAT     H260819   0.400   8.168   7.066
20193WAT      O60820   2.358   4.907   1.708
20193WAT     H160821   2.333   4.811   1.715
20193WAT     H260822   2.283   4.964   1.742
20194WAT      O60823   1.865   6.860   4.701
20194WAT     H160824   1.949   6.880   4.651
20194WAT     H260825   1.791   6.844   4.635
20195WAT      O60826   2.876   7.657   7.612
20195WAT     H160827   2.792   7.645   7.560
20195WAT     H260828   2.888   7.754   7.635
20196WAT      O60829   3.309   4.980   4.247
20196WAT     H160830   3.289   4.892   4.207
20196WAT     H260831   3.406   4.984   4.272
20197WAT      O60832   4.799   5.796   8.866
20197WAT     H160833   4.850   5.881   8.862
20197WAT     H260834   4.717   5.809   8.922
20198WAT      O60835   4.430   9.529   2.831
20198WAT     H160836   4.335   9.520   2.802
20198WAT     H260837   4.466   9.440   2.858
20199WAT      O60838   9.609   6.863   8.845
20199WAT     H160839   9.545   6.906   8.909
20199WAT     H260840   9.559   6.801   8.785
20200WAT      O60841   5.864   0.526   2.788
20200WAT     H160842   5.925   0.494   2.715
20200WAT     H260843   5.772   0.537   2.751
20201WAT      O60844   3.993   2.707   3.213
20201WAT     H160845   3.962   2.763   3.137
20201WAT     H260846   4.018   2.766   3.290
20202WAT      O60847   2.749   2.414   7.099
20202WAT     H160848   2.745   2.317   7.123
20202WAT     H260849   2.843   2.446   7.106
20203WAT      O60850   9.739   5.748   4.915
20203WAT     H160851   9.657   5.793   4.881
20203WAT     H260852   9.797   5.722   4.837
20204WAT      O60853   3.022   5.307   9.232
20204WAT     H160854   2.939   5.360   9.214
20204WAT     H260855   3.027   5.284   9.329
20205WAT      O60856   1.388   1.619   4.210
20205WAT     H160857   1.303   1.632   4.260
20205WAT     H260858   1.453   1.690   4.236
20206WAT      O60859   4.181   1.202   5.406
20206WAT     H160860   4.157   1.153   5.322
20206WAT     H260861   4.102   1.204   5.467
20207WAT      O60862   3.444   6.004   8.117
20207WAT     H160863   3.530   5.983   8.070
20207WAT     H260864   3.460   6.073   8.187
20208WAT      O60865   3.574   3.536   6.349
20208WAT     H160866   3.534   3.476   6.419
20208WAT     H260867   3.511   3.545   6.272
20209WAT      O60868   8.194   0.282   1.730
20209WAT     H160869   8.157   0.230   1.653
20209WAT     H260870   8.119   0.315   1.787
20210WAT      O60871   7.986   7.093   2.907
20210WAT     H160872   8.024   7.046   2.986
20210WAT     H260873   7.954   7.184   2.935
20211WAT      O60874   8.855   3.226   7.504
20211WAT     H160875   8.767   3.204   7.463
20211WAT     H260876   8.906   3.142   7.521
20212WAT      O60877   7.127   8.926   8.966
20212WAT     H160878   7.198   8.911   9.035
20212WAT     H260879   7.072   8.843   8.956
20213WAT      O60880   2.077   4.276   1.895
20213WAT     H160881   2.030   4.219   1.828
20213WAT     H260882   2.062   4.372   1.874
20214WAT      O60883   1.579   2.720   3.402
20214WAT     H160884   1.512   2.677   3.462
20214WAT     H260885   1.560   2.694   3.307
20215WAT      O60886   6.017   1.874   5.235
20215WAT     H160887   6.052   1.901   5.145
20215WAT     H260888   5.956   1.795   5.224
20216WAT      O60889   7.005   9.441   2.163
20216WAT     H160890   6.945   9.393   2.099
20216WAT     H260891   7.001   9.540   2.144
20217WAT      O60892   3.778   6.819   1.988
20217WAT     H160893   3.751   6.723   1.995
20217WAT     H260894   3.875   6.826   1.967
20218WAT      O60895   8.519   5.456   6.064
20218WAT     H160896   8.509   5.515   6.145
20218WAT     H260897   8.615   5.455   6.036
20219WAT      O60898   4.800   1.814   6.128
20219WAT     H160899   4.783   1.749   6.202
20219WAT     H260900   4.753   1.783   6.045
20220WAT      O60901   3.673   7.080   6.688
20220WAT     H160902   3.584   7.126   6.691
20220WAT     H260903   3.745   7.146   6.708
20221WAT      O60904   7.230   4.815   7.640
20221WAT     H160905   7.244   4.869   7.723
20221WAT     H260906   7.186   4.872   7.570
20222WAT      O60907   4.484   5.737   5.809
20222WAT     H160908   4.567   5.792   5.816
20222WAT     H260909   4.493   5.656   5.867
20223WAT      O60910   4.213   2.633   3.085
20223WAT     H160911   4.231   2.537   3.107
20223WAT     H260912   4.120   2.657   3.114
20224WAT      O60913   2.348   8.858   8.597
20224WAT     H160914   2.405   8.784   8.561
20224WAT     H260915   2.326   8.922   8.523
20225WAT      O60916   2.687   8.691   7.730
20225WAT     H160917   2.683   8.725   7.636
20225WAT     H260918   2.782   8.685   7.760
20226WAT      O60919   1.091   3.913   3.228
20226WAT     H160920   1.166   3.847   3.226
20226WAT     H260921   1.106   3.978   3.303
20227WAT      O60922   7.729   7.353   8.449
20227WAT     H160923   7.734   7.375   8.547
20227WAT     H260924   7.808   7.393   8.402
20228WAT      O60925   0.564   7.369   6.060
20228WAT     H160926   0.512   7.311   6.123
20228WAT     H260927   0.536   7.350   5.966
20229WAT      O60928   0.349   1.502   0.380
20229WAT     H160929   0.256   1.497   0.345
20229WAT     H260930   0.407   1.551   0.316
20230WAT      O60931   6.781   0.840   0.091
20230WAT     H160932   6.817   0.918   0.040
20230WAT     H260933   6.705   0.869   0.148
20231WAT      O60934   7.658   8.649   1.779
20231WAT     H160935   7.617   8.588   1.711
20231WAT     H260936   7.604   8.733   1.785
20232WAT      O60937   7.726   6.332   3.578
20232WAT     H160938   7.774   6.311   3.663
20232WAT     H260939   7.756   6.268   3.506
20233WAT      O60940   4.570   9.766   7.455
20233WAT     H160941   4.515   9.714   7.521
20233WAT     H260942   4.665   9.733   7.457
20234WAT      O60943   5.528   0.764   0.370
20234WAT     H160944   5.504   0.858   0.345
20234WAT     H260945   5.493   0.702   0.300
20235WAT      O60946   4.968   4.070   2.879
20235WAT     H160947   4.903   4.147   2.881
20235WAT     H260948   5.061   4.106   2.882
20236WAT      O60949   5.033   7.270   3.102
20236WAT     H160950   5.006   7.177   3.075
20236WAT     H260951   5.063   7.270   3.197
20237WAT      O60952   1.478   6.484   0.129
20237WAT     H160953   1.535   6.522   0.203
20237WAT     H260954   1.405   6.550   0.107
20238WAT      O60955   3.917   6.045   5.439
20238WAT     H160956   3.912   5.946   5.426
20238WAT     H260957   4.004   6.078   5.402
20239WAT      O60958   2.115   3.222   3.730
20239WAT     H160959   2.031   3.188   3.687
20239WAT     H260960   2.163   3.146   3.773
20240WAT      O60961   6.274   7.911   0.425
20240WAT     H160962   6.330   7.902   0.507
20240WAT     H260963   6.256   8.008   0.408
20241WAT      O60964   7.089   8.408   8.759
20241WAT     H160965   6.991   8.392   8.773
20241WAT     H260966   7.127   8.334   8.703
20242WAT      O60967   6.493   8.340   2.921
20242WAT     H160968   6.436   8.398   2.978
20242WAT     H260969   6.498   8.248   2.960
20243WAT      O60970   1.331   6.389   4.599
20243WAT     H160971   1.246   6.414   4.646
20243WAT     H260972   1.310   6.362   4.505
20244WAT      O60973   7.644   8.578   9.395
20244WAT     H160974   7.720   8.523   9.432
20244WAT     H260975   7.662   8.675   9.411
20245WAT      O60976   1.757   5.934   4.818
20245WAT     H160977   1.665   5.933   4.779
20245WAT     H260978   1.823   5.904   4.750
20246WAT      O60979   3.015   8.899   3.561
20246WAT     H160980   3.038   8.861   3.650
20246WAT     H260981   2.929   8.860   3.528
20247WAT      O60982   1.093   2.612   2.106
20247WAT     H160983   1.109   2.576   2.198
20247WAT     H260984   1.181   2.626   2.060
20248WAT      O60985   0.197   0.780   8.156
20248WAT     H160986   0.104   0.813   8.176
20248WAT     H260987   0.263   0.833   8.209
20249WAT      O60988   6.250   4.910   5.354
20249WAT     H160989   6.234   4.998   5.308
20249WAT     H260990   6.330   4.866   5.313
20250WAT      O60991   9.451   3.595   4.408
20250WAT     H160992   9.373   3.537   4.431
20250WAT     H260993   9.533   3.539   4.397
20251WAT      O60994   1.041   6.905   6.933
20251WAT     H160995   1.005   6.858   7.014
20251WAT     H260996   1.135   6.877   6.917
20252WAT      O60997   2.312   8.256   9.392
20252WAT     H160998   2.347   8.210   9.474
20252WAT     H260999   2.212   8.263   9.399
20253WAT      O61000   6.420   8.818   7.918
20253WAT     H161001   6.440   8.897   7.860
20253WAT     H261002   6.476   8.741   7.889
20254WAT      O61003   5.575   0.175   5.601
20254WAT     H161004   5.628   0.248   5.558
20254WAT     H261005   5.558   0.198   5.697
20255WAT      O61006   4.969   7.995   8.586
20255WAT     H161007   5.010   7.913   8.548
20255WAT     H261008   5.039   8.052   8.629
20256WAT      O61009   8.204   5.438   6.797
20256WAT     H161010   8.300   5.415   6.814
20256WAT     H261011   8.152   5.354   6.780
20257WAT      O61012   4.303   7.383   4.667
20257WAT     H161013   4.359   7.310   4.630
20257WAT     H261014   4.360   7.463   4.687
20258WAT      O61015   6.645   4.727   3.131
20258WAT     H161016   6.664   4.674   3.049
20258WAT     H261017   6.729   4.738   3.184
20259WAT      O61018   9.531   1.507   0.907
20259WAT     H161019   9.481   1.577   0.855
20259WAT     H261020   9.467   1.456   0.964
20260WAT      O61021   0.879   4.005   2.538
20260WAT     H161022   0.854   4.087   2.589
20260WAT     H261023   0.965   4.021   2.490
20261WAT      O61024   4.336   5.027   2.210
20261WAT     H161025   4.251   5.001   2.165
20261WAT     H261026   4.337   4.990   2.303
20262WAT      O61027   0.385   0.601   2.775
20262WAT     H161028   0.429   0.519   2.809
20262WAT     H261029   0.440   0.642   2.703
20263WAT      O61030   6.834   4.167   2.497
20263WAT     H161031   6.905   4.146   2.430
20263WAT     H261032   6.759   4.101   2.488
20264WAT      O61033   2.926   6.217   9.606
20264WAT     H161034   2.939   6.161   9.524
20264WAT     H261035   3.014   6.229   9.653
20265WAT      O61036   8.748   5.953   7.398
20265WAT     H161037   8.713   5.990   7.312
20265WAT     H261038   8.692   5.985   7.474
20266WAT      O61039   8.703   8.034   7.679
20266WAT     H161040   8.627   7.999   7.624
20266WAT     H261041   8.674   8.041   7.774
20267WAT      O61042   9.309   6.330   9.581
20267WAT     H161043   9.325   6.256   9.647
20267WAT     H261044   9.397   6.358   9.542
20268WAT      O61045   7.914   7.035   6.411
20268WAT     H161046   7.825   7.040   6.366
20268WAT     H261047   7.943   7.127   6.439
20269WAT      O61048   9.383   2.794   0.861
20269WAT     H161049   9.401   2.719   0.797
20269WAT     H261050   9.297   2.776   0.909
20270WAT      O61051   9.688   4.313   4.826
20270WAT     H161052   9.699   4.257   4.908
20270WAT     H261053   9.673   4.253   4.747
20271WAT      O61054   3.262   6.574   2.123
20271WAT     H161055   3.169   6.543   2.138
20271WAT     H261056   3.293   6.543   2.033
20272WAT      O61057   5.297   6.109   6.892
20272WAT     H161058   5.323   6.112   6.796
20272WAT     H261059   5.378   6.122   6.949
20273WAT      O61060   9.124   7.893   5.940
20273WAT     H161061   9.170   7.891   5.851
20273WAT     H261062   9.039   7.840   5.935
20274WAT      O61063   0.431   8.472   8.694
20274WAT     H161064   0.438   8.568   8.667
20274WAT     H261065   0.336   8.450   8.716
20275WAT      O61066   0.119   5.232   5.302
20275WAT     H161067   0.208   5.204   5.266
20275WAT     H261068   0.050   5.164   5.276
20276WAT      O61069   3.787   3.518   4.876
20276WAT     H161070   3.855   3.446   4.869
20276WAT     H261071   3.817   3.586   4.944
20277WAT      O61072   2.890   2.319   1.070
20277WAT     H161073   2.940   2.381   1.010
20277WAT     H261074   2.829   2.372   1.129
20278WAT      O61075   0.900   5.438   6.797
20278WAT     H161076   0.985   5.472   6.837
20278WAT     H261077   0.880   5.488   6.713
20279WAT      O61078   6.061   3.000   6.626
20279WAT     H161079   6.142   2.998   6.685
20279WAT     H261080   5.980   2.979   6.681
20280WAT      O61081   0.239   7.242   8.550
20280WAT     H161082   0.184   7.321   8.578
20280WAT     H261083   0.325   7.242   8.600
20281WAT      O61084   8.912   6.062   4.360
20281WAT     H161085   8.998   6.034   4.318
20281WAT     H261086   8.927   6.142   4.418
20282WAT      O61087   5.819   9.471   6.724
20282WAT     H161088   5.759   9.549   6.704
20282WAT     H261089   5.910   9.505   6.749
20283WAT      O61090   2.805   5.414   1.353
20283WAT     H161091   2.829   5.396   1.448
20283WAT     H261092   2.707   5.430   1.346
20284WAT      O61093   6.054   4.809   5.859
20284WAT     H161094   6.110   4.883   5.823
20284WAT     H261095   5.957   4.834   5.854
20285WAT      O61096   2.027   2.803   5.222
20285WAT     H161097   2.088   2.875   5.190
20285WAT     H261098   2.014   2.736   5.149
20286WAT      O61099   2.626   1.213   5.920
20286WAT     H161100   2.637   1.161   5.835
20286WAT     H261101   2.707   1.201   5.978
20287WAT      O61102   1.431   3.933   6.729
20287WAT     H161103   1.493   3.926   6.651
20287WAT     H261104   1.461   3.870   6.801
20288WAT      O61105   8.374   0.973   4.148
20288WAT     H161106   8.299   1.019   4.195
20288WAT     H261107   8.352   0.964   4.051
20289WAT      O61108   4.248   6.931   0.963
20289WAT     H161109   4.150   6.952   0.966
20289WAT     H261110   4.261   6.834   0.946
20290WAT      O61111   0.462   8.556   2.359
20290WAT     H161112   0.432   8.561   2.263
20290WAT     H261113   0.562   8.560   2.362
20291WAT      O61114   6.312   6.140   4.839
20291WAT     H161115   6.287   6.082   4.917
20291WAT     H261116   6.247   6.127   4.765
20292WAT      O61117   4.457   3.454   0.477
20292WAT     H161118   4.385   3.405   0.428
20292WAT     H261119   4.546   3.430   0.438
20293WAT      O61120   8.950   8.669   2.072
20293WAT     H161121   9.004   8.597   2.116
20293WAT     H261122   8.981   8.680   1.978
20294WAT      O61123   5.735   8.432   2.346
20294WAT     H161124   5.644   8.460   2.375
20294WAT     H261125   5.735   8.417   2.247
20295WAT      O61126   5.752   5.938   1.744
20295WAT     H161127   5.685   5.874   1.707
20295WAT     H261128   5.742   5.944   1.843
20296WAT      O61129   6.023   9.550   1.242
20296WAT     H161130   6.032   9.612   1.163
20296WAT     H261131   5.935   9.567   1.287
20297WAT      O61132   6.822   7.112   1.645
20297WAT     H161133   6.880   7.081   1.721
20297WAT     H261134   6.866   7.087   1.559
20298WAT      O61135   5.326   0.817   4.405
20298WAT     H161136   5.254   0.773   4.459
20298WAT     H261137   5.399   0.848   4.466
20299WAT      O61138   2.243   4.556   6.498
20299WAT     H161139   2.188   4.639   6.487
20299WAT     H261140   2.335   4.580   6.528
20300WAT      O61141   2.182   7.802   6.669
20300WAT     H161142   2.160   7.862   6.746
20300WAT     H261143   2.214   7.857   6.592
20301WAT      O61144   2.689   3.591   1.557
20301WAT     H161145   2.718   3.497   1.572
20301WAT     H261146   2.739   3.653   1.618
20302WAT      O61147   9.640   4.163   4.142
20302WAT     H161148   9.679   4.223   4.211
20302WAT     H261149   9.714   4.117   4.093
20303WAT      O61150   6.046   5.288   7.887
20303WAT     H161151   5.993   5.211   7.923
20303WAT     H261152   6.023   5.371   7.939
20304WAT      O61153   9.477   8.356   6.958
20304WAT     H161154   9.575   8.377   6.955
20304WAT     H261155   9.430   8.408   6.886
20305WAT      O61156   0.997   4.595   8.430
20305WAT     H161157   1.054   4.563   8.505
20305WAT     H261158   0.948   4.518   8.390
20306WAT      O61159   7.445   6.971   5.795
20306WAT     H161160   7.481   6.892   5.746
20306WAT     H261161   7.351   6.952   5.824
20307WAT      O61162   6.393   8.631   6.276
20307WAT     H161163   6.471   8.581   6.312
20307WAT     H261164   6.388   8.618   6.177
20308WAT      O61165   1.149   2.791   0.730
20308WAT     H161166   1.199   2.869   0.694
20308WAT     H261167   1.167   2.781   0.828
20309WAT      O61168   9.777   7.149   3.216
20309WAT     H161169   9.701   7.178   3.158
20309WAT     H261170   9.863   7.165   3.169
20310WAT      O61171   9.064   8.425   3.912
20310WAT     H161172   9.137   8.457   3.851
20310WAT     H261173   9.089   8.336   3.950
20311WAT      O61174   9.073   2.675   6.886
20311WAT     H161175   9.107   2.747   6.827
20311WAT     H261176   9.039   2.599   6.831
20312WAT      O61177   4.427   7.347   4.129
20312WAT     H161178   4.514   7.372   4.172
20312WAT     H261179   4.394   7.423   4.074
20313WAT      O61180   3.979   7.015   9.642
20313WAT     H161181   3.931   6.955   9.706
20313WAT     H261182   4.004   7.100   9.688
20314WAT      O61183   5.984   0.237   2.019
20314WAT     H161184   5.977   0.270   1.925
20314WAT     H261185   5.930   0.154   2.030
20315WAT      O61186   6.569   1.755   4.058
20315WAT     H161187   6.618   1.758   4.145
20315WAT     H261188   6.627   1.793   3.986
20316WAT      O61189   1.991   9.835   5.972
20316WAT     H161190   2.012   9.738   5.984
20316WAT     H261191   1.963   9.874   6.060
20317WAT      O61192   1.647   6.312   8.101
20317WAT     H161193   1.635   6.393   8.158
20317WAT     H261194   1.619   6.332   8.007
20318WAT      O61195   9.347   0.641   0.010
20318WAT     H161196   9.382   0.555   0.047
20318WAT     H261197   9.401   0.667  -0.070
20319WAT      O61198   1.411   5.930   7.268
20319WAT     H161199   1.451   5.855   7.321
20319WAT     H261200   1.330   5.898   7.220
20320WAT      O61201   4.929   5.586   0.209
20320WAT     H161202   4.848   5.532   0.230
20320WAT     H261203   4.904   5.663   0.150
20321WAT      O61204   3.396   7.283   4.379
20321WAT     H161205   3.495   7.285   4.386
20321WAT     H261206   3.370   7.260   4.285
20322WAT      O61207   4.591   1.007   1.091
20322WAT     H161208   4.514   1.012   1.028
20322WAT     H261209   4.557   1.000   1.185
20323WAT      O61210   3.562   0.095   5.655
20323WAT     H161211   3.655   0.131   5.665
20323WAT     H261212   3.548   0.062   5.562
20324WAT      O61213   4.548   5.999   4.521
20324WAT     H161214   4.646   6.013   4.532
20324WAT     H261215   4.506   5.987   4.611
20325WAT      O61216   7.063   2.669   5.226
20325WAT     H161217   7.018   2.592   5.181
20325WAT     H261218   7.142   2.635   5.278
20326WAT      O61219   6.590   8.885   4.321
20326WAT     H161220   6.505   8.835   4.301
20326WAT     H261221   6.640   8.898   4.236
20327WAT      O61222   9.582   5.381   2.866
20327WAT     H161223   9.500   5.354   2.815
20327WAT     H261224   9.602   5.312   2.936
20328WAT      O61225   7.013   1.749   7.708
20328WAT     H161226   7.081   1.802   7.657
20328WAT     H261227   7.049   1.657   7.723
20329WAT      O61228   4.428   6.433   2.850
20329WAT     H161229   4.433   6.436   2.750
20329WAT     H261230   4.334   6.449   2.879
20330WAT      O61231   6.159   3.456   0.991
20330WAT     H161232   6.235   3.459   0.927
20330WAT     H261233   6.074   3.436   0.942
20331WAT      O61234   4.609   7.769   3.593
20331WAT     H161235   4.511   7.786   3.603
20331WAT     H261236   4.639   7.799   3.503
20332WAT      O61237   5.042   4.326   4.199
20332WAT     H161238   5.049   4.369   4.109
20332WAT     H261239   5.134   4.300   4.231
20333WAT      O61240   3.318   5.299   2.748
20333WAT     H161241   3.403   5.249   2.765
20333WAT     H261242   3.307   5.314   2.649
20334WAT      O61243   2.019   8.612   4.462
20334WAT     H161244   1.927   8.621   4.423
20334WAT     H261245   2.076   8.687   4.429
20335WAT      O61246   8.715   4.871   0.791
20335WAT     H161247   8.751   4.944   0.849
20335WAT     H261248   8.758   4.876   0.701
20336WAT      O61249   7.494   4.467   3.139
20336WAT     H161250   7.449   4.553   3.162
20336WAT     H261251   7.559   4.482   3.064
20337WAT      O61252   6.189   4.709   9.043
20337WAT     H161253   6.229   4.633   9.092
20337WAT     H261254   6.100   4.682   9.005
20338WAT      O61255   6.318   8.842   5.172
20338WAT     H161256   6.263   8.923   5.193
20338WAT     H261257   6.329   8.788   5.255
20339WAT      O61258   8.957   0.470   0.107
20339WAT     H161259   9.041   0.416   0.109
20339WAT     H261260   8.931   0.494   0.201
20340WAT      O61261   6.682   2.782   6.764
20340WAT     H161262   6.701   2.687   6.791
20340WAT     H261263   6.650   2.834   6.843
20341WAT      O61264   5.552   8.336   6.810
20341WAT     H161265   5.554   8.297   6.718
20341WAT     H261266   5.644   8.341   6.847
20342WAT      O61267   5.750   7.667   2.987
20342WAT     H161268   5.701   7.652   3.073
20342WAT     H261269   5.703   7.618   2.913
20343WAT      O61270   3.040   6.528   0.046
20343WAT     H161271   3.017   6.622   0.073
20343WAT     H261272   3.137   6.523   0.023
20344WAT      O61273   1.832   9.035   6.046
20344WAT     H161274   1.833   9.075   5.954
20344WAT     H261275   1.898   8.960   6.050
20345WAT      O61276   1.992   3.766   9.781
20345WAT     H161277   1.989   3.673   9.743
20345WAT     H261278   1.948   3.829   9.717
20346WAT      O61279   4.624   2.338   7.724
20346WAT     H161280   4.703   2.389   7.758
20346WAT     H261281   4.542   2.395   7.731
20347WAT      O61282   3.858   3.860   1.723
20347WAT     H161283   3.931   3.833   1.659
20347WAT     H261284   3.807   3.937   1.685
20348WAT      O61285   4.321   4.545   9.598
20348WAT     H161286   4.232   4.584   9.574
20348WAT     H261287   4.361   4.599   9.672
20349WAT      O61288   0.174   4.759   8.965
20349WAT     H161289   0.156   4.799   8.875
20349WAT     H261290   0.102   4.785   9.028
20350WAT      O61291   7.965   4.090   5.036
20350WAT     H161292   7.956   4.000   5.079
20350WAT     H261293   8.003   4.079   4.944
20351WAT      O61294   2.046   4.837   1.301
20351WAT     H161295   2.022   4.892   1.381
20351WAT     H261296   2.135   4.865   1.266
20352WAT      O61297   3.238   7.062   9.452
20352WAT     H161298   3.326   7.021   9.478
20352WAT     H261299   3.185   7.081   9.535
20353WAT      O61300   6.999   6.768   9.325
20353WAT     H161301   7.093   6.742   9.348
20353WAT     H261302   6.945   6.774   9.409
20354WAT      O61303   9.866   2.215   4.699
20354WAT     H161304   9.857   2.119   4.673
20354WAT     H261305   9.946   2.254   4.652
20355WAT      O61306   6.604   2.399   9.818
20355WAT     H161307   6.564   2.426   9.731
20355WAT     H261308   6.532   2.362   9.877
20356WAT      O61309   7.241   3.460   8.053
20356WAT     H161310   7.143   3.481   8.055
20356WAT     H261311   7.255   3.369   8.014
20357WAT      O61312   0.238   8.015   9.183
20357WAT     H161313   0.197   8.106   9.180
20357WAT     H261314   0.171   7.947   9.153
20358WAT      O61315   0.803   7.868   1.812
20358WAT     H161316   0.875   7.847   1.878
20358WAT     H261317   0.783   7.965   1.815
20359WAT      O61318   2.032   7.178   4.915
20359WAT     H161319   2.022   7.268   4.956
20359WAT     H261320   2.125   7.168   4.878
20360WAT      O61321   6.007   7.534   9.148
20360WAT     H161322   6.057   7.569   9.227
20360WAT     H261323   5.965   7.610   9.098
20361WAT      O61324   6.393   7.666   3.375
20361WAT     H161325   6.359   7.610   3.299
20361WAT     H261326   6.325   7.667   3.448
20362WAT      O61327   3.805   7.913   8.006
20362WAT     H161328   3.902   7.903   7.985
20362WAT     H261329   3.790   7.895   8.103
20363WAT      O61330   4.286   9.650   9.692
20363WAT     H161331   4.294   9.568   9.748
20363WAT     H261332   4.199   9.696   9.710
20364WAT      O61333   6.733   3.081   2.021
20364WAT     H161334   6.799   3.023   2.069
20364WAT     H261335   6.651   3.028   1.999
20365WAT      O61336   2.956   9.524   6.720
20365WAT     H161337   2.986   9.441   6.673
20365WAT     H261338   2.865   9.510   6.759
20366WAT      O61339   8.745   5.438   5.274
20366WAT     H161340   8.720   5.381   5.196
20366WAT     H261341   8.832   5.484   5.256
20367WAT      O61342   8.556   2.423   3.674
20367WAT     H161343   8.608   2.466   3.748
20367WAT     H261344   8.610   2.425   3.590
20368WAT      O61345   1.606   7.057   9.666
20368WAT     H161346   1.572   7.100   9.749
20368WAT     H261347   1.633   7.127   9.600
20369WAT      O61348   5.356   8.223   2.108
20369WAT     H161349   5.301   8.192   2.030
20369WAT     H261350   5.305   8.292   2.159
20370WAT      O61351   3.328   3.929   2.624
20370WAT     H161352   3.394   3.881   2.682
20370WAT     H261353   3.285   4.001   2.677
20371WAT      O61354   6.019   6.211   7.271
20371WAT     H161355   6.104   6.251   7.238
20371WAT     H261356   5.948   6.282   7.272
20372WAT      O61357   6.631   9.546   2.459
20372WAT     H161358   6.551   9.564   2.517
20372WAT     H261359   6.688   9.476   2.502
20373WAT      O61360   2.688   0.318   6.104
20373WAT     H161361   2.701   0.416   6.115
20373WAT     H261362   2.591   0.295   6.116
20374WAT      O61363   1.325   1.186   9.877
20374WAT     H161364   1.269   1.243   9.937
20374WAT     H261365   1.341   1.097   9.920
20375WAT      O61366   3.371   4.594   6.777
20375WAT     H161367   3.274   4.612   6.792
20375WAT     H261368   3.408   4.661   6.713
20376WAT      O61369   8.748   5.883   4.056
20376WAT     H161370   8.677   5.896   4.124
20376WAT     H261371   8.773   5.786   4.051
20377WAT      O61372   2.025   4.217   6.546
20377WAT     H161373   1.937   4.170   6.557
20377WAT     H261374   2.014   4.294   6.483
20378WAT      O61375   5.331   6.509   4.961
20378WAT     H161376   5.299   6.450   4.886
20378WAT     H261377   5.270   6.498   5.040
20379WAT      O61378   4.997   1.866   1.255
20379WAT     H161379   5.007   1.778   1.208
20379WAT     H261380   4.956   1.851   1.345
20380WAT      O61381   4.754   4.363   7.238
20380WAT     H161382   4.661   4.344   7.269
20380WAT     H261383   4.752   4.401   7.146
20381WAT      O61384   1.639   0.196   3.514
20381WAT     H161385   1.570   0.125   3.497
20381WAT     H261386   1.606   0.284   3.480
20382WAT      O61387   2.907   3.185   8.822
20382WAT     H161388   2.834   3.185   8.890
20382WAT     H261389   2.913   3.095   8.779
20383WAT      O61390   0.127   2.539   1.090
20383WAT     H161391   0.031   2.545   1.120
20383WAT     H261392   0.161   2.446   1.107
20384WAT      O61393   8.917   0.308   5.739
20384WAT     H161394   9.010   0.290   5.772
20384WAT     H261395   8.859   0.229   5.760
20385WAT      O61396   4.470   1.469   3.611
20385WAT     H161397   4.502   1.489   3.518
20385WAT     H261398   4.463   1.370   3.623
20386WAT      O61399   8.048   8.375   7.523
20386WAT     H161400   8.057   8.475   7.523
20386WAT     H261401   7.980   8.349   7.454
20387WAT      O61402   8.459   4.630   0.575
20387WAT     H161403   8.458   4.701   0.646
20387WAT     H261404   8.542   4.574   0.585
20388WAT      O61405   3.187   1.504   3.674
20388WAT     H161406   3.187   1.434   3.602
20388WAT     H261407   3.276   1.550   3.675
20389WAT      O61408   1.957   4.855   0.056
20389WAT     H161409   1.964   4.783  -0.013
20389WAT     H261410   1.889   4.922   0.026
20390WAT      O61411   0.829   3.917   2.884
20390WAT     H161412   0.763   3.937   2.956
20390WAT     H261413   0.786   3.863   2.812
20391WAT      O61414   5.647   7.234   9.725
20391WAT     H161415   5.638   7.208   9.630
20391WAT     H261416   5.740   7.212   9.757
20392WAT      O61417   1.472   2.085   4.196
20392WAT     H161418   1.482   2.030   4.113
20392WAT     H261419   1.562   2.110   4.231
20393WAT      O61420   9.373   0.022   8.212
20393WAT     H161421   9.279   0.056   8.207
20393WAT     H261422   9.425   0.058   8.135
20394WAT      O61423   3.638   5.084   6.912
20394WAT     H161424   3.570   5.152   6.938
20394WAT     H261425   3.723   5.130   6.885
20395WAT      O61426   1.054   2.628   1.839
20395WAT     H161427   1.065   2.616   1.937
20395WAT     H261428   1.097   2.713   1.810
20396WAT      O61429   8.671   6.870   3.386
20396WAT     H161430   8.640   6.954   3.430
20396WAT     H261431   8.591   6.818   3.354
20397WAT      O61432   1.331   4.400   1.333
20397WAT     H161433   1.235   4.395   1.305
20397WAT     H261434   1.389   4.401   1.252
20398WAT      O61435   1.121   5.247   9.207
20398WAT     H161436   1.183   5.318   9.173
20398WAT     H261437   1.033   5.255   9.161
20399WAT      O61438   8.545   0.562   4.344
20399WAT     H161439   8.502   0.584   4.432
20399WAT     H261440   8.644   0.559   4.356
20400WAT      O61441   6.262   0.515   3.076
20400WAT     H161442   6.318   0.432   3.084
20400WAT     H261443   6.251   0.538   2.979
20401WAT      O61444   9.111   2.635   3.811
20401WAT     H161445   9.106   2.701   3.886
20401WAT     H261446   9.200   2.589   3.813
20402WAT      O61447   0.749   6.488   3.680
20402WAT     H161448   0.701   6.528   3.758
20402WAT     H261449   0.823   6.429   3.713
20403WAT      O61450   1.291   5.384   5.537
20403WAT     H161451   1.387   5.403   5.519
20403WAT     H261452   1.243   5.366   5.451
20404WAT      O61453   0.572   2.568   3.725
20404WAT     H161454   0.582   2.609   3.634
20404WAT     H261455   0.661   2.534   3.756
20405WAT      O61456   0.409   8.961   6.397
20405WAT     H161457   0.355   9.034   6.355
20405WAT     H261458   0.506   8.987   6.397
20406WAT      O61459   8.194   6.060   1.141
20406WAT     H161460   8.161   6.090   1.051
20406WAT     H261461   8.165   5.965   1.157
20407WAT      O61462   3.001   2.561   1.746
20407WAT     H161463   3.007   2.661   1.752
20407WAT     H261464   3.021   2.532   1.652
20408WAT      O61465   1.549   8.635   7.260
20408WAT     H161466   1.566   8.648   7.357
20408WAT     H261467   1.460   8.675   7.236
20409WAT      O61468   5.178   0.445   5.521
20409WAT     H161469   5.103   0.468   5.584
20409WAT     H261470   5.139   0.412   5.435
20410WAT      O61471   6.925   4.125   7.210
20410WAT     H161472   6.828   4.105   7.217
20410WAT     H261473   6.965   4.072   7.136
20411WAT      O61474   6.915   1.881   2.152
20411WAT     H161475   6.988   1.878   2.083
20411WAT     H261476   6.848   1.950   2.125
20412WAT      O61477   1.055   8.708   6.605
20412WAT     H161478   1.100   8.783   6.557
20412WAT     H261479   1.110   8.682   6.684
20413WAT      O61480   4.840   9.621   6.065
20413WAT     H161481   4.838   9.540   6.123
20413WAT     H261482   4.814   9.701   6.119
20414WAT      O61483   0.703   6.350   4.843
20414WAT     H161484   0.720   6.254   4.867
20414WAT     H261485   0.614   6.378   4.879
20415WAT      O61486   6.008   1.181   4.326
20415WAT     H161487   6.018   1.089   4.287
20415WAT     H261488   5.999   1.174   4.426
20416WAT      O61489   9.205   5.534   0.825
20416WAT     H161490   9.176   5.629   0.837
20416WAT     H261491   9.300   5.524   0.854
20417WAT      O61492   0.546   2.103   9.819
20417WAT     H161493   0.519   2.010   9.794
20417WAT     H261494   0.505   2.167   9.754
20418WAT      O61495   3.290   4.839   8.047
20418WAT     H161496   3.358   4.892   8.098
20418WAT     H261497   3.295   4.743   8.076
20419WAT      O61498   2.954   3.399   5.959
20419WAT     H161499   3.021   3.329   5.935
20419WAT     H261500   2.990   3.455   6.033
20420WAT      O61501   8.811   2.705   4.704
20420WAT     H161502   8.737   2.656   4.657
20420WAT     H261503   8.894   2.701   4.648
20421WAT      O61504   1.070   6.588   1.367
20421WAT     H161505   0.973   6.593   1.389
20421WAT     H261506   1.082   6.576   1.269
20422WAT      O61507   6.428   2.781   5.517
20422WAT     H161508   6.464   2.856   5.573
20422WAT     H261509   6.496   2.707   5.514
20423WAT      O61510   8.633   4.929   1.221
20423WAT     H161511   8.721   4.940   1.266
20423WAT     H261512   8.638   4.967   1.128
20424WAT      O61513   1.501   8.391   1.509
20424WAT     H161514   1.541   8.447   1.436
20424WAT     H261515   1.412   8.357   1.480
20425WAT      O61516   5.312   8.118   1.679
20425WAT     H161517   5.275   8.026   1.689
20425WAT     H261518   5.395   8.116   1.623
20426WAT      O61519   3.774   2.078   2.054
20426WAT     H161520   3.822   2.039   2.132
20426WAT     H261521   3.840   2.119   1.991
20427WAT      O61522   8.153   5.738   0.469
20427WAT     H161523   8.245   5.742   0.509
20427WAT     H261524   8.142   5.814   0.405
20428WAT      O61525   1.825   4.628   4.875
20428WAT     H161526   1.911   4.674   4.855
20428WAT     H261527   1.813   4.551   4.813
20429WAT      O61528   5.394   1.257   7.586
20429WAT     H161529   5.480   1.263   7.636
20429WAT     H261530   5.397   1.318   7.507
20430WAT      O61531   5.617   7.609   2.371
20430WAT     H161532   5.659   7.673   2.436
20430WAT     H261533   5.537   7.652   2.330
20431WAT      O61534   8.984   2.188   4.097
20431WAT     H161535   8.962   2.270   4.046
20431WAT     H261536   8.973   2.205   4.195
20432WAT      O61537   1.146   0.588   7.279
20432WAT     H161538   1.143   0.573   7.378
20432WAT     H261539   1.066   0.642   7.251
20433WAT      O61540   1.150   4.652   5.391
20433WAT     H161541   1.124   4.656   5.488
20433WAT     H261542   1.221   4.583   5.379
20434WAT      O61543   7.767   5.655   6.020
20434WAT     H161544   7.766   5.631   5.923
20434WAT     H261545   7.766   5.755   6.029
20435WAT      O61546   6.611   4.809   5.449
20435WAT     H161547   6.607   4.904   5.481
20435WAT     H261548   6.554   4.798   5.368
20436WAT      O61549   1.012   8.790   9.373
20436WAT     H161550   1.028   8.886   9.352
20436WAT     H261551   1.096   8.748   9.407
20437WAT      O61552   6.965   4.362   2.657
20437WAT     H161553   7.055   4.375   2.613
20437WAT     H261554   6.920   4.282   2.617
20438WAT      O61555   0.609   2.622   2.594
20438WAT     H161556   0.624   2.709   2.642
20438WAT     H261557   0.609   2.637   2.496
20439WAT      O61558   9.075   7.196   1.280
20439WAT     H161559   9.001   7.251   1.318
20439WAT     H261560   9.161   7.220   1.326
20440WAT      O61561   7.305   4.616   8.896
20440WAT     H161562   7.263   4.537   8.942
20440WAT     H261563   7.244   4.695   8.904
20441WAT      O61564   6.776   2.590   4.766
20441WAT     H161565   6.767   2.586   4.667
20441WAT     H261566   6.809   2.501   4.800
20442WAT      O61567   5.255   7.803   4.824
20442WAT     H161568   5.242   7.890   4.777
20442WAT     H261569   5.270   7.730   4.757
20443WAT      O61570   9.510   7.823   4.975
20443WAT     H161571   9.548   7.904   5.019
20443WAT     H261572   9.573   7.746   4.986
20444WAT      O61573   0.305   7.744   8.560
20444WAT     H161574   0.317   7.769   8.656
20444WAT     H261575   0.330   7.648   8.546
20445WAT      O61576   5.869   9.182   4.926
20445WAT     H161577   5.790   9.121   4.936
20445WAT     H261578   5.842   9.264   4.876
20446WAT      O61579   2.729   8.452   7.981
20446WAT     H161580   2.741   8.545   8.016
20446WAT     H261581   2.806   8.395   8.011
20447WAT      O61582   7.959   6.818   0.237
20447WAT     H161583   7.984   6.721   0.243
20447WAT     H261584   7.969   6.860   0.328
20448WAT      O61585   5.300   1.471   0.671
20448WAT     H161586   5.296   1.383   0.717
20448WAT     H261587   5.330   1.542   0.735
20449WAT      O61588   4.971   5.839   5.997
20449WAT     H161589   5.021   5.765   6.043
20449WAT     H261590   4.977   5.826   5.898
20450WAT      O61591   8.576   9.158   1.660
20450WAT     H161592   8.539   9.067   1.642
20450WAT     H261593   8.670   9.163   1.629
20451WAT      O61594   4.044   5.702   5.028
20451WAT     H161595   4.002   5.771   4.969
20451WAT     H261596   4.038   5.612   4.984
20452WAT      O61597   2.199   3.845   5.272
20452WAT     H161598   2.185   3.925   5.214
20452WAT     H261599   2.268   3.866   5.342
20453WAT      O61600   3.749   5.715   9.872
20453WAT     H161601   3.732   5.616   9.881
20453WAT     H261602   3.828   5.730   9.812
20454WAT      O61603   1.815   0.978   3.662
20454WAT     H161604   1.827   0.950   3.567
20454WAT     H261605   1.751   1.056   3.666
20455WAT      O61606   9.865   2.833   4.023
20455WAT     H161607   9.948   2.886   4.041
20455WAT     H261608   9.885   2.736   4.037
20456WAT      O61609   9.219   0.220   3.869
20456WAT     H161610   9.294   0.207   3.803
20456WAT     H261611   9.172   0.305   3.849
20457WAT      O61612   3.933   6.748   0.311
20457WAT     H161613   3.998   6.822   0.326
20457WAT     H261614   3.967   6.688   0.238
20458WAT      O61615   5.927   5.151   2.999
20458WAT     H161616   5.875   5.194   3.072
20458WAT     H261617   5.948   5.217   2.928
20459WAT      O61618   3.727   6.527   6.706
20459WAT     H161619   3.661   6.452   6.702
20459WAT     H261620   3.791   6.512   6.782
20460WAT      O61621   7.491   4.937   5.024
20460WAT     H161622   7.519   4.921   5.118
20460WAT     H261623   7.485   5.036   5.007
20461WAT      O61624   2.219   2.389   7.612
20461WAT     H161625   2.182   2.451   7.681
20461WAT     H261626   2.196   2.295   7.636
20462WAT      O61627   5.380   2.297   2.034
20462WAT     H161628   5.293   2.346   2.041
20462WAT     H261629   5.366   2.209   1.989
20463WAT      O61630   8.284   6.533   5.031
20463WAT     H161631   8.250   6.603   5.095
20463WAT     H261632   8.305   6.450   5.082
20464WAT      O61633   2.518   9.115   6.434
20464WAT     H161634   2.458   9.185   6.471
20464WAT     H261635   2.613   9.141   6.449
20465WAT      O61636   1.437   0.746   9.830
20465WAT     H161637   1.457   0.666   9.773
20465WAT     H261638   1.520   0.773   9.878
20466WAT      O61639   8.736   7.968   8.225
20466WAT     H161640   8.653   7.912   8.219
20466WAT     H261641   8.805   7.919   8.277
20467WAT      O61642   3.806   1.566   9.309
20467WAT     H161643   3.900   1.552   9.338
20467WAT     H261644   3.763   1.635   9.367
20468WAT      O61645   1.509   5.252   3.863
20468WAT     H161646   1.448   5.190   3.814
20468WAT     H261647   1.461   5.291   3.942
20469WAT      O61648   5.738   5.965   5.085
20469WAT     H161649   5.803   6.015   5.142
20469WAT     H261650   5.720   6.015   5.001
20470WAT      O61651   2.846   9.361   0.661
20470WAT     H161652   2.765   9.317   0.701
20470WAT     H261653   2.822   9.453   0.631
20471WAT      O61654   7.827   2.834   4.817
20471WAT     H161655   7.790   2.878   4.735
20471WAT     H261656   7.865   2.745   4.793
20472WAT      O61657   0.870   2.327   8.135
20472WAT     H161658   0.826   2.370   8.056
20472WAT     H261659   0.956   2.284   8.106
20473WAT      O61660   3.215   0.825   2.536
20473WAT     H161661   3.277   0.748   2.547
20473WAT     H261662   3.135   0.796   2.484
20474WAT      O61663   2.208   3.472   8.986
20474WAT     H161664   2.127   3.520   9.019
20474WAT     H261665   2.217   3.485   8.888
20475WAT      O61666   7.231   5.966   1.570
20475WAT     H161667   7.157   6.023   1.535
20475WAT     H261668   7.192   5.891   1.625
20476WAT      O61669   3.015   7.933   8.090
20476WAT     H161670   3.004   7.849   8.144
20476WAT     H261671   2.926   7.978   8.081
20477WAT      O61672   3.345   2.395   6.975
20477WAT     H161673   3.311   2.488   6.984
20477WAT     H261674   3.325   2.344   7.059
20478WAT      O61675   2.347   3.861   0.195
20478WAT     H161676   2.437   3.824   0.220
20478WAT     H261677   2.321   3.932   0.261
20479WAT      O61678   0.858   6.593   6.011
20479WAT     H161679   0.915   6.519   6.046
20479WAT     H261680   0.808   6.634   6.087
20480WAT      O61681   4.734   6.233   1.025
20480WAT     H161682   4.803   6.259   0.958
20480WAT     H261683   4.726   6.133   1.027
20481WAT      O61684   6.672   0.684   8.313
20481WAT     H161685   6.756   0.630   8.316
20481WAT     H261686   6.642   0.693   8.218
20482WAT      O61687   4.368   0.485   8.391
20482WAT     H161688   4.342   0.514   8.483
20482WAT     H261689   4.465   0.504   8.376
20483WAT      O61690   9.191   0.928   9.521
20483WAT     H161691   9.282   0.968   9.516
20483WAT     H261692   9.123   0.996   9.495
20484WAT      O61693   2.571   4.888   9.126
20484WAT     H161694   2.551   4.817   9.059
20484WAT     H261695   2.647   4.945   9.094
20485WAT      O61696   8.648   1.305   7.161
20485WAT     H161697   8.583   1.364   7.114
20485WAT     H261698   8.674   1.229   7.101
20486WAT      O61699   5.200   6.557   6.021
20486WAT     H161700   5.240   6.513   6.101
20486WAT     H261701   5.176   6.652   6.044
20487WAT      O61702   9.534   3.785   3.708
20487WAT     H161703   9.447   3.793   3.660
20487WAT     H261704   9.561   3.689   3.714
20488WAT      O61705   6.350   2.723   7.055
20488WAT     H161706   6.304   2.661   6.992
20488WAT     H261707   6.339   2.818   7.023
20489WAT      O61708   2.190   6.649   5.464
20489WAT     H161709   2.281   6.685   5.486
20489WAT     H261710   2.140   6.631   5.548
20490WAT      O61711   2.083   7.714   0.728
20490WAT     H161712   2.114   7.644   0.664
20490WAT     H261713   1.998   7.755   0.693
20491WAT      O61714   8.749   2.845   9.653
20491WAT     H161715   8.819   2.818   9.586
20491WAT     H261716   8.790   2.851   9.743
20492WAT      O61717   8.639   2.962   0.692
20492WAT     H161718   8.630   2.897   0.768
20492WAT     H261719   8.548   2.994   0.665
20493WAT      O61720   1.580   6.526   8.247
20493WAT     H161721   1.600   6.624   8.252
20493WAT     H261722   1.597   6.483   8.336
20494WAT      O61723   8.811   4.127   6.879
20494WAT     H161724   8.904   4.130   6.913
20494WAT     H261725   8.770   4.039   6.902
20495WAT      O61726   7.160   2.694   0.760
20495WAT     H161727   7.145   2.599   0.730
20495WAT     H261728   7.072   2.733   0.789
20496WAT      O61729   5.526   2.519   5.014
20496WAT     H161730   5.472   2.514   5.098
20496WAT     H261731   5.490   2.592   4.955
20497WAT      O61732   2.922   4.505   3.432
20497WAT     H161733   2.924   4.503   3.532
20497WAT     H261734   2.878   4.589   3.400
20498WAT      O61735   5.045   5.320   4.055
20498WAT     H161736   5.013   5.389   4.119
20498WAT     H261737   5.145   5.319   4.053
20499WAT      O61738   3.828   2.391   1.307
20499WAT     H161739   3.831   2.296   1.337
20499WAT     H261740   3.909   2.411   1.252
20500WAT      O61741   4.320   1.251   3.967
20500WAT     H161742   4.366   1.331   4.006
20500WAT     H261743   4.306   1.264   3.869
20501WAT      O61744   2.893   8.928   6.510
20501WAT     H161745   2.855   8.846   6.468
20501WAT     H261746   2.824   9.001   6.507
20502WAT      O61747   3.470   7.889   7.231
20502WAT     H161748   3.445   7.931   7.143
20502WAT     H261749   3.554   7.931   7.265
20503WAT      O61750   8.742   1.339   9.670
20503WAT     H161751   8.652   1.298   9.685
20503WAT     H261752   8.733   1.422   9.615
20504WAT      O61753   4.425   8.075   3.456
20504WAT     H161754   4.455   8.081   3.551
20504WAT     H261755   4.355   8.004   3.448
20505WAT      O61756   0.467   1.931   8.811
20505WAT     H161757   0.386   1.896   8.860
20505WAT     H261758   0.546   1.876   8.836
20506WAT      O61759   3.765   3.365   0.353
20506WAT     H161760   3.713   3.433   0.405
20506WAT     H261761   3.704   3.321   0.287
20507WAT      O61762   0.502   3.968   9.453
20507WAT     H161763   0.485   4.065   9.434
20507WAT     H261764   0.599   3.948   9.441
20508WAT      O61765   7.377   4.663   5.329
20508WAT     H161766   7.355   4.619   5.242
20508WAT     H261767   7.376   4.595   5.403
20509WAT      O61768   2.464   9.787   8.774
20509WAT     H161769   2.450   9.828   8.684
20509WAT     H261770   2.397   9.713   8.787
20510WAT      O61771   2.045   9.553   2.285
20510WAT     H161772   2.028   9.519   2.192
20510WAT     H261773   2.081   9.479   2.341
20511WAT      O61774   4.710   3.123   0.056
20511WAT     H161775   4.648   3.135   0.133
20511WAT     H261776   4.718   3.025   0.035
20512WAT      O61777   7.733   5.067   8.345
20512WAT     H161778   7.666   5.046   8.415
20512WAT     H261779   7.823   5.080   8.388
20513WAT      O61780   9.258   1.698   4.166
20513WAT     H161781   9.228   1.664   4.077
20513WAT     H261782   9.289   1.622   4.223
20514WAT      O61783   9.240   6.099   6.455
20514WAT     H161784   9.299   6.064   6.528
20514WAT     H261785   9.297   6.133   6.380
20515WAT      O61786   7.597   7.300   1.122
20515WAT     H161787   7.663   7.362   1.079
20515WAT     H261788   7.514   7.297   1.067
20516WAT      O61789   4.972   4.439   2.332
20516WAT     H161790   4.914   4.358   2.328
20516WAT     H261791   4.954   4.490   2.416
20517WAT      O61792   9.099   8.877   8.601
20517WAT     H161793   9.057   8.964   8.626
20517WAT     H261794   9.042   8.802   8.635
20518WAT      O61795   4.478   3.671   6.804
20518WAT     H161796   4.392   3.621   6.816
20518WAT     H261797   4.459   3.765   6.778
20519WAT      O61798   1.221   6.867   9.261
20519WAT     H161799   1.243   6.963   9.277
20519WAT     H261800   1.212   6.852   9.162
20520WAT      O61801   0.006   5.779   8.532
20520WAT     H161802   0.082   5.718   8.554
20520WAT     H261803  -0.068   5.765   8.599
20521WAT      O61804   1.149   6.249   5.095
20521WAT     H161805   1.070   6.215   5.146
20521WAT     H261806   1.142   6.221   5.000
20522WAT      O61807   6.144   4.417   1.898
20522WAT     H161808   6.231   4.439   1.941
20522WAT     H261809   6.151   4.426   1.799
20523WAT      O61810   5.336   9.022   8.023
20523WAT     H161811   5.426   8.988   7.996
20523WAT     H261812   5.291   8.954   8.080
20524WAT      O61813   6.507   0.836   3.374
20524WAT     H161814   6.485   0.930   3.400
20524WAT     H261815   6.472   0.818   3.282
20525WAT      O61816   4.163   0.896   1.574
20525WAT     H161817   4.188   0.861   1.484
20525WAT     H261818   4.076   0.854   1.603
20526WAT      O61819   1.954   2.873   1.874
20526WAT     H161820   1.962   2.951   1.937
20526WAT     H261821   1.870   2.882   1.821
20527WAT      O61822   7.274   3.423   9.110
20527WAT     H161823   7.304   3.331   9.084
20527WAT     H261824   7.256   3.477   9.027
20528WAT      O61825   8.297   7.513   0.748
20528WAT     H161826   8.294   7.503   0.848
20528WAT     H261827   8.328   7.605   0.725
20529WAT      O61828   1.686   5.098   5.144
20529WAT     H161829   1.693   5.001   5.169
20529WAT     H261830   1.594   5.117   5.112
20530WAT      O61831   8.170   5.788   1.220
20530WAT     H161832   8.244   5.762   1.158
20530WAT     H261833   8.199   5.775   1.314
20531WAT      O61834   5.095   0.820   3.393
20531WAT     H161835   5.068   0.733   3.433
20531WAT     H261836   5.090   0.892   3.462
20532WAT      O61837   3.744   2.013   9.300
20532WAT     H161838   3.775   2.107   9.312
20532WAT     H261839   3.823   1.953   9.291
20533WAT      O61840   7.063   0.046   7.262
20533WAT     H161841   7.049   0.144   7.275
20533WAT     H261842   7.079   0.003   7.351
20534WAT      O61843   4.672   8.814   8.478
20534WAT     H161844   4.757   8.852   8.514
20534WAT     H261845   4.606   8.803   8.552
20535WAT      O61846   9.693   5.593   3.049
20535WAT     H161847   9.691   5.533   2.969
20535WAT     H261848   9.659   5.543   3.128
20536WAT      O61849   6.166   8.660   9.560
20536WAT     H161850   6.222   8.589   9.517
20536WAT     H261851   6.225   8.724   9.609
20537WAT      O61852   9.019   1.638   1.841
20537WAT     H161853   9.094   1.645   1.906
20537WAT     H261854   9.020   1.547   1.800
20538WAT      O61855   8.208   1.617   3.033
20538WAT     H161856   8.277   1.627   3.105
20538WAT     H261857   8.232   1.676   2.956
20539WAT      O61858   4.806   9.222   3.934
20539WAT     H161859   4.733   9.263   3.879
20539WAT     H261860   4.893   9.229   3.885
20540WAT      O61861   7.775   2.673   4.207
20540WAT     H161862   7.704   2.670   4.137
20540WAT     H261863   7.782   2.584   4.252
20541WAT      O61864   5.378   3.481   3.209
20541WAT     H161865   5.374   3.545   3.132
20541WAT     H261866   5.467   3.491   3.255
20542WAT      O61867   2.407   5.508   0.181
20542WAT     H161868   2.358   5.580   0.131
20542WAT     H261869   2.345   5.464   0.245
20543WAT      O61870   7.351   3.267   3.828
20543WAT     H161871   7.376   3.172   3.807
20543WAT     H261872   7.257   3.270   3.862
20544WAT      O61873   2.484   0.211   6.795
20544WAT     H161874   2.486   0.268   6.877
20544WAT     H261875   2.570   0.160   6.788
20545WAT      O61876   7.734   7.480   5.889
20545WAT     H161877   7.701   7.553   5.948
20545WAT     H261878   7.657   7.436   5.843
20546WAT      O61879   3.280   1.609   8.621
20546WAT     H161880   3.226   1.569   8.695
20546WAT     H261881   3.293   1.541   8.548
20547WAT      O61882   7.678   9.423   4.625
20547WAT     H161883   7.685   9.323   4.617
20547WAT     H261884   7.672   9.448   4.721
20548WAT      O61885   6.117   7.514   6.573
20548WAT     H161886   6.120   7.417   6.547
20548WAT     H261887   6.208   7.544   6.601
20549WAT      O61888   3.383   5.084   9.217
20549WAT     H161889   3.356   5.100   9.312
20549WAT     H261890   3.444   5.005   9.212
20550WAT      O61891   1.944   2.804   9.496
20550WAT     H161892   2.022   2.767   9.547
20550WAT     H261893   1.880   2.730   9.474
20551WAT      O61894   1.872   1.809   5.075
20551WAT     H161895   1.855   1.749   4.997
20551WAT     H261896   1.824   1.773   5.156
20552WAT      O61897   5.396   7.854   4.449
20552WAT     H161898   5.416   7.937   4.502
20552WAT     H261899   5.471   7.837   4.385
20553WAT      O61900   0.261   0.247   3.893
20553WAT     H161901   0.354   0.222   3.867
20553WAT     H261902   0.220   0.303   3.822
20554WAT      O61903   3.005   3.346   4.552
20554WAT     H161904   2.950   3.421   4.516
20554WAT     H261905   3.098   3.378   4.570
20555WAT      O61906   6.445   5.002   1.313
20555WAT     H161907   6.465   5.086   1.365
20555WAT     H261908   6.502   5.000   1.231
20556WAT      O61909   1.347   8.395   3.235
20556WAT     H161910   1.359   8.407   3.136
20556WAT     H261911   1.262   8.440   3.263
20557WAT      O61912   2.623   8.891   7.179
20557WAT     H161913   2.712   8.926   7.150
20557WAT     H261914   2.590   8.944   7.258
20558WAT      O61915   3.722   3.972   4.618
20558WAT     H161916   3.762   3.973   4.709
20558WAT     H261917   3.734   4.062   4.575
20559WAT      O61918   6.400   2.929   5.279
20559WAT     H161919   6.393   2.847   5.336
20559WAT     H261920   6.486   2.976   5.297
20560WAT      O61921   7.608   4.961   5.642
20560WAT     H161922   7.635   4.941   5.736
20560WAT     H261923   7.683   4.936   5.580
20561WAT      O61924   1.623   0.673   7.026
20561WAT     H161925   1.699   0.735   7.045
20561WAT     H261926   1.538   0.724   7.018
20562WAT      O61927   5.802   6.273   6.952
20562WAT     H161928   5.718   6.315   6.919
20562WAT     H261929   5.787   6.236   7.044
20563WAT      O61930   3.661   8.976   2.641
20563WAT     H161931   3.603   9.022   2.709
20563WAT     H261932   3.674   8.880   2.668
20564WAT      O61933   2.215   5.750   5.129
20564WAT     H161934   2.195   5.727   5.224
20564WAT     H261935   2.142   5.715   5.070
20565WAT      O61936   8.569   8.603   2.889
20565WAT     H161937   8.483   8.555   2.871
20565WAT     H261938   8.591   8.596   2.986
20566WAT      O61939   5.973   6.781   4.042
20566WAT     H161940   5.921   6.839   4.104
20566WAT     H261941   5.928   6.692   4.033
20567WAT      O61942   4.961   3.284   1.367
20567WAT     H161943   5.011   3.222   1.426
20567WAT     H261944   4.998   3.377   1.377
20568WAT      O61945   5.335   6.292   1.533
20568WAT     H161946   5.283   6.371   1.501
20568WAT     H261947   5.382   6.249   1.456
20569WAT      O61948   7.981   1.246   3.258
20569WAT     H161949   7.902   1.285   3.306
20569WAT     H261950   8.065   1.277   3.302
20570WAT      O61951   3.726   2.892   4.652
20570WAT     H161952   3.664   2.877   4.575
20570WAT     H261953   3.821   2.890   4.619
20571WAT      O61954   8.045   2.770   3.029
20571WAT     H161955   7.984   2.760   3.108
20571WAT     H261956   8.098   2.854   3.038
20572WAT      O61957   4.682   8.091   8.060
20572WAT     H161958   4.728   8.044   8.135
20572WAT     H261959   4.742   8.162   8.024
20573WAT      O61960   8.762   9.697   7.667
20573WAT     H161961   8.668   9.682   7.639
20573WAT     H261962   8.779   9.650   7.754
20574WAT      O61963   1.674   0.611   3.873
20574WAT     H161964   1.676   0.563   3.960
20574WAT     H261965   1.702   0.706   3.886
20575WAT      O61966   6.984   6.815   7.455
20575WAT     H161967   6.985   6.912   7.432
20575WAT     H261968   6.902   6.793   7.507
20576WAT      O61969   5.784   4.804   9.233
20576WAT     H161970   5.749   4.826   9.143
20576WAT     H261971   5.836   4.718   9.229
20577WAT      O61972   5.052   2.154   4.322
20577WAT     H161973   4.988   2.077   4.316
20577WAT     H261974   5.016   2.221   4.388
20578WAT      O61975   9.341   0.152   4.485
20578WAT     H161976   9.364   0.067   4.438
20578WAT     H261977   9.249   0.181   4.459
20579WAT      O61978   4.451   0.014   5.636
20579WAT     H161979   4.451  -0.073   5.686
20579WAT     H261980   4.499   0.002   5.549
20580WAT      O61981   8.866   4.229   5.306
20580WAT     H161982   8.819   4.144   5.327
20580WAT     H261983   8.878   4.283   5.390
20581WAT      O61984   3.210   8.831   9.701
20581WAT     H161985   3.286   8.895   9.694
20581WAT     H261986   3.127   8.879   9.727
20582WAT      O61987   4.547   5.057   6.553
20582WAT     H161988   4.625   5.012   6.509
20582WAT     H261989   4.532   5.147   6.511
20583WAT      O61990   6.165   5.720   8.518
20583WAT     H161991   6.259   5.692   8.534
20583WAT     H261992   6.103   5.666   8.575
20584WAT      O61993   5.827   2.220   7.162
20584WAT     H161994   5.833   2.123   7.139
20584WAT     H261995   5.859   2.275   7.084
20585WAT      O61996   6.536   1.618   4.531
20585WAT     H161997   6.603   1.661   4.591
20585WAT     H261998   6.475   1.559   4.584
20586WAT      O61999   4.475   7.291   1.782
20586WAT     H162000   4.421   7.219   1.738
20586WAT     H262001   4.430   7.379   1.768
20587WAT      O62002   6.295   9.222   2.470
20587WAT     H162003   6.224   9.232   2.539
20587WAT     H262004   6.384   9.246   2.510
20588WAT      O62005   5.936   8.653   1.714
20588WAT     H162006   6.022   8.701   1.729
20588WAT     H262007   5.871   8.713   1.667
20589WAT      O62008   0.525   4.787   7.003
20589WAT     H162009   0.561   4.707   6.955
20589WAT     H262010   0.600   4.836   7.049
20590WAT      O62011   3.987   1.594   7.810
20590WAT     H162012   4.069   1.599   7.868
20590WAT     H262013   3.949   1.502   7.815
20591WAT      O62014   1.406   0.679   8.806
20591WAT     H162015   1.372   0.748   8.742
20591WAT     H262016   1.460   0.724   8.878
20592WAT      O62017   9.486   8.204   8.067
20592WAT     H162018   9.528   8.179   7.980
20592WAT     H262019   9.532   8.156   8.142
20593WAT      O62020   2.204   4.871   4.416
20593WAT     H162021   2.218   4.946   4.351
20593WAT     H262022   2.256   4.791   4.386
20594WAT      O62023   1.130   5.659   4.106
20594WAT     H162024   1.104   5.747   4.144
20594WAT     H262025   1.053   5.596   4.112
20595WAT      O62026   8.345   5.342   4.729
20595WAT     H162027   8.271   5.294   4.776
20595WAT     H262028   8.396   5.397   4.795
20596WAT      O62029   6.373   9.476   5.452
20596WAT     H162030   6.343   9.381   5.458
20596WAT     H262031   6.308   9.535   5.500
20597WAT      O62032   8.124   2.688   3.801
20597WAT     H162033   8.105   2.761   3.736
20597WAT     H262034   8.175   2.615   3.754
20598WAT      O62035   3.871   0.596   3.747
20598WAT     H162036   3.800   0.587   3.817
20598WAT     H262037   3.952   0.545   3.776
20599WAT      O62038   8.204   3.789   6.125
20599WAT     H162039   8.254   3.858   6.178
20599WAT     H262040   8.226   3.699   6.161
20600WAT      O62041   9.008   7.182   1.887
20600WAT     H162042   9.051   7.272   1.887
20600WAT     H262043   9.050   7.125   1.817
20601WAT      O62044   7.885   3.547   8.995
20601WAT     H162045   7.850   3.547   9.088
20601WAT     H262046   7.814   3.578   8.932
20602WAT      O62047   5.519   5.592   1.488
20602WAT     H162048   5.587   5.531   1.528
20602WAT     H262049   5.445   5.538   1.448
20603WAT      O62050   4.401   3.359   2.719
20603WAT     H162051   4.484   3.338   2.771
20603WAT     H262052   4.427   3.390   2.627
20604WAT      O62053   5.567   8.229   0.562
20604WAT     H162054   5.658   8.270   0.567
20604WAT     H262055   5.528   8.224   0.654
20605WAT      O62056   6.654   7.859   5.202
20605WAT     H162057   6.609   7.933   5.252
20605WAT     H262058   6.684   7.788   5.265
20606WAT      O62059   7.694   1.142   8.821
20606WAT     H162060   7.781   1.094   8.807
20606WAT     H262061   7.698   1.194   8.906
20607WAT      O62062   6.978   6.402   4.835
20607WAT     H162063   6.987   6.499   4.859
20607WAT     H262064   7.060   6.372   4.787
20608WAT      O62065   5.411   4.811   4.251
20608WAT     H162066   5.404   4.898   4.299
20608WAT     H262067   5.455   4.825   4.163
20609WAT      O62068   0.779   0.777   2.342
20609WAT     H162069   0.768   0.687   2.300
20609WAT     H262070   0.818   0.841   2.275
20610WAT      O62071   3.516   7.073   2.199
20610WAT     H162072   3.601   7.046   2.243
20610WAT     H262073   3.508   7.028   2.111
20611WAT      O62074   4.710   1.721   1.698
20611WAT     H162075   4.671   1.634   1.668
20611WAT     H262076   4.657   1.758   1.774
20612WAT      O62077   2.098   2.238   9.684
20612WAT     H162078   2.006   2.257   9.718
20612WAT     H262079   2.165   2.250   9.757
20613WAT      O62080   7.859   2.973   1.469
20613WAT     H162081   7.877   2.943   1.563
20613WAT     H262082   7.801   2.907   1.423
20614WAT      O62083   1.541   3.809   8.324
20614WAT     H162084   1.575   3.888   8.273
20614WAT     H262085   1.532   3.731   8.262
20615WAT      O62086   2.008   7.926   1.610
20615WAT     H162087   2.016   7.863   1.687
20615WAT     H262088   2.036   8.018   1.638
20616WAT      O62089   6.751   8.433   1.756
20616WAT     H162090   6.727   8.479   1.670
20616WAT     H262091   6.773   8.338   1.738
20617WAT      O62092   9.521   3.351   2.726
20617WAT     H162093   9.533   3.357   2.825
20617WAT     H262094   9.448   3.412   2.697
20618WAT      O62095   0.879   0.548   5.979
20618WAT     H162096   0.782   0.537   5.958
20618WAT     H262097   0.927   0.583   5.898
20619WAT      O62098   5.246   3.471   2.350
20619WAT     H162099   5.326   3.433   2.396
20619WAT     H262100   5.270   3.560   2.310
20620WAT      O62101   9.255   5.655   5.061
20620WAT     H162102   9.305   5.668   5.147
20620WAT     H262103   9.287   5.722   4.994
20621WAT      O62104   2.176   6.153   0.291
20621WAT     H162105   2.219   6.228   0.343
20621WAT     H262106   2.130   6.091   0.355
20622WAT      O62107   7.646   1.700   8.492
20622WAT     H162108   7.695   1.613   8.503
20622WAT     H262109   7.682   1.750   8.414
20623WAT      O62110   2.290   5.422   1.172
20623WAT     H162111   2.338   5.370   1.101
20623WAT     H262112   2.245   5.501   1.131
20624WAT      O62113   1.363   3.550   6.584
20624WAT     H162114   1.283   3.605   6.561
20624WAT     H262115   1.333   3.461   6.620
20625WAT      O62116   2.379   8.967   9.065
20625WAT     H162117   2.368   9.064   9.043
20625WAT     H262118   2.300   8.936   9.119
20626WAT      O62119   6.589   5.953   7.840
20626WAT     H162120   6.646   5.877   7.809
20626WAT     H262121   6.640   6.008   7.907
20627WAT      O62122   3.593   4.283   4.745
20627WAT     H162123   3.670   4.331   4.787
20627WAT     H262124   3.571   4.201   4.797
20628WAT      O62125   3.097   6.740   3.541
20628WAT     H162126   3.087   6.815   3.607
20628WAT     H262127   3.028   6.749   3.469
20629WAT      O62128   2.119   0.519   7.019
20629WAT     H162129   2.106   0.426   6.985
20629WAT     H262130   2.091   0.523   7.115
20630WAT      O62131   2.646   7.736   0.376
20630WAT     H162132   2.629   7.786   0.461
20630WAT     H262133   2.607   7.644   0.384
20631WAT      O62134   3.637   9.298   8.932
20631WAT     H162135   3.717   9.347   8.897
20631WAT     H262136   3.647   9.284   9.030
20632WAT      O62137   6.748   3.206   9.138
20632WAT     H162138   6.740   3.229   9.235
20632WAT     H262139   6.784   3.113   9.128
20633WAT      O62140   2.770   8.097   4.273
20633WAT     H162141   2.868   8.101   4.291
20633WAT     H262142   2.731   8.189   4.276
20634WAT      O62143   6.881   9.819   6.058
20634WAT     H162144   6.967   9.870   6.073
20634WAT     H262145   6.806   9.884   6.046
20635WAT      O62146   6.671   1.586   9.103
20635WAT     H162147   6.722   1.510   9.063
20635WAT     H262148   6.733   1.663   9.120
20636WAT      O62149   1.035   7.683   5.438
20636WAT     H162150   1.072   7.719   5.352
20636WAT     H262151   0.963   7.616   5.418
20637WAT      O62152   5.193   9.468   6.087
20637WAT     H162153   5.123   9.437   6.023
20637WAT     H262154   5.210   9.565   6.074
20638WAT      O62155   4.913   6.035   4.216
20638WAT     H162156   4.874   6.040   4.124
20638WAT     H262157   4.860   6.093   4.277
20639WAT      O62158   8.998   0.066   4.041
20639WAT     H162159   9.044   0.133   3.983
20639WAT     H262160   8.994   0.101   4.135
20640WAT      O62161   1.464   5.124   9.675
20640WAT     H162162   1.524   5.191   9.720
20640WAT     H262163   1.496   5.109   9.582
20641WAT      O62164   1.695   4.998   0.687
20641WAT     H162165   1.683   4.913   0.738
20641WAT     H262166   1.759   4.983   0.611
20642WAT      O62167   6.499   1.116   7.474
20642WAT     H162168   6.509   1.141   7.571
20642WAT     H262169   6.461   1.194   7.424
20643WAT      O62170   6.231   1.821   4.706
20643WAT     H162171   6.175   1.856   4.781
20643WAT     H262172   6.228   1.721   4.707
20644WAT      O62173   3.760   6.408   9.535
20644WAT     H162174   3.832   6.369   9.478
20644WAT     H262175   3.696   6.461   9.479
20645WAT      O62176   0.234   0.374   7.881
20645WAT     H162177   0.228   0.384   7.981
20645WAT     H262178   0.153   0.326   7.847
20646WAT      O62179   1.594   6.417   0.982
20646WAT     H162180   1.647   6.497   1.012
20646WAT     H262181   1.652   6.359   0.924
20647WAT      O62182   6.187   6.138   2.362
20647WAT     H162183   6.212   6.062   2.422
20647WAT     H262184   6.189   6.223   2.414
20648WAT      O62185   0.226   4.632   6.127
20648WAT     H162186   0.316   4.601   6.098
20648WAT     H262187   0.199   4.711   6.072
20649WAT      O62188   2.124   5.236   3.432
20649WAT     H162189   2.181   5.174   3.486
20649WAT     H262190   2.040   5.189   3.403
20650WAT      O62191   2.001   7.458   3.206
20650WAT     H162192   1.948   7.537   3.237
20650WAT     H262193   2.099   7.477   3.218
20651WAT      O62194   3.608   4.240   0.831
20651WAT     H162195   3.683   4.286   0.878
20651WAT     H262196   3.587   4.289   0.746
20652WAT      O62197   2.121   5.675   5.371
20652WAT     H162198   2.201   5.621   5.398
20652WAT     H262199   2.039   5.631   5.406
20653WAT      O62200   0.832   4.330   7.297
20653WAT     H162201   0.743   4.313   7.257
20653WAT     H262202   0.869   4.415   7.260
20654WAT      O62203   2.077   5.286   8.736
20654WAT     H162204   2.140   5.268   8.811
20654WAT     H262205   1.985   5.300   8.772
20655WAT      O62206   0.786   6.684   1.396
20655WAT     H162207   0.749   6.601   1.437
20655WAT     H262208   0.718   6.726   1.336
20656WAT      O62209   3.396   0.248   7.973
20656WAT     H162210   3.442   0.190   7.906
20656WAT     H262211   3.308   0.278   7.937
20657WAT      O62212   1.902   8.336   3.234
20657WAT     H162213   1.933   8.407   3.297
20657WAT     H262214   1.821   8.369   3.185
20658WAT      O62215   6.398   1.888   7.755
20658WAT     H162216   6.389   1.983   7.724
20658WAT     H262217   6.415   1.829   7.676
20659WAT      O62218   1.440   7.186   0.045
20659WAT     H162219   1.385   7.111   0.008
20659WAT     H262220   1.399   7.220   0.129
20660WAT      O62221   8.344   8.041   5.375
20660WAT     H162222   8.397   7.970   5.422
20660WAT     H262223   8.281   8.084   5.440
20661WAT      O62224   0.347   0.897   9.505
20661WAT     H162225   0.364   0.825   9.438
20661WAT     H262226   0.335   0.856   9.596
20662WAT      O62227   3.449   1.362   2.745
20662WAT     H162228   3.376   1.325   2.687
20662WAT     H262229   3.537   1.346   2.701
20663WAT      O62230   1.815   0.129   4.657
20663WAT     H162231   1.803   0.036   4.621
20663WAT     H262232   1.886   0.127   4.728
20664WAT      O62233   6.288   0.732   1.192
20664WAT     H162234   6.277   0.647   1.243
20664WAT     H262235   6.213   0.794   1.214
20665WAT      O62236   3.824   7.758   6.953
20665WAT     H162237   3.904   7.768   6.895
20665WAT     H262238   3.851   7.726   7.043
20666WAT      O62239   9.480   8.343   1.700
20666WAT     H162240   9.435   8.397   1.630
20666WAT     H262241   9.470   8.387   1.789
20667WAT      O62242   6.976   5.942   7.334
20667WAT     H162243   7.025   5.996   7.403
20667WAT     H262244   6.880   5.968   7.333
20668WAT      O62245   5.349   3.920   1.414
20668WAT     H162246   5.382   4.014   1.406
20668WAT     H262247   5.406   3.870   1.478
20669WAT      O62248   8.714   7.786   0.258
20669WAT     H162249   8.660   7.841   0.195
20669WAT     H262250   8.797   7.835   0.284
20670WAT      O62251   2.314   5.571   7.334
20670WAT     H162252   2.242   5.538   7.394
20670WAT     H262253   2.278   5.645   7.277
20671WAT      O62254   6.212   1.343   7.594
20671WAT     H162255   6.198   1.437   7.564
20671WAT     H262256   6.309   1.326   7.608
20672WAT      O62257   8.775   3.974   3.828
20672WAT     H162258   8.701   3.927   3.779
20672WAT     H262259   8.780   4.069   3.798
20673WAT      O62260   9.721   1.885   5.803
20673WAT     H162261   9.731   1.984   5.790
20673WAT     H262262   9.625   1.860   5.791
20674WAT      O62263   7.087   2.881   1.952
20674WAT     H162264   7.114   2.944   1.879
20674WAT     H262265   7.068   2.791   1.913
20675WAT      O62266   4.911   5.182   6.930
20675WAT     H162267   4.954   5.097   6.960
20675WAT     H262268   4.920   5.189   6.830
20676WAT      O62269   7.796   7.034   0.878
20676WAT     H162270   7.740   7.006   0.956
20676WAT     H262271   7.857   7.108   0.905
20677WAT      O62272   0.949   6.802   5.055
20677WAT     H162273   1.040   6.786   5.094
20677WAT     H262274   0.915   6.891   5.086
20678WAT      O62275   4.893   3.762   9.639
20678WAT     H162276   4.815   3.800   9.689
20678WAT     H262277   4.878   3.665   9.623
20679WAT      O62278   3.924   3.379   1.135
20679WAT     H162279   3.886   3.310   1.197
20679WAT     H262280   3.937   3.340   1.044
20680WAT      O62281   7.251   1.943   6.782
20680WAT     H162282   7.226   1.850   6.806
20680WAT     H262283   7.190   2.007   6.828
20681WAT      O62284   4.564   3.712   3.735
20681WAT     H162285   4.489   3.753   3.787
20681WAT     H262286   4.547   3.722   3.637
20682WAT      O62287   2.766   9.689   1.046
20682WAT     H162288   2.722   9.702   1.135
20682WAT     H262289   2.842   9.625   1.056
20683WAT      O62290   4.938   5.893   2.240
20683WAT     H162291   4.914   5.820   2.305
20683WAT     H262292   4.922   5.861   2.147
20684WAT      O62293   8.868   0.451   6.956
20684WAT     H162294   8.844   0.398   6.875
20684WAT     H262295   8.863   0.549   6.935
20685WAT      O62296   3.867   6.022   8.562
20685WAT     H162297   3.876   5.983   8.654
20685WAT     H262298   3.816   5.958   8.504
20686WAT      O62299   4.030   6.338   4.666
20686WAT     H162300   3.969   6.416   4.650
20686WAT     H262301   3.978   6.264   4.709
20687WAT      O62302   5.437   5.198   1.749
20687WAT     H162303   5.376   5.167   1.677
20687WAT     H262304   5.446   5.298   1.745
20688WAT      O62305   3.216   0.824   6.674
20688WAT     H162306   3.120   0.848   6.661
20688WAT     H262307   3.239   0.829   6.771
20689WAT      O62308   5.461   9.801   3.292
20689WAT     H162309   5.462   9.799   3.192
20689WAT     H262310   5.425   9.889   3.324
20690WAT      O62311   0.774   4.380   5.060
20690WAT     H162312   0.814   4.468   5.034
20690WAT     H262313   0.779   4.369   5.160
20691WAT      O62314   2.443   9.282   9.047
20691WAT     H162315   2.444   9.381   9.062
20691WAT     H262316   2.528   9.243   9.080
20692WAT      O62317   4.385   9.354   6.107
20692WAT     H162318   4.397   9.290   6.032
20692WAT     H262319   4.372   9.446   6.070
20693WAT      O62320   3.304   0.035   4.235
20693WAT     H162321   3.229  -0.019   4.197
20693WAT     H262322   3.305   0.126   4.192
20694WAT      O62323   1.027   5.549   0.218
20694WAT     H162324   1.065   5.540   0.310
20694WAT     H262325   0.928   5.538   0.222
20695WAT      O62326   8.246   9.572   9.437
20695WAT     H162327   8.226   9.527   9.524
20695WAT     H262328   8.173   9.637   9.416
20696WAT      O62329   1.507   9.213   8.926
20696WAT     H162330   1.495   9.311   8.935
20696WAT     H262331   1.601   9.189   8.952
20697WAT      O62332   0.811   1.985   0.713
20697WAT     H162333   0.714   2.009   0.719
20697WAT     H262334   0.820   1.893   0.676
20698WAT      O62335   4.925   7.685   4.869
20698WAT     H162336   4.907   7.677   4.967
20698WAT     H262337   5.001   7.748   4.854
20699WAT      O62338   5.743   4.896   6.273
20699WAT     H162339   5.700   4.987   6.274
20699WAT     H262340   5.680   4.830   6.233
20700WAT      O62341   0.191   2.277   9.834
20700WAT     H162342   0.096   2.305   9.849
20700WAT     H262343   0.221   2.309   9.744
20701WAT      O62344   8.727   0.523   6.438
20701WAT     H162345   8.813   0.575   6.441
20701WAT     H262346   8.650   0.586   6.451
20702WAT      O62347   1.557   5.870   9.324
20702WAT     H162348   1.602   5.944   9.375
20702WAT     H262349   1.529   5.904   9.235
20703WAT      O62350   6.639   9.515   8.296
20703WAT     H162351   6.581   9.511   8.215
20703WAT     H262352   6.696   9.433   8.300
20704WAT      O62353   3.190   0.439   0.453
20704WAT     H162354   3.255   0.503   0.413
20704WAT     H262355   3.193   0.352   0.403
20705WAT      O62356   1.872   6.396   2.725
20705WAT     H162357   1.935   6.405   2.803
20705WAT     H262358   1.859   6.299   2.705
20706WAT      O62359   4.067   4.356   2.746
20706WAT     H162360   4.074   4.311   2.836
20706WAT     H262361   4.114   4.301   2.677
20707WAT      O62362   3.341   5.818   0.660
20707WAT     H162363   3.345   5.850   0.755
20707WAT     H262364   3.339   5.897   0.599
20708WAT      O62365   3.430   7.558   3.443
20708WAT     H162366   3.514   7.546   3.390
20708WAT     H262367   3.395   7.650   3.429
20709WAT      O62368   4.333   9.300   7.115
20709WAT     H162369   4.390   9.297   7.033
20709WAT     H262370   4.358   9.381   7.169
20710WAT      O62371   0.240   3.262   8.156
20710WAT     H162372   0.204   3.355   8.159
20710WAT     H262373   0.322   3.259   8.099
20711WAT      O62374   1.429   9.304   8.254
20711WAT     H162375   1.457   9.280   8.161
20711WAT     H262376   1.502   9.358   8.297
20712WAT      O62377   2.771   9.215   4.454
20712WAT     H162378   2.853   9.240   4.403
20712WAT     H262379   2.782   9.241   4.549
20713WAT      O62380   1.104   3.944   2.970
20713WAT     H162381   1.012   3.955   2.933
20713WAT     H262382   1.100   3.943   3.070
20714WAT      O62383   9.355   1.360   3.277
20714WAT     H162384   9.388   1.363   3.372
20714WAT     H262385   9.255   1.357   3.277
20715WAT      O62386   4.170   1.918   6.665
20715WAT     H162387   4.085   1.970   6.659
20715WAT     H262388   4.243   1.968   6.620
20716WAT      O62389   5.855   6.369   9.264
20716WAT     H162390   5.778   6.419   9.304
20716WAT     H262391   5.830   6.273   9.251
20717WAT      O62392   5.495   3.945   2.916
20717WAT     H162393   5.418   3.995   2.877
20717WAT     H262394   5.570   3.940   2.850
20718WAT      O62395   7.736   3.163   1.624
20718WAT     H162396   7.710   3.238   1.563
20718WAT     H262397   7.799   3.102   1.576
20719WAT      O62398   7.982   6.616   9.167
20719WAT     H162399   8.014   6.658   9.252
20719WAT     H262400   7.955   6.522   9.185
20720WAT      O62401   0.079   8.063   7.538
20720WAT     H162402   0.106   7.973   7.505
20720WAT     H262403   0.111   8.075   7.632
20721WAT      O62404   5.808   3.721   3.205
20721WAT     H162405   5.776   3.805   3.249
20721WAT     H262406   5.901   3.734   3.172
20722WAT      O62407   8.556   1.821   7.504
20722WAT     H162408   8.650   1.855   7.502
20722WAT     H262409   8.502   1.876   7.568
20723WAT      O62410   2.720   1.208   5.220
20723WAT     H162411   2.730   1.301   5.254
20723WAT     H262412   2.801   1.183   5.167
20724WAT      O62413   6.641   8.117   7.577
20724WAT     H162414   6.611   8.135   7.483
20724WAT     H262415   6.628   8.021   7.599
20725WAT      O62416   2.623   2.475   2.833
20725WAT     H162417   2.550   2.417   2.798
20725WAT     H262418   2.711   2.443   2.798
20726WAT      O62419   4.833   4.102   7.210
20726WAT     H162420   4.832   4.201   7.223
20726WAT     H262421   4.882   4.080   7.125
20727WAT      O62422   0.832   6.421   6.367
20727WAT     H162423   0.832   6.409   6.267
20727WAT     H262424   0.758   6.367   6.407
20728WAT      O62425   5.045   9.732   5.126
20728WAT     H162426   5.110   9.730   5.202
20728WAT     H262427   5.004   9.823   5.120
20729WAT      O62428   1.729   0.265   7.243
20729WAT     H162429   1.665   0.237   7.172
20729WAT     H262430   1.730   0.365   7.250
20730WAT      O62431   1.754   2.850   4.585
20730WAT     H162432   1.699   2.869   4.504
20730WAT     H262433   1.811   2.769   4.568
20731WAT      O62434   2.828   5.769   4.381
20731WAT     H162435   2.919   5.785   4.417
20731WAT     H262436   2.762   5.762   4.456
20732WAT      O62437   0.143   9.795   6.435
20732WAT     H162438   0.063   9.743   6.405
20732WAT     H262439   0.161   9.869   6.370
20733WAT      O62440   0.681   8.123   8.575
20733WAT     H162441   0.646   8.143   8.484
20733WAT     H262442   0.666   8.202   8.635
20734WAT      O62443   9.621   1.481   7.389
20734WAT     H162444   9.642   1.500   7.294
20734WAT     H262445   9.576   1.560   7.431
20735WAT      O62446   8.830   1.725   5.116
20735WAT     H162447   8.863   1.813   5.082
20735WAT     H262448   8.868   1.708   5.207
20736WAT      O62449   2.385   8.177   1.534
20736WAT     H162450   2.403   8.095   1.480
20736WAT     H262451   2.338   8.245   1.477
20737WAT      O62452   0.462   6.085   4.350
20737WAT     H162453   0.400   6.127   4.284
20737WAT     H262454   0.433   6.109   4.443
20738WAT      O62455   4.347   9.003   2.597
20738WAT     H162456   4.356   9.076   2.664
20738WAT     H262457   4.332   8.916   2.644
20739WAT      O62458   4.850   5.253   1.430
20739WAT     H162459   4.944   5.266   1.400
20739WAT     H262460   4.822   5.158   1.413
20740WAT      O62461   3.412   5.242   1.529
20740WAT     H162462   3.439   5.254   1.625
20740WAT     H262463   3.324   5.196   1.525
20741WAT      O62464   0.880   5.652   8.665
20741WAT     H162465   0.953   5.706   8.708
20741WAT     H262466   0.887   5.557   8.693
20742WAT      O62467   0.979   3.393   6.412
20742WAT     H162468   0.966   3.440   6.499
20742WAT     H262469   0.910   3.424   6.347
20743WAT      O62470   0.613   5.282   0.533
20743WAT     H162471   0.561   5.206   0.493
20743WAT     H262472   0.686   5.308   0.471
20744WAT      O62473   1.423   7.930   4.875
20744WAT     H162474   1.515   7.961   4.898
20744WAT     H262475   1.421   7.830   4.873
20745WAT      O62476   3.274   0.795   2.027
20745WAT     H162477   3.320   0.827   1.945
20745WAT     H262478   3.326   0.720   2.069
20746WAT      O62479   5.099   3.357   3.812
20746WAT     H162480   5.137   3.416   3.883
20746WAT     H262481   5.171   3.334   3.746
20747WAT      O62482   5.654   5.101   3.951
20747WAT     H162483   5.692   5.012   3.927
20747WAT     H262484   5.727   5.160   3.985
20748WAT      O62485   1.729   1.816   2.330
20748WAT     H162486   1.713   1.878   2.407
20748WAT     H262487   1.753   1.725   2.364
20749WAT      O62488   8.915   7.547   7.952
20749WAT     H162489   8.941   7.631   8.000
20749WAT     H262490   8.950   7.468   8.001
20750WAT      O62491   8.036   0.389   9.635
20750WAT     H162492   8.001   0.342   9.716
20750WAT     H262493   7.959   0.416   9.576
20751WAT      O62494   6.774   4.467   8.543
20751WAT     H162495   6.867   4.472   8.505
20751WAT     H262496   6.730   4.383   8.513
20752WAT      O62497   3.252   8.994   1.684
20752WAT     H162498   3.160   8.969   1.714
20752WAT     H262499   3.277   9.082   1.723
20753WAT      O62500   2.649   9.263   1.349
20753WAT     H162501   2.636   9.329   1.274
20753WAT     H262502   2.725   9.203   1.327
20754WAT      O62503   1.519   4.754   8.142
20754WAT     H162504   1.614   4.770   8.170
20754WAT     H262505   1.457   4.804   8.203
20755WAT      O62506   7.107   8.629   0.029
20755WAT     H162507   7.191   8.681   0.010
20755WAT     H262508   7.038   8.691   0.066
20756WAT      O62509   6.117   8.611   6.341
20756WAT     H162510   6.217   8.617   6.332
20756WAT     H262511   6.094   8.537   6.405
20757WAT      O62512   7.348   5.231   2.850
20757WAT     H162513   7.307   5.291   2.919
20757WAT     H262514   7.430   5.188   2.887
20758WAT      O62515   9.886   2.509   6.326
20758WAT     H162516   9.836   2.499   6.412
20758WAT     H262517   9.933   2.598   6.325
20759WAT      O62518   0.357   5.176   9.219
20759WAT     H162519   0.367   5.231   9.302
20759WAT     H262520   0.267   5.192   9.179
20760WAT      O62521   1.256   8.231   7.204
20760WAT     H162522   1.296   8.168   7.270
20760WAT     H262523   1.217   8.178   7.128
20761WAT      O62524   7.001   2.215   0.177
20761WAT     H162525   6.906   2.245   0.177
20761WAT     H262526   7.053   2.269   0.110
20762WAT      O62527   3.128   6.383   2.756
20762WAT     H162528   3.104   6.384   2.853
20762WAT     H262529   3.178   6.300   2.734
20763WAT      O62530   8.009   6.558   0.325
20763WAT     H162531   8.031   6.472   0.279
20763WAT     H262532   7.910   6.571   0.328
20764WAT      O62533   6.126   4.449   7.007
20764WAT     H162534   6.092   4.517   6.942
20764WAT     H262535   6.141   4.493   7.096
20765WAT      O62536   0.005   6.161   0.045
20765WAT     H162537  -0.027   6.212   0.124
20765WAT     H262538  -0.007   6.216  -0.038
20766WAT      O62539   0.697   3.679   9.776
20766WAT     H162540   0.696   3.697   9.677
20766WAT     H262541   0.687   3.581   9.792
20767WAT      O62542   8.781   2.413   2.645
20767WAT     H162543   8.783   2.327   2.594
20767WAT     H262544   8.811   2.397   2.739
20768WAT      O62545   7.246   7.162   2.975
20768WAT     H162546   7.274   7.072   2.940
20768WAT     H262547   7.169   7.197   2.922
20769WAT      O62548   3.755   3.503   7.347
20769WAT     H162549   3.827   3.539   7.288
20769WAT     H262550   3.721   3.417   7.310
20770WAT      O62551   1.556   9.635   7.680
20770WAT     H162552   1.498   9.699   7.730
20770WAT     H262553   1.505   9.597   7.603
20771WAT      O62554   8.485   7.464   5.721
20771WAT     H162555   8.573   7.450   5.767
20771WAT     H262556   8.446   7.376   5.697
20772WAT      O62557   6.898   2.056   7.692
20772WAT     H162558   6.811   2.056   7.741
20772WAT     H262559   6.966   2.005   7.745
20773WAT      O62560   7.636   4.456   5.389
20773WAT     H162561   7.719   4.502   5.358
20773WAT     H262562   7.556   4.507   5.356
20774WAT      O62563   4.447   7.006   1.666
20774WAT     H162564   4.353   7.038   1.669
20774WAT     H262565   4.462   6.941   1.741
20775WAT      O62566   1.715   4.387   0.468
20775WAT     H162567   1.783   4.315   0.481
20775WAT     H262568   1.738   4.466   0.525
20776WAT      O62569   5.465   5.476   5.507
20776WAT     H162570   5.507   5.419   5.436
20776WAT     H262571   5.469   5.572   5.479
20777WAT      O62572   0.271   9.664   7.586
20777WAT     H162573   0.237   9.754   7.559
20777WAT     H262574   0.362   9.650   7.547
20778WAT      O62575   3.849   4.481   5.831
20778WAT     H162576   3.754   4.450   5.828
20778WAT     H262577   3.884   4.472   5.924
20779WAT      O62578   2.337   3.286   8.101
20779WAT     H162579   2.382   3.373   8.122
20779WAT     H262580   2.239   3.301   8.090
20780WAT      O62581   9.654   2.939   5.928
20780WAT     H162582   9.666   2.843   5.902
20780WAT     H262583   9.742   2.986   5.922
20781WAT      O62584   9.420   7.098   5.295
20781WAT     H162585   9.410   7.050   5.208
20781WAT     H262586   9.386   7.192   5.286
20782WAT      O62587   1.444   4.675   4.855
20782WAT     H162588   1.404   4.674   4.763
20782WAT     H262589   1.412   4.595   4.905
20783WAT      O62590   2.486   9.653   4.211
20783WAT     H162591   2.555   9.612   4.270
20783WAT     H262592   2.428   9.581   4.172
20784WAT      O62593   9.486   4.494   7.429
20784WAT     H162594   9.415   4.564   7.417
20784WAT     H262595   9.449   4.404   7.405
20785WAT      O62596   6.062   1.642   1.216
20785WAT     H162597   5.999   1.716   1.194
20785WAT     H262598   6.012   1.566   1.256
20786WAT      O62599   5.600   8.987   8.990
20786WAT     H162600   5.626   9.083   8.998
20786WAT     H262601   5.679   8.929   9.008
20787WAT      O62602   9.529   1.441   8.903
20787WAT     H162603   9.524   1.492   8.989
20787WAT     H262604   9.574   1.498   8.834
20788WAT      O62605   2.902   3.376   6.608
20788WAT     H162606   2.971   3.401   6.540
20788WAT     H262607   2.811   3.391   6.569
20789WAT      O62608   3.185   4.384   4.448
20789WAT     H162609   3.257   4.421   4.508
20789WAT     H262610   3.202   4.287   4.431
20790WAT      O62611   8.137   4.085   0.887
20790WAT     H162612   8.207   4.094   0.957
20790WAT     H262613   8.178   4.096   0.796
20791WAT      O62614   3.971   5.405   8.527
20791WAT     H162615   3.895   5.385   8.465
20791WAT     H262616   3.975   5.335   8.598
20792WAT      O62617   4.818   8.403   3.027
20792WAT     H162618   4.853   8.429   2.936
20792WAT     H262619   4.879   8.439   3.097
20793WAT      O62620   2.184   3.278   1.535
20793WAT     H162621   2.215   3.362   1.490
20793WAT     H262622   2.244   3.257   1.612
20794WAT      O62623   8.303   7.073   2.549
20794WAT     H162624   8.226   7.123   2.588
20794WAT     H262625   8.389   7.113   2.582
20795WAT      O62626   3.765   7.253   0.533
20795WAT     H162627   3.863   7.263   0.551
20795WAT     H262628   3.749   7.260   0.435
20796WAT      O62629   4.195   3.081   4.233
20796WAT     H162630   4.169   3.101   4.327
20796WAT     H262631   4.209   3.166   4.182
20797WAT      O62632   4.265   9.752   0.187
20797WAT     H162633   4.309   9.825   0.135
20797WAT     H262634   4.213   9.792   0.263
20798WAT      O62635   1.798   4.901   9.608
20798WAT     H162636   1.863   4.834   9.644
20798WAT     H262637   1.759   4.866   9.523
20799WAT      O62638   9.433   3.676   0.092
20799WAT     H162639   9.420   3.638   0.184
20799WAT     H262640   9.363   3.639   0.030
20800WAT      O62641   4.936   2.133   7.702
20800WAT     H162642   4.972   2.172   7.617
20800WAT     H262643   4.989   2.168   7.780
20801WAT      O62644   9.104   8.257   6.091
20801WAT     H162645   9.126   8.161   6.108
20801WAT     H262646   9.074   8.268   5.996
20802WAT      O62647   6.569   6.922   6.780
20802WAT     H162648   6.624   6.998   6.815
20802WAT     H262649   6.475   6.953   6.765
20803WAT      O62650   3.595   7.398   2.174
20803WAT     H162651   3.536   7.324   2.143
20803WAT     H262652   3.618   7.385   2.271
20804WAT      O62653   2.706   7.809   9.025
20804WAT     H162654   2.649   7.871   8.971
20804WAT     H262655   2.653   7.773   9.101
20805WAT      O62656   6.886   9.183   8.051
20805WAT     H162657   6.861   9.232   7.967
20805WAT     H262658   6.974   9.137   8.038
20806WAT      O62659   6.677   2.373   8.429
20806WAT     H162660   6.666   2.295   8.367
20806WAT     H262661   6.588   2.415   8.445
20807WAT      O62662   4.005   1.828   1.966
20807WAT     H162663   3.916   1.793   1.937
20807WAT     H262664   4.002   1.851   2.063
20808WAT      O62665   7.392   8.427   1.080
20808WAT     H162666   7.432   8.344   1.044
20808WAT     H262667   7.310   8.450   1.028
20809WAT      O62668   4.605   5.590   8.237
20809WAT     H162669   4.540   5.665   8.222
20809WAT     H262670   4.695   5.628   8.258
20810WAT      O62671   5.193   8.788   7.470
20810WAT     H162672   5.276   8.839   7.451
20810WAT     H262673   5.117   8.852   7.483
20811WAT      O62674   0.458   7.858   6.190
20811WAT     H162675   0.413   7.870   6.279
20811WAT     H262676   0.557   7.863   6.201
20812WAT      O62677   4.657   0.574   3.047
20812WAT     H162678   4.662   0.646   2.977
20812WAT     H262679   4.742   0.573   3.099
20813WAT      O62680   3.212   6.195   2.151
20813WAT     H162681   3.152   6.215   2.229
20813WAT     H262682   3.178   6.242   2.070
20814WAT      O62683   3.904   6.270   9.119
20814WAT     H162684   3.955   6.295   9.036
20814WAT     H262685   3.947   6.191   9.162
20815WAT      O62686   7.937   6.935   0.487
20815WAT     H162687   7.932   6.859   0.552
20815WAT     H262688   8.013   6.995   0.512
20816WAT      O62689   1.008   3.169   4.452
20816WAT     H162690   0.975   3.262   4.436
20816WAT     H262691   1.095   3.156   4.404
20817WAT      O62692   4.492   3.515   1.760
20817WAT     H162693   4.463   3.570   1.682
20817WAT     H262694   4.583   3.476   1.741
20818WAT      O62695   6.905   9.010   2.987
20818WAT     H162696   6.805   9.009   2.990
20818WAT     H262697   6.942   8.983   3.076
20819WAT      O62698   2.103   1.634   8.924
20819WAT     H162699   2.197   1.629   8.890
20819WAT     H262700   2.091   1.717   8.978
20820WAT      O62701   3.494   4.006   2.180
20820WAT     H162702   3.575   4.060   2.203
20820WAT     H262703   3.419   4.032   2.239
20821WAT      O62704   6.586   9.011   7.749
20821WAT     H162705   6.653   8.938   7.734
20821WAT     H262706   6.572   9.062   7.664
20822WAT      O62707   6.749   3.074   6.231
20822WAT     H162708   6.760   2.980   6.264
20822WAT     H262709   6.762   3.076   6.132
20823WAT      O62710   8.578   6.687   9.290
20823WAT     H162711   8.573   6.596   9.330
20823WAT     H262712   8.495   6.705   9.236
20824WAT      O62713   4.947   0.459   5.652
20824WAT     H162714   4.951   0.512   5.737
20824WAT     H262715   4.853   0.453   5.620
20825WAT      O62716   6.398   4.781   2.414
20825WAT     H162717   6.494   4.757   2.429
20825WAT     H262718   6.371   4.756   2.321
20826WAT      O62719   3.147   5.323   4.991
20826WAT     H162720   3.235   5.279   5.009
20826WAT     H262721   3.147   5.415   5.030
20827WAT      O62722   0.382   7.502   2.582
20827WAT     H162723   0.426   7.560   2.514
20827WAT     H262724   0.293   7.473   2.548
20828WAT      O62725   5.886   3.134   9.728
20828WAT     H162726   5.883   3.036   9.747
20828WAT     H262727   5.961   3.153   9.664
20829WAT      O62728   6.180   9.533   8.481
20829WAT     H162729   6.204   9.629   8.494
20829WAT     H262730   6.241   9.492   8.413
20830WAT      O62731   9.442   7.595   8.608
20830WAT     H162732   9.479   7.503   8.616
20830WAT     H262733   9.410   7.611   8.515
20831WAT      O62734   2.688   3.318   3.958
20831WAT     H162735   2.641   3.357   3.879
20831WAT     H262736   2.652   3.227   3.978
20832WAT      O62737   2.398   8.540   6.832
20832WAT     H162738   2.304   8.532   6.864
20832WAT     H262739   2.449   8.600   6.893
20833WAT      O62740   8.517   5.146   3.914
20833WAT     H162741   8.482   5.232   3.950
20833WAT     H262742   8.489   5.071   3.974
20834WAT      O62743   8.833   9.402   2.991
20834WAT     H162744   8.884   9.324   3.028
20834WAT     H262745   8.765   9.369   2.926
20835WAT      O62746   0.319   9.211   6.259
20835WAT     H162747   0.223   9.210   6.232
20835WAT     H262748   0.342   9.298   6.302
20836WAT      O62749   5.366   8.403   5.562
20836WAT     H162750   5.284   8.460   5.553
20836WAT     H262751   5.430   8.426   5.488
20837WAT      O62752   8.576   7.739   8.297
20837WAT     H162753   8.514   7.744   8.375
20837WAT     H262754   8.669   7.725   8.328
20838WAT      O62755   4.718   9.772   1.364
20838WAT     H162756   4.745   9.689   1.314
20838WAT     H262757   4.634   9.753   1.416
20839WAT      O62758   0.796   8.699   6.587
20839WAT     H162759   0.766   8.791   6.613
20839WAT     H262760   0.896   8.695   6.588
20840WAT      O62761   5.625   6.193   1.673
20840WAT     H162762   5.686   6.118   1.646
20840WAT     H262763   5.533   6.176   1.636
20841WAT      O62764   0.111   1.257   1.046
20841WAT     H162765   0.090   1.340   0.995
20841WAT     H262766   0.081   1.177   0.994
20842WAT      O62767   0.825   6.008   8.720
20842WAT     H162768   0.739   5.958   8.714
20842WAT     H262769   0.816   6.084   8.784
20843WAT      O62770   4.396   8.804   4.590
20843WAT     H162771   4.491   8.781   4.568
20843WAT     H262772   4.380   8.901   4.571
20844WAT      O62773   9.793   0.709   2.729
20844WAT     H162774   9.800   0.637   2.660
20844WAT     H262775   9.803   0.668   2.820
20845WAT      O62776   6.612   8.059   4.299
20845WAT     H162777   6.522   8.098   4.318
20845WAT     H262778   6.607   7.960   4.311
20846WAT      O62779   4.362   0.498   3.881
20846WAT     H162780   4.430   0.539   3.820
20846WAT     H262781   4.407   0.431   3.940
20847WAT      O62782   6.309   7.181   3.087
20847WAT     H162783   6.372   7.248   3.048
20847WAT     H262784   6.355   7.130   3.159
20848WAT      O62785   8.782   8.207   8.358
20848WAT     H162786   8.775   8.120   8.309
20848WAT     H262787   8.792   8.281   8.292
20849WAT      O62788   5.132   7.838   1.419
20849WAT     H162789   5.070   7.760   1.417
20849WAT     H262790   5.180   7.844   1.331
20850WAT      O62791   2.525   4.284   8.453
20850WAT     H162792   2.555   4.354   8.388
20850WAT     H262793   2.513   4.197   8.405
20851WAT      O62794   9.110   3.530   9.066
20851WAT     H162795   9.185   3.595   9.062
20851WAT     H262796   9.031   3.566   9.016
20852WAT      O62797   6.795   6.781   3.144
20852WAT     H162798   6.779   6.802   3.047
20852WAT     H262799   6.892   6.764   3.158
20853WAT      O62800   0.975   4.840   3.852
20853WAT     H162801   1.060   4.821   3.902
20853WAT     H262802   0.899   4.791   3.895
20854WAT      O62803   9.602   5.086   2.552
20854WAT     H162804   9.503   5.090   2.540
20854WAT     H262805   9.624   5.061   2.646
20855WAT      O62806   8.517   7.638   1.761
20855WAT     H162807   8.464   7.655   1.678
20855WAT     H262808   8.462   7.586   1.826
20856WAT      O62809   5.979   2.479   5.111
20856WAT     H162810   5.983   2.553   5.178
20856WAT     H262811   5.900   2.491   5.052
20857WAT      O62812   0.775   4.082   8.848
20857WAT     H162813   0.817   4.038   8.770
20857WAT     H262814   0.802   4.178   8.852
20858WAT      O62815   9.431   5.577   5.522
20858WAT     H162816   9.368   5.592   5.598
20858WAT     H262817   9.452   5.479   5.516
20859WAT      O62818   4.215   6.173   8.973
20859WAT     H162819   4.208   6.085   8.926
20859WAT     H262820   4.153   6.239   8.931
20860WAT      O62821   7.167   2.334   8.906
20860WAT     H162822   7.122   2.422   8.886
20860WAT     H262823   7.124   2.293   8.986
20861WAT      O62824   9.788   2.474   0.193
20861WAT     H162825   9.888   2.478   0.196
20861WAT     H262826   9.760   2.402   0.130
20862WAT      O62827   3.092   2.115   6.570
20862WAT     H162828   3.131   2.029   6.537
20862WAT     H262829   3.144   2.192   6.533
20863WAT      O62830   0.996   2.233   5.354
20863WAT     H162831   1.034   2.239   5.446
20863WAT     H262832   1.044   2.297   5.294
20864WAT      O62833   9.556   0.649   2.296
20864WAT     H162834   9.631   0.714   2.282
20864WAT     H262835   9.590   0.556   2.279
20865WAT      O62836   3.275   5.795   8.194
20865WAT     H162837   3.193   5.807   8.139
20865WAT     H262838   3.333   5.876   8.186
20866WAT      O62839   6.583   5.253   2.800
20866WAT     H162840   6.574   5.159   2.833
20866WAT     H262841   6.602   5.314   2.877
20867WAT      O62842   4.705   5.405   8.643
20867WAT     H162843   4.694   5.337   8.715
20867WAT     H262844   4.802   5.421   8.625
20868WAT      O62845   2.681   3.058   7.396
20868WAT     H162846   2.774   3.087   7.415
20868WAT     H262847   2.682   2.979   7.335
20869WAT      O62848   5.647   5.786   3.755
20869WAT     H162849   5.567   5.836   3.790
20869WAT     H262850   5.621   5.690   3.741
20870WAT      O62851   7.986   3.790   0.127
20870WAT     H162852   8.035   3.876   0.134
20870WAT     H262853   7.917   3.797   0.055
20871WAT      O62854   8.701   9.731   6.839
20871WAT     H162855   8.748   9.699   6.756
20871WAT     H262856   8.606   9.751   6.818
20872WAT      O62857   5.187   0.291   4.754
20872WAT     H162858   5.274   0.313   4.797
20872WAT     H262859   5.201   0.219   4.686
20873WAT      O62860   3.459   2.165   4.911
20873WAT     H162861   3.396   2.225   4.960
20873WAT     H262862   3.473   2.080   4.963
20874WAT      O62863   7.194   9.797   6.021
20874WAT     H162864   7.234   9.829   5.935
20874WAT     H262865   7.151   9.708   6.007
20875WAT      O62866   1.019   5.742   2.045
20875WAT     H162867   0.962   5.809   2.092
20875WAT     H262868   1.111   5.779   2.034
20876WAT      O62869   9.791   7.722   2.147
20876WAT     H162870   9.862   7.748   2.081
20876WAT     H262871   9.717   7.675   2.100
20877WAT      O62872   3.315   5.320   2.469
20877WAT     H162873   3.247   5.389   2.445
20877WAT     H262874   3.285   5.231   2.436
20878WAT      O62875   3.065   1.112   7.203
20878WAT     H162876   2.990   1.134   7.141
20878WAT     H262877   3.047   1.025   7.249
20879WAT      O62878   8.574   5.817   4.569
20879WAT     H162879   8.493   5.874   4.576
20879WAT     H262880   8.550   5.729   4.527
20880WAT      O62881   9.455   2.327   1.567
20880WAT     H162882   9.514   2.350   1.490
20880WAT     H262883   9.419   2.234   1.556
20881WAT      O62884   5.763   5.838   3.255
20881WAT     H162885   5.837   5.794   3.306
20881WAT     H262886   5.802   5.889   3.179
20882WAT      O62887   3.083   6.334   9.127
20882WAT     H162888   3.096   6.425   9.088
20882WAT     H262889   3.167   6.281   9.116
20883WAT      O62890   4.655   7.715   7.513
20883WAT     H162891   4.636   7.650   7.439
20883WAT     H262892   4.604   7.800   7.496
20884WAT      O62893   6.071   3.722   3.116
20884WAT     H162894   6.064   3.677   3.026
20884WAT     H262895   6.166   3.747   3.133
20885WAT      O62896   4.718   0.503   0.270
20885WAT     H162897   4.799   0.468   0.317
20885WAT     H262898   4.676   0.429   0.218
20886WAT      O62899   3.249   0.759   9.041
20886WAT     H162900   3.309   0.778   9.119
20886WAT     H262901   3.278   0.674   8.997
20887WAT      O62902   2.201   4.055   4.240
20887WAT     H162903   2.250   4.074   4.155
20887WAT     H262904   2.262   4.064   4.318
20888WAT      O62905   5.121   4.449   3.948
20888WAT     H162906   5.059   4.514   3.903
20888WAT     H262907   5.140   4.373   3.886
20889WAT      O62908   9.805   7.441   3.055
20889WAT     H162909   9.783   7.436   3.153
20889WAT     H262910   9.889   7.391   3.037
20890WAT      O62911   5.998   5.182   1.545
20890WAT     H162912   5.959   5.109   1.488
20890WAT     H262913   6.068   5.230   1.493
20891WAT      O62914   7.891   5.618   4.491
20891WAT     H162915   7.955   5.663   4.553
20891WAT     H262916   7.839   5.687   4.441
20892WAT      O62917   7.656   9.223   6.903
20892WAT     H162918   7.678   9.200   6.998
20892WAT     H262919   7.674   9.144   6.845
20893WAT      O62920   4.009   6.561   0.135
20893WAT     H162921   4.024   6.600   0.045
20893WAT     H262922   4.035   6.465   0.135
20894WAT      O62923   8.090   3.322   5.355
20894WAT     H162924   8.115   3.272   5.272
20894WAT     H262925   8.113   3.266   5.435
20895WAT      O62926   1.122   2.186   2.401
20895WAT     H162927   1.204   2.140   2.369
20895WAT     H262928   1.062   2.205   2.323
20896WAT      O62929   9.309   5.878   2.221
20896WAT     H162930   9.335   5.796   2.169
20896WAT     H262931   9.326   5.959   2.166
20897WAT      O62932   9.020   6.128   1.908
20897WAT     H162933   8.935   6.180   1.895
20897WAT     H262934   9.093   6.168   1.853
20898WAT      O62935   6.048   3.103   4.749
20898WAT     H162936   5.969   3.139   4.799
20898WAT     H262937   6.025   3.095   4.652
20899WAT      O62938   9.771   6.829   6.040
20899WAT     H162939   9.848   6.835   6.104
20899WAT     H262940   9.688   6.803   6.089
20900WAT      O62941   5.955   0.183   1.081
20900WAT     H162942   6.046   0.185   1.040
20900WAT     H262943   5.956   0.232   1.168
20901WAT      O62944   3.071   3.692   5.923
20901WAT     H162945   3.064   3.786   5.888
20901WAT     H262946   2.981   3.662   5.955
20902WAT      O62947   4.251   5.412   7.863
20902WAT     H162948   4.255   5.473   7.784
20902WAT     H262949   4.167   5.429   7.914
20903WAT      O62950   7.973   5.544   9.038
20903WAT     H162951   7.995   5.632   9.081
20903WAT     H262952   8.046   5.479   9.056
20904WAT      O62953   0.424   1.080   8.071
20904WAT     H162954   0.406   1.175   8.099
20904WAT     H262955   0.412   1.020   8.150
20905WAT      O62956   8.864   6.440   9.055
20905WAT     H162957   8.843   6.526   9.008
20905WAT     H262958   8.822   6.441   9.146
20906WAT      O62959   0.255   1.015   0.763
20906WAT     H162960   0.162   1.043   0.789
20906WAT     H262961   0.318   1.033   0.839
20907WAT      O62962   2.956   1.879   5.618
20907WAT     H162963   3.021   1.866   5.544
20907WAT     H262964   2.866   1.903   5.580
20908WAT      O62965   7.479   8.301   3.867
20908WAT     H162966   7.417   8.225   3.886
20908WAT     H262967   7.445   8.353   3.790
20909WAT      O62968   6.789   9.757   5.114
20909WAT     H162969   6.787   9.805   5.202
20909WAT     H262970   6.858   9.800   5.055
20910WAT      O62971   5.523   2.113   4.175
20910WAT     H162972   5.574   2.198   4.168
20910WAT     H262973   5.584   2.036   4.156
20911WAT      O62974   8.134   7.061   1.768
20911WAT     H162975   8.099   7.058   1.862
20911WAT     H262976   8.233   7.077   1.770
20912WAT      O62977   7.143   2.122   1.968
20912WAT     H162978   7.202   2.066   2.026
20912WAT     H262979   7.198   2.186   1.915
20913WAT      O62980   6.748   6.812   2.856
20913WAT     H162981   6.804   6.877   2.805
20913WAT     H262982   6.730   6.731   2.800
20914WAT      O62983   4.306   8.234   5.379
20914WAT     H162984   4.268   8.306   5.437
20914WAT     H262985   4.338   8.159   5.436
20915WAT      O62986   4.351   7.900   3.930
20915WAT     H162987   4.387   7.919   4.021
20915WAT     H262988   4.286   7.972   3.905
20916WAT      O62989   8.990   8.931   2.929
20916WAT     H162990   8.915   8.889   2.980
20916WAT     H262991   8.975   8.917   2.831
20917WAT      O62992   1.467   1.896   6.058
20917WAT     H162993   1.514   1.810   6.082
20917WAT     H262994   1.490   1.966   6.125
20918WAT      O62995   3.244   6.063   1.708
20918WAT     H162996   3.327   6.010   1.721
20918WAT     H262997   3.201   6.080   1.797
20919WAT      O62998   3.066   3.704   3.210
20919WAT     H162999   3.138   3.768   3.182
20919WAT     H263000   3.060   3.703   3.310
20920WAT      O63001   7.769   7.429   2.408
20920WAT     H163002   7.732   7.413   2.317
20920WAT     H263003   7.815   7.346   2.440
20921WAT      O63004   0.107   1.255   1.522
20921WAT     H163005   0.044   1.179   1.536
20921WAT     H263006   0.085   1.329   1.586
20922WAT      O63007   5.990   6.832   2.265
20922WAT     H163008   5.956   6.885   2.342
20922WAT     H263009   5.996   6.735   2.291
20923WAT      O63010   3.038   6.206   0.769
20923WAT     H163011   3.131   6.201   0.805
20923WAT     H263012   3.039   6.189   0.671
20924WAT      O63013   1.368   0.073   5.657
20924WAT     H163014   1.299   0.009   5.691
20924WAT     H263015   1.336   0.112   5.570
20925WAT      O63016   4.488   8.439   9.110
20925WAT     H163017   4.420   8.435   9.183
20925WAT     H263018   4.566   8.381   9.134
20926WAT      O63019   3.760   3.298   1.519
20926WAT     H163020   3.774   3.248   1.433
20926WAT     H263021   3.690   3.252   1.574
20927WAT      O63022   9.721   9.750   6.700
20927WAT     H163023   9.667   9.668   6.679
20927WAT     H263024   9.818   9.726   6.704
20928WAT      O63025   9.079   7.209   4.332
20928WAT     H163026   9.060   7.180   4.238
20928WAT     H263027   8.994   7.209   4.385
20929WAT      O63028   9.709   9.028   9.837
20929WAT     H163029   9.762   9.045   9.753
20929WAT     H263030   9.728   8.935   9.870
20930WAT      O63031   6.495   5.295   9.141
20930WAT     H163032   6.513   5.296   9.239
20930WAT     H263033   6.477   5.201   9.112
20931WAT      O63034   7.481   5.554   9.664
20931WAT     H163035   7.430   5.635   9.693
20931WAT     H263036   7.462   5.537   9.567
20932WAT      O63037   2.120   6.921   0.669
20932WAT     H163038   2.219   6.929   0.663
20932WAT     H263039   2.080   6.930   0.578
20933WAT      O63040   4.878   9.436   2.217
20933WAT     H163041   4.810   9.504   2.246
20933WAT     H263042   4.969   9.466   2.245
20934WAT      O63043   1.104   2.790   3.524
20934WAT     H163044   1.199   2.815   3.509
20934WAT     H263045   1.060   2.771   3.436
20935WAT      O63046   0.656   1.468   6.860
20935WAT     H163047   0.688   1.495   6.769
20935WAT     H263048   0.731   1.474   6.925
20936WAT      O63049   2.261   1.982   3.041
20936WAT     H163050   2.204   1.935   2.974
20936WAT     H263051   2.217   1.979   3.131
20937WAT      O63052   6.351   3.440   4.504
20937WAT     H163053   6.352   3.491   4.590
20937WAT     H263054   6.307   3.351   4.519
20938WAT      O63055   4.207   8.707   7.386
20938WAT     H163056   4.289   8.682   7.335
20938WAT     H263057   4.222   8.692   7.483
20939WAT      O63058   1.696   8.651   8.683
20939WAT     H163059   1.709   8.559   8.722
20939WAT     H263060   1.763   8.713   8.723
20940WAT      O63061   8.293   6.440   6.466
20940WAT     H163062   8.326   6.455   6.559
20940WAT     H263063   8.298   6.526   6.415
20941WAT      O63064   1.443   1.706   1.637
20941WAT     H163065   1.464   1.733   1.543
20941WAT     H263066   1.357   1.655   1.639
20942WAT      O63067   2.221   5.566   1.862
20942WAT     H163068   2.295   5.497   1.866
20942WAT     H263069   2.189   5.585   1.954
20943WAT      O63070   9.610   5.325   6.112
20943WAT     H163071   9.656   5.382   6.044
20943WAT     H263072   9.629   5.362   6.203
20944WAT      O63073   8.476   3.950   3.901
20944WAT     H163074   8.447   3.961   3.997
20944WAT     H263075   8.456   4.034   3.851
20945WAT      O63076   8.425   4.902   2.937
20945WAT     H163077   8.457   4.997   2.930
20945WAT     H263078   8.501   4.840   2.920
20946WAT      O63079   6.261   4.562   8.493
20946WAT     H163080   6.225   4.652   8.518
20946WAT     H263081   6.186   4.504   8.461
20947WAT      O63082   0.046   2.562   8.114
20947WAT     H163083   0.049   2.593   8.019
20947WAT     H263084  -0.022   2.489   8.123
20948WAT      O63085   3.691   0.497   0.215
20948WAT     H163086   3.741   0.550   0.147
20948WAT     H263087   3.755   0.457   0.281
20949WAT      O63088   4.876   7.420   9.336
20949WAT     H163089   4.944   7.355   9.370
20949WAT     H263090   4.859   7.402   9.239
20950WAT      O63091   4.837   2.774   0.637
20950WAT     H163092   4.755   2.811   0.593
20950WAT     H263093   4.869   2.837   0.707
20951WAT      O63094   3.114   4.441   7.587
20951WAT     H163095   3.157   4.391   7.512
20951WAT     H263096   3.051   4.509   7.550
20952WAT      O63097   1.094   7.595   1.847
20952WAT     H163098   1.013   7.562   1.798
20952WAT     H263099   1.074   7.599   1.945
20953WAT      O63100   8.757   1.032   5.595
20953WAT     H163101   8.705   1.043   5.680
20953WAT     H263102   8.741   0.941   5.558
20954WAT      O63103   6.144   2.077   0.677
20954WAT     H163104   6.142   2.100   0.579
20954WAT     H263105   6.077   2.005   0.695
20955WAT      O63106   7.036   5.036   0.388
20955WAT     H163107   7.105   5.051   0.318
20955WAT     H263108   7.080   5.030   0.478
20956WAT      O63109   7.687   3.008   6.673
20956WAT     H163110   7.615   3.047   6.729
20956WAT     H263111   7.776   3.027   6.715
20957WAT      O63112   3.153   6.660   5.744
20957WAT     H163113   3.182   6.564   5.745
20957WAT     H263114   3.130   6.688   5.837
20958WAT      O63115   1.170   5.500   8.849
20958WAT     H163116   1.172   5.412   8.896
20958WAT     H263117   1.097   5.556   8.887
20959WAT      O63118   2.779   8.435   2.383
20959WAT     H163119   2.742   8.470   2.469
20959WAT     H263120   2.827   8.349   2.400
20960WAT      O63121   5.223   9.671   1.861
20960WAT     H163122   5.283   9.680   1.781
20960WAT     H263123   5.213   9.760   1.905
20961WAT      O63124   4.856   3.460   5.840
20961WAT     H163125   4.941   3.500   5.875
20961WAT     H263126   4.779   3.491   5.896
20962WAT      O63127   6.773   9.444   0.712
20962WAT     H163128   6.840   9.405   0.648
20962WAT     H263129   6.820   9.508   0.773
20963WAT      O63130   8.342   9.357   6.769
20963WAT     H163131   8.436   9.331   6.747
20963WAT     H263132   8.331   9.362   6.868
20964WAT      O63133   8.695   1.642   9.740
20964WAT     H163134   8.736   1.697   9.812
20964WAT     H263135   8.767   1.592   9.691
20965WAT      O63136   9.718   3.277   7.048
20965WAT     H163137   9.744   3.194   6.999
20965WAT     H263138   9.724   3.356   6.987
20966WAT      O63139   7.665   2.800   1.274
20966WAT     H163140   7.613   2.776   1.356
20966WAT     H263141   7.674   2.720   1.215
20967WAT      O63142   2.070   9.323   4.862
20967WAT     H163143   2.122   9.237   4.864
20967WAT     H263144   2.060   9.353   4.768
20968WAT      O63145   1.434   6.373   2.552
20968WAT     H163146   1.456   6.276   2.545
20968WAT     H263147   1.508   6.421   2.599
20969WAT      O63148   7.639   7.709   6.014
20969WAT     H163149   7.549   7.751   6.001
20969WAT     H263150   7.708   7.781   6.020
20970WAT      O63151   8.234   1.997   6.944
20970WAT     H163152   8.296   2.049   6.885
20970WAT     H263153   8.258   2.013   7.040
20971WAT      O63154   8.466   5.604   5.664
20971WAT     H163155   8.499   5.609   5.570
20971WAT     H263156   8.504   5.522   5.708
20972WAT      O63157   7.661   7.958   5.516
20972WAT     H163158   7.657   7.900   5.596
20972WAT     H263159   7.609   7.916   5.441
20973WAT      O63160   3.558   1.908   4.444
20973WAT     H163161   3.517   1.999   4.446
20973WAT     H263162   3.610   1.897   4.359
20974WAT      O63163   4.156   9.419   6.476
20974WAT     H163164   4.198   9.363   6.405
20974WAT     H263165   4.217   9.426   6.555
20975WAT      O63166   5.897   7.140   9.717
20975WAT     H163167   5.917   7.055   9.668
20975WAT     H263168   5.934   7.218   9.665
20976WAT      O63169   4.395   0.768   6.738
20976WAT     H163170   4.429   0.674   6.738
20976WAT     H263171   4.432   0.816   6.818
20977WAT      O63172   8.821   5.389   6.619
20977WAT     H163173   8.917   5.389   6.590
20977WAT     H263174   8.763   5.366   6.541
20978WAT      O63175   7.173   5.289   0.405
20978WAT     H163176   7.171   5.211   0.342
20978WAT     H263177   7.152   5.257   0.497
20979WAT      O63178   6.526   4.369   7.127
20979WAT     H163179   6.604   4.428   7.144
20979WAT     H263180   6.503   4.318   7.210
20980WAT      O63181   8.968   5.663   8.586
20980WAT     H163182   8.958   5.762   8.591
20980WAT     H263183   9.021   5.639   8.504
20981WAT      O63184   2.841   0.385   8.103
20981WAT     H163185   2.779   0.446   8.054
20981WAT     H263186   2.837   0.294   8.062
20982WAT      O63187   3.643   3.721   4.521
20982WAT     H163188   3.717   3.661   4.551
20982WAT     H263189   3.660   3.814   4.554
20983WAT      O63190   8.386   5.863   8.632
20983WAT     H163191   8.348   5.955   8.636
20983WAT     H263192   8.317   5.796   8.660
20984WAT      O63193   3.738   2.839   7.369
20984WAT     H163194   3.813   2.874   7.425
20984WAT     H263195   3.651   2.856   7.416
20985WAT      O63196   5.459   4.436   7.356
20985WAT     H163197   5.361   4.426   7.369
20985WAT     H263198   5.505   4.431   7.445
20986WAT      O63199   0.223   2.622   2.152
20986WAT     H163200   0.160   2.549   2.177
20986WAT     H263201   0.314   2.600   2.187
20987WAT      O63202   1.804   7.500   4.693
20987WAT     H163203   1.785   7.598   4.701
20987WAT     H263204   1.799   7.473   4.597
20988WAT      O63205   6.381   2.219   8.554
20988WAT     H163206   6.340   2.279   8.622
20988WAT     H263207   6.446   2.157   8.598
20989WAT      O63208   8.217   1.193   0.843
20989WAT     H163209   8.303   1.143   0.831
20989WAT     H263210   8.146   1.153   0.785
20990WAT      O63211   5.420   2.080   1.446
20990WAT     H163212   5.506   2.063   1.397
20990WAT     H263213   5.371   2.155   1.401
20991WAT      O63214   5.075   5.607   6.100
20991WAT     H163215   5.075   5.546   6.021
20991WAT     H263216   5.158   5.592   6.153
20992WAT      O63217   0.941   8.839   0.902
20992WAT     H163218   0.943   8.809   0.807
20992WAT     H263219   0.876   8.914   0.912
20993WAT      O63220   3.434   4.039   9.659
20993WAT     H163221   3.439   4.122   9.716
20993WAT     H263222   3.514   4.036   9.599
20994WAT      O63223   1.900   0.075   7.829
20994WAT     H163224   1.812   0.098   7.786
20994WAT     H263225   1.907   0.121   7.917
20995WAT      O63226   3.344   8.356   5.065
20995WAT     H163227   3.304   8.429   5.120
20995WAT     H263228   3.441   8.348   5.086
20996WAT      O63229   3.372   9.355   4.741
20996WAT     H163230   3.305   9.422   4.708
20996WAT     H263231   3.412   9.388   4.827
20997WAT      O63232   4.475   3.931   7.402
20997WAT     H163233   4.456   3.835   7.424
20997WAT     H263234   4.439   3.990   7.475
20998WAT      O63235   1.920   8.930   3.983
20998WAT     H163236   1.826   8.956   4.004
20998WAT     H263237   1.958   8.876   4.058
20999WAT      O63238   1.086   5.534   2.246
20999WAT     H163239   1.057   5.599   2.176
20999WAT     H263240   1.073   5.575   2.337
21000WAT      O63241   7.138   2.189   6.498
21000WAT     H163242   7.210   2.250   6.464
21000WAT     H263243   7.129   2.202   6.597
21001WAT      O63244   7.586   6.336   4.992
21001WAT     H163245   7.677   6.371   4.970
21001WAT     H263246   7.588   6.236   4.994
21002WAT      O63247   2.365   1.266   4.610
21002WAT     H163248   2.325   1.351   4.644
21002WAT     H263249   2.439   1.237   4.671
21003WAT      O63250   0.757   0.543   8.210
21003WAT     H163251   0.765   0.642   8.215
21003WAT     H263252   0.776   0.503   8.300
21004WAT      O63253   1.838   1.310   0.926
21004WAT     H163254   1.934   1.331   0.944
21004WAT     H263255   1.809   1.235   0.986
21005WAT      O63256   2.596   1.086   1.982
21005WAT     H163257   2.496   1.078   1.976
21005WAT     H263258   2.638   0.998   1.959
21006WAT      O63259   5.330   1.402   4.243
21006WAT     H163260   5.343   1.304   4.227
21006WAT     H263261   5.278   1.441   4.167
21007WAT      O63262   9.876   0.217   8.239
21007WAT     H163263   9.881   0.254   8.332
21007WAT     H263264   9.858   0.291   8.175
21008WAT      O63265   5.236   9.815   8.817
21008WAT     H163266   5.161   9.756   8.785
21008WAT     H263267   5.322   9.764   8.813
21009WAT      O63268   2.443   3.068   9.113
21009WAT     H163269   2.430   3.084   9.211
21009WAT     H263270   2.392   2.987   9.085
21010WAT      O63271   7.569   1.418   7.389
21010WAT     H163272   7.479   1.428   7.431
21010WAT     H263273   7.592   1.321   7.381
21011WAT      O63274   2.098   4.112   2.329
21011WAT     H163275   2.060   4.137   2.240
21011WAT     H263276   2.024   4.087   2.391
21012WAT      O63277   5.067   0.280   7.648
21012WAT     H163278   5.144   0.344   7.649
21012WAT     H263279   4.995   0.315   7.708
21013WAT      O63280   4.429   6.944   7.498
21013WAT     H163281   4.524   6.954   7.525
21013WAT     H263282   4.419   6.971   7.402
21014WAT      O63283   8.743   6.595   7.704
21014WAT     H163284   8.662   6.536   7.695
21014WAT     H263285   8.808   6.553   7.767
21015WAT      O63286   8.918   8.069   8.054
21015WAT     H163287   8.831   8.065   8.103
21015WAT     H263288   8.934   8.162   8.021
21016WAT      O63289   7.866   3.669   0.374
21016WAT     H163290   7.909   3.690   0.285
21016WAT     H263291   7.769   3.649   0.360
21017WAT      O63292   6.649   1.931   5.110
21017WAT     H163293   6.639   1.850   5.053
21017WAT     H263294   6.746   1.945   5.132
21018WAT      O63295   9.814   8.846   6.748
21018WAT     H163296   9.904   8.824   6.786
21018WAT     H263297   9.823   8.923   6.684
21019WAT      O63298   2.966   3.254   7.145
21019WAT     H163299   2.972   3.349   7.114
21019WAT     H263300   2.931   3.251   7.239
21020WAT      O63301   4.284   3.999   2.881
21020WAT     H163302   4.297   3.904   2.851
21020WAT     H263303   4.355   4.023   2.948
21021WAT      O63304   4.373   0.069   1.140
21021WAT     H163305   4.409   0.159   1.164
21021WAT     H263306   4.274   0.071   1.141
21022WAT      O63307   2.028   4.407   0.229
21022WAT     H163308   2.096   4.439   0.164
21022WAT     H263309   1.940   4.397   0.184
21023WAT      O63310   4.582   2.204   8.166
21023WAT     H163311   4.541   2.292   8.190
21023WAT     H263312   4.545   2.174   8.077
21024WAT      O63313   5.708   4.078   8.400
21024WAT     H163314   5.658   4.165   8.398
21024WAT     H263315   5.731   4.056   8.495
21025WAT      O63316   6.791   7.734   3.587
21025WAT     H163317   6.754   7.763   3.675
21025WAT     H263318   6.728   7.670   3.543
21026WAT      O63319   9.283   5.963   0.785
21026WAT     H163320   9.216   5.907   0.833
21026WAT     H263321   9.374   5.924   0.798
21027WAT      O63322   6.306   0.934   5.050
21027WAT     H163323   6.399   0.962   5.077
21027WAT     H263324   6.251   1.015   5.032
21028WAT      O63325   1.222   0.073   3.334
21028WAT     H163326   1.235  -0.017   3.376
21028WAT     H263327   1.173   0.063   3.248
21029WAT      O63328   5.833   5.271   6.154
21029WAT     H163329   5.765   5.228   6.214
21029WAT     H263330   5.921   5.225   6.165
21030WAT      O63331   9.394   0.865   6.580
21030WAT     H163332   9.469   0.886   6.517
21030WAT     H263333   9.353   0.951   6.612
21031WAT      O63334   0.669   3.883   9.013
21031WAT     H163335   0.698   3.948   8.943
21031WAT     H263336   0.605   3.817   8.973
21032WAT      O63337   4.430   7.435   3.213
21032WAT     H163338   4.447   7.531   3.235
21032WAT     H263339   4.396   7.388   3.294
21033WAT      O63340   3.296   4.831   3.141
21033WAT     H163341   3.395   4.834   3.128
21033WAT     H263342   3.269   4.739   3.166
21034WAT      O63343   9.355   1.538   5.423
21034WAT     H163344   9.335   1.504   5.515
21034WAT     H263345   9.272   1.536   5.368
21035WAT      O63346   7.144   4.128   4.716
21035WAT     H163347   7.222   4.188   4.699
21035WAT     H263348   7.173   4.033   4.706
21036WAT      O63349   0.367   1.215   0.400
21036WAT     H163350   0.363   1.315   0.400
21036WAT     H263351   0.370   1.181   0.306
21037WAT      O63352   8.681   3.807   2.501
21037WAT     H163353   8.714   3.861   2.578
21037WAT     H263354   8.694   3.710   2.520
21038WAT      O63355   8.115   8.104   6.756
21038WAT     H163356   8.175   8.028   6.779
21038WAT     H263357   8.141   8.141   6.667
21039WAT      O63358   8.635   4.853   6.299
21039WAT     H163359   8.609   4.919   6.227
21039WAT     H263360   8.662   4.767   6.257
21040WAT      O63361   5.402   0.252   7.564
21040WAT     H163362   5.500   0.235   7.574
21040WAT     H263363   5.385   0.351   7.560
21041WAT      O63364   8.420   7.874   3.925
21041WAT     H163365   8.328   7.859   3.888
21041WAT     H263366   8.477   7.793   3.905
21042WAT      O63367   9.470   3.592   5.243
21042WAT     H163368   9.491   3.600   5.146
21042WAT     H263369   9.507   3.671   5.292
21043WAT      O63370   9.782   8.148   6.228
21043WAT     H163371   9.786   8.248   6.229
21043WAT     H263372   9.869   8.110   6.259
21044WAT      O63373   8.365   2.609   6.870
21044WAT     H163374   8.396   2.566   6.786
21044WAT     H263375   8.324   2.539   6.929
21045WAT      O63376   2.049   2.273   1.483
21045WAT     H163377   2.139   2.232   1.469
21045WAT     H263378   2.056   2.372   1.470
21046WAT      O63379   0.790   4.614   1.619
21046WAT     H163380   0.846   4.696   1.609
21046WAT     H263381   0.850   4.533   1.617
21047WAT      O63382   4.795   5.801   6.195
21047WAT     H163383   4.866   5.824   6.128
21047WAT     H263384   4.713   5.854   6.175
21048WAT      O63385   2.479   4.184   5.923
21048WAT     H163386   2.540   4.184   5.844
21048WAT     H263387   2.386   4.163   5.894
21049WAT      O63388   6.803   8.838   7.689
21049WAT     H163389   6.813   8.762   7.626
21049WAT     H263390   6.844   8.813   7.777
21050WAT      O63391   0.752   4.675   9.865
21050WAT     H163392   0.777   4.770   9.844
21050WAT     H263393   0.703   4.635   9.788
21051WAT      O63394   3.859   0.420   8.178
21051WAT     H163395   3.864   0.442   8.081
21051WAT     H263396   3.889   0.499   8.231
21052WAT      O63397   3.177   8.605   3.609
21052WAT     H163398   3.101   8.614   3.673
21052WAT     H263399   3.188   8.510   3.582
21053WAT      O63400   2.929   7.133   7.513
21053WAT     H163401   2.954   7.077   7.592
21053WAT     H263402   2.966   7.226   7.524
21054WAT      O63403   2.898   8.293   3.752
21054WAT     H163404   2.997   8.303   3.758
21054WAT     H263405   2.855   8.344   3.827
21055WAT      O63406   7.141   8.030   7.574
21055WAT     H163407   7.084   8.089   7.631
21055WAT     H263408   7.088   7.949   7.548
21056WAT      O63409   8.009   2.598   5.752
21056WAT     H163410   7.953   2.529   5.707
21056WAT     H263411   7.956   2.644   5.823
21057WAT      O63412   7.059   0.687   0.181
21057WAT     H163413   7.079   0.697   0.084
21057WAT     H263414   7.101   0.762   0.232
21058WAT      O63415   2.318   7.614   2.801
21058WAT     H163416   2.303   7.531   2.855
21058WAT     H263417   2.237   7.672   2.806
21059WAT      O63418   5.347   5.821   6.672
21059WAT     H163419   5.277   5.822   6.744
21059WAT     H263420   5.318   5.761   6.597
21060WAT      O63421   4.913   8.846   8.613
21060WAT     H163422   4.997   8.826   8.562
21060WAT     H263423   4.869   8.760   8.641
21061WAT      O63424   7.277   9.097   0.323
21061WAT     H163425   7.266   9.000   0.301
21061WAT     H263426   7.187   9.139   0.335
21062WAT      O63427   7.742   0.823   1.927
21062WAT     H163428   7.651   0.831   1.969
21062WAT     H263429   7.770   0.912   1.892
21063WAT      O63430   4.622   2.508   4.764
21063WAT     H163431   4.538   2.483   4.716
21063WAT     H263432   4.603   2.583   4.827
21064WAT      O63433   8.479   9.247   1.252
21064WAT     H163434   8.534   9.294   1.321
21064WAT     H263435   8.438   9.166   1.293
21065WAT      O63436   7.039   2.060   0.378
21065WAT     H163437   7.131   2.082   0.412
21065WAT     H263438   7.019   2.117   0.298
21066WAT      O63439   7.215   3.556   8.685
21066WAT     H163440   7.121   3.550   8.651
21066WAT     H263441   7.276   3.581   8.609
21067WAT      O63442   6.037   4.344   2.831
21067WAT     H163443   6.075   4.431   2.862
21067WAT     H263444   6.053   4.333   2.733
21068WAT      O63445   2.971   8.708   7.894
21068WAT     H163446   2.997   8.805   7.899
21068WAT     H263447   3.004   8.669   7.809
21069WAT      O63448   6.349   5.863   3.221
21069WAT     H163449   6.253   5.889   3.234
21069WAT     H263450   6.364   5.771   3.257
21070WAT      O63451   2.888   4.850   2.410
21070WAT     H163452   2.818   4.922   2.417
21070WAT     H263453   2.978   4.891   2.424
21071WAT      O63454   0.409   4.239   6.300
21071WAT     H163455   0.397   4.141   6.289
21071WAT     H263456   0.500   4.266   6.268
21072WAT      O63457   1.604   3.157   3.605
21072WAT     H163458   1.549   3.235   3.574
21072WAT     H263459   1.622   3.096   3.527
21073WAT      O63460   4.844   3.495   9.407
21073WAT     H163461   4.868   3.470   9.501
21073WAT     H263462   4.765   3.556   9.408
21074WAT      O63463   7.422   2.881   5.296
21074WAT     H163464   7.460   2.972   5.279
21074WAT     H263465   7.491   2.812   5.273
21075WAT      O63466   0.791   4.583   2.798
21075WAT     H163467   0.829   4.583   2.891
21075WAT     H263468   0.720   4.513   2.792
21076WAT      O63469   3.566   3.264   5.763
21076WAT     H163470   3.541   3.343   5.707
21076WAT     H263471   3.484   3.209   5.781
21077WAT      O63472   3.605   1.236   2.052
21077WAT     H163473   3.533   1.173   2.082
21077WAT     H263474   3.581   1.329   2.083
21078WAT      O63475   3.591   4.894   9.451
21078WAT     H163476   3.568   4.844   9.368
21078WAT     H263477   3.545   4.851   9.529
21079WAT      O63478   8.990   4.891   2.695
21079WAT     H163479   8.898   4.919   2.722
21079WAT     H263480   9.054   4.965   2.715
21080WAT      O63481   7.431   9.078   7.090
21080WAT     H163482   7.523   9.103   7.119
21080WAT     H263483   7.366   9.144   7.127
21081WAT      O63484   0.912   9.333   6.012
21081WAT     H163485   0.980   9.346   5.939
21081WAT     H263486   0.951   9.277   6.084
21082WAT      O63487   9.803   1.987   1.186
21082WAT     H163488   9.901   1.970   1.181
21082WAT     H263489   9.754   1.900   1.188
21083WAT      O63490   4.828   2.317   1.767
21083WAT     H163491   4.905   2.253   1.766
21083WAT     H263492   4.820   2.360   1.677
21084WAT      O63493   0.976   4.219   7.928
21084WAT     H163494   1.025   4.142   7.968
21084WAT     H263495   1.041   4.289   7.900
21085WAT      O63496   3.724   0.371   9.616
21085WAT     H163497   3.683   0.449   9.568
21085WAT     H263498   3.658   0.333   9.681
21086WAT      O63499   7.827   8.361   7.390
21086WAT     H163500   7.816   8.410   7.303
21086WAT     H263501   7.738   8.353   7.434
21087WAT      O63502   0.179   0.685   0.773
21087WAT     H163503   0.232   0.734   0.704
21087WAT     H263504   0.094   0.734   0.791
21088WAT      O63505   2.074   3.035   4.864
21088WAT     H163506   2.073   2.988   4.775
21088WAT     H263507   2.075   3.134   4.849
21089WAT      O63508   8.812   3.554   4.876
21089WAT     H163509   8.879   3.481   4.863
21089WAT     H263510   8.778   3.551   4.970
21090WAT      O63511   9.794   2.761   5.739
21090WAT     H163512   9.867   2.811   5.692
21090WAT     H263513   9.742   2.708   5.671
21091WAT      O63514   0.138   4.193   9.741
21091WAT     H163515   0.083   4.123   9.695
21091WAT     H263516   0.131   4.279   9.692
21092WAT      O63517   8.396   3.809   4.883
21092WAT     H163518   8.483   3.852   4.908
21092WAT     H263519   8.383   3.816   4.784
21093WAT      O63520   9.738   4.666   8.219
21093WAT     H163521   9.701   4.613   8.144
21093WAT     H263522   9.681   4.747   8.235
21094WAT      O63523   5.460   1.019   0.284
21094WAT     H163524   5.559   1.008   0.279
21094WAT     H263525   5.425   1.052   0.196
21095WAT      O63526   1.002   3.363   2.462
21095WAT     H163527   1.079   3.324   2.513
21095WAT     H263528   1.021   3.458   2.439
21096WAT      O63529   5.486   5.216   9.604
21096WAT     H163530   5.450   5.149   9.670
21096WAT     H263531   5.453   5.307   9.628
21097WAT      O63532   0.112   0.383   1.926
21097WAT     H163533   0.130   0.316   1.998
21097WAT     H263534   0.077   0.467   1.968
21098WAT      O63535   5.763   5.068   4.217
21098WAT     H163536   5.700   4.995   4.242
21098WAT     H263537   5.837   5.031   4.161
21099WAT      O63538   5.813   8.320   0.592
21099WAT     H163539   5.808   8.416   0.617
21099WAT     H263540   5.881   8.274   0.648
21100WAT      O63541   4.309   8.799   7.109
21100WAT     H163542   4.213   8.772   7.108
21100WAT     H263543   4.354   8.763   7.026
21101WAT      O63544   4.030   9.452   9.166
21101WAT     H163545   3.965   9.528   9.164
21101WAT     H263546   4.123   9.488   9.176
21102WAT      O63547   8.138   0.883   1.419
21102WAT     H163548   8.132   0.784   1.437
21102WAT     H263549   8.205   0.924   1.480
21103WAT      O63550   5.364   3.447   6.423
21103WAT     H163551   5.369   3.469   6.325
21103WAT     H263552   5.293   3.504   6.465
21104WAT      O63553   9.211   4.944   4.001
21104WAT     H163554   9.226   4.857   3.954
21104WAT     H263555   9.293   5.000   3.995
21105WAT      O63556   6.441   3.799   9.869
21105WAT     H163557   6.437   3.730   9.941
21105WAT     H263558   6.394   3.882   9.899
21106WAT      O63559   8.139   7.942   4.741
21106WAT     H163560   8.152   8.041   4.732
21106WAT     H263561   8.158   7.915   4.835
21107WAT      O63562   7.248   8.769   5.080
21107WAT     H163563   7.344   8.794   5.068
21107WAT     H263564   7.242   8.672   5.105
21108WAT      O63565   3.382   5.368   4.037
21108WAT     H163566   3.460   5.308   4.021
21108WAT     H263567   3.346   5.351   4.129
21109WAT      O63568   9.106   9.234   6.957
21109WAT     H163569   9.196   9.192   6.971
21109WAT     H263570   9.118   9.331   6.937
21110WAT      O63571   6.400   4.288   9.491
21110WAT     H163572   6.452   4.323   9.569
21110WAT     H263573   6.312   4.335   9.485
21111WAT      O63574   6.541   1.101   5.085
21111WAT     H163575   6.560   1.129   4.991
21111WAT     H263576   6.626   1.105   5.138
21112WAT      O63577   0.430   4.052   2.575
21112WAT     H163578   0.494   4.129   2.573
21112WAT     H263579   0.384   4.050   2.663
21113WAT      O63580   7.273   2.707   7.200
21113WAT     H163581   7.346   2.685   7.136
21113WAT     H263582   7.299   2.786   7.256
21114WAT      O63583   5.926   6.806   8.475
21114WAT     H163584   5.970   6.828   8.388
21114WAT     H263585   5.886   6.889   8.514
21115WAT      O63586   0.853   0.535   7.097
21115WAT     H163587   0.949   0.530   7.070
21115WAT     H263588   0.800   0.468   7.045
21116WAT      O63589   9.813   0.517   5.936
21116WAT     H163590   9.861   0.603   5.916
21116WAT     H263591   9.724   0.537   5.976
21117WAT      O63592   6.710   8.305   2.395
21117WAT     H163593   6.723   8.352   2.307
21117WAT     H263594   6.799   8.283   2.434
21118WAT      O63595   9.136   4.901   1.693
21118WAT     H163596   9.219   4.937   1.650
21118WAT     H263597   9.147   4.804   1.710
21119WAT      O63598   6.336   5.261   6.865
21119WAT     H163599   6.240   5.240   6.846
21119WAT     H263600   6.383   5.283   6.780
21120WAT      O63601   8.431   5.270   5.078
21120WAT     H163602   8.431   5.190   5.018
21120WAT     H263603   8.454   5.243   5.171
21121WAT      O63604   6.480   8.895   8.425
21121WAT     H163605   6.541   8.971   8.448
21121WAT     H263606   6.510   8.854   8.339
21122WAT      O63607   0.194   3.069   9.268
21122WAT     H163608   0.233   2.977   9.273
21122WAT     H263609   0.123   3.079   9.338
21123WAT      O63610   8.887   5.683   0.389
21123WAT     H163611   8.830   5.620   0.442
21123WAT     H263612   8.938   5.742   0.452
21124WAT      O63613   2.057   7.286   9.597
21124WAT     H163614   1.988   7.359   9.599
21124WAT     H263615   2.026   7.213   9.535
21125WAT      O63616   0.837   2.145   5.761
21125WAT     H163617   0.827   2.047   5.744
21125WAT     H263618   0.768   2.196   5.710
21126WAT      O63619   1.431   2.301   4.394
21126WAT     H163620   1.341   2.293   4.436
21126WAT     H263621   1.425   2.277   4.297
21127WAT      O63622   2.165   8.343   7.130
21127WAT     H163623   2.249   8.397   7.125
21127WAT     H263624   2.091   8.394   7.087
21128WAT      O63625   2.621   3.520   7.180
21128WAT     H163626   2.563   3.441   7.161
21128WAT     H263627   2.563   3.601   7.195
21129WAT      O63628   1.536   8.085   6.943
21129WAT     H163629   1.604   8.102   6.872
21129WAT     H263630   1.470   8.017   6.911
21130WAT      O63631   0.578   7.520   7.595
21130WAT     H163632   0.517   7.505   7.517
21130WAT     H263633   0.581   7.618   7.617
21131WAT      O63634   4.022   5.370   9.845
21131WAT     H163635   4.007   5.454   9.793
21131WAT     H263636   4.057   5.393   9.936
21132WAT      O63637   4.720   8.621   2.141
21132WAT     H163638   4.655   8.600   2.214
21132WAT     H263639   4.671   8.665   2.065
21133WAT      O63640   9.060   9.048   5.415
21133WAT     H163641   9.005   8.975   5.456
21133WAT     H263642   9.155   9.018   5.409
21134WAT      O63643   5.143   1.804   2.815
21134WAT     H163644   5.086   1.818   2.733
21134WAT     H263645   5.133   1.883   2.876
21135WAT      O63646   3.503   1.423   8.674
21135WAT     H163647   3.567   1.449   8.746
21135WAT     H263648   3.446   1.502   8.650
21136WAT      O63649   5.097   0.408   3.265
21136WAT     H163650   5.179   0.408   3.207
21136WAT     H263651   5.038   0.331   3.239
21137WAT      O63652   2.056   3.066   8.294
21137WAT     H163653   2.110   2.998   8.243
21137WAT     H263654   2.076   3.157   8.258
21138WAT      O63655   3.263   6.703   1.414
21138WAT     H163656   3.328   6.689   1.489
21138WAT     H263657   3.241   6.801   1.407
21139WAT      O63658   5.929   4.510   9.251
21139WAT     H163659   6.025   4.486   9.236
21139WAT     H263660   5.876   4.492   9.167
21140WAT      O63661   1.338   9.317   6.817
21140WAT     H163662   1.353   9.263   6.734
21140WAT     H263663   1.414   9.382   6.828
21141WAT      O63664   3.945   0.726   1.635
21141WAT     H163665   3.976   0.633   1.657
21141WAT     H263666   3.864   0.748   1.689
21142WAT      O63667   3.356   6.400   4.289
21142WAT     H163668   3.359   6.497   4.266
21142WAT     H263669   3.449   6.363   4.292
21143WAT      O63670   3.488   5.450   7.843
21143WAT     H163671   3.523   5.388   7.914
21143WAT     H263672   3.414   5.404   7.793
21144WAT      O63673   8.320   6.429   1.109
21144WAT     H163674   8.358   6.521   1.117
21144WAT     H263675   8.254   6.428   1.034
21145WAT      O63676   5.538   6.040   8.546
21145WAT     H163677   5.567   6.010   8.636
21145WAT     H263678   5.597   5.998   8.476
21146WAT      O63679   2.210   2.543   6.389
21146WAT     H163680   2.114   2.573   6.390
21146WAT     H263681   2.213   2.443   6.392
21147WAT      O63682   6.387   4.385   6.574
21147WAT     H163683   6.432   4.310   6.623
21147WAT     H263684   6.456   4.439   6.525
21148WAT      O63685   3.372   3.318   0.595
21148WAT     H163686   3.419   3.406   0.604
21148WAT     H263687   3.291   3.330   0.536
21149WAT      O63688   9.575   9.162   4.499
21149WAT     H163689   9.668   9.129   4.511
21149WAT     H263690   9.538   9.188   4.588
21150WAT      O63691   9.581   2.210   1.929
21150WAT     H163692   9.626   2.202   1.840
21150WAT     H263693   9.483   2.198   1.918
21151WAT      O63694   4.676   5.097   0.580
21151WAT     H163695   4.633   5.135   0.662
21151WAT     H263696   4.635   5.008   0.560
21152WAT      O63697   2.956   3.122   0.679
21152WAT     H163698   2.940   3.071   0.595
21152WAT     H263699   3.012   3.068   0.742
21153WAT      O63700   4.713   3.468   7.151
21153WAT     H163701   4.658   3.387   7.171
21153WAT     H263702   4.713   3.486   7.053
21154WAT      O63703   9.106   2.627   1.990
21154WAT     H163704   9.145   2.542   1.956
21154WAT     H263705   9.065   2.678   1.915
21155WAT      O63706   5.248   0.724   3.968
21155WAT     H163707   5.223   0.761   3.879
21155WAT     H263708   5.331   0.669   3.960
21156WAT      O63709   8.855   2.207   4.927
21156WAT     H163710   8.884   2.250   4.842
21156WAT     H263711   8.880   2.264   5.004
21157WAT      O63712   5.195   3.624   0.330
21157WAT     H163713   5.131   3.595   0.401
21157WAT     H263714   5.260   3.688   0.368
21158WAT      O63715   8.530   7.520   2.634
21158WAT     H163716   8.605   7.518   2.702
21158WAT     H263717   8.565   7.490   2.546
21159WAT      O63718   0.528   3.546   4.516
21159WAT     H163719   0.494   3.516   4.426
21159WAT     H263720   0.611   3.601   4.503
21160WAT      O63721   9.153   4.403   8.386
21160WAT     H163722   9.251   4.416   8.372
21160WAT     H263723   9.103   4.450   8.314
21161WAT      O63724   9.878   4.735   3.880
21161WAT     H163725   9.906   4.648   3.839
21161WAT     H263726   9.836   4.717   3.969
21162WAT      O63727   0.078   4.131   2.651
21162WAT     H163728   0.148   4.093   2.712
21162WAT     H263729   0.110   4.127   2.557
21163WAT      O63730   0.791   0.581   3.717
21163WAT     H163731   0.887   0.554   3.717
21163WAT     H263732   0.759   0.592   3.623
21164WAT      O63733   1.599   9.628   2.138
21164WAT     H163734   1.655   9.704   2.171
21164WAT     H263735   1.527   9.662   2.078
21165WAT      O63736   4.350   3.878   4.392
21165WAT     H163737   4.342   3.780   4.375
21165WAT     H263738   4.402   3.920   4.318
21166WAT      O63739   6.334   3.421   2.415
21166WAT     H163740   6.257   3.484   2.411
21166WAT     H263741   6.397   3.450   2.488
21167WAT      O63742   2.280   7.147   7.753
21167WAT     H163743   2.274   7.052   7.784
21167WAT     H263744   2.371   7.182   7.774
21168WAT      O63745   6.977   2.482   3.097
21168WAT     H163746   7.047   2.411   3.083
21168WAT     H263747   6.939   2.472   3.189
21169WAT      O63748   8.470   7.054   5.367
21169WAT     H163749   8.548   6.992   5.379
21169WAT     H263750   8.385   7.005   5.389
21170WAT      O63751   3.625   7.374   0.280
21170WAT     H163752   3.649   7.278   0.266
21170WAT     H263753   3.635   7.423   0.193
21171WAT      O63754   5.006   3.154   9.477
21171WAT     H163755   4.980   3.209   9.398
21171WAT     H263756   4.929   3.147   9.541
21172WAT      O63757   3.001   1.910   9.078
21172WAT     H163758   2.967   1.993   9.124
21172WAT     H263759   2.979   1.830   9.134
21173WAT      O63760   2.704   4.121   8.117
21173WAT     H163761   2.772   4.192   8.098
21173WAT     H263762   2.735   4.034   8.078
21174WAT      O63763   8.272   8.732   9.560
21174WAT     H163764   8.204   8.798   9.529
21174WAT     H263765   8.319   8.692   9.481
21175WAT      O63766   3.004   6.986   4.994
21175WAT     H163767   3.076   7.043   4.955
21175WAT     H263768   3.045   6.907   5.040
21176WAT      O63769   6.403   9.729   3.115
21176WAT     H163770   6.500   9.744   3.096
21176WAT     H263771   6.374   9.790   3.189
21177WAT      O63772   6.450   5.234   7.309
21177WAT     H163773   6.500   5.221   7.394
21177WAT     H263774   6.445   5.147   7.260
21178WAT      O63775   0.899   1.897   1.155
21178WAT     H163776   0.853   1.846   1.228
21178WAT     H263777   0.845   1.979   1.132
21179WAT      O63778   6.399   3.814   1.215
21179WAT     H163779   6.458   3.785   1.290
21179WAT     H263780   6.304   3.791   1.237
21180WAT      O63781   3.767   4.838   9.091
21180WAT     H163782   3.794   4.906   9.159
21180WAT     H263783   3.789   4.747   9.125
21181WAT      O63784   9.455   9.541   4.444
21181WAT     H163785   9.385   9.608   4.419
21181WAT     H263786   9.534   9.589   4.484
21182WAT      O63787   1.620   1.827   8.496
21182WAT     H163788   1.526   1.811   8.466
21182WAT     H263789   1.680   1.831   8.417
21183WAT      O63790   4.453   4.367   7.560
21183WAT     H163791   4.391   4.440   7.532
21183WAT     H263792   4.503   4.395   7.642
21184WAT      O63793   0.187   8.950   3.788
21184WAT     H163794   0.132   8.872   3.819
21184WAT     H263795   0.127   9.021   3.752
21185WAT      O63796   2.110   7.207   0.892
21185WAT     H163797   2.163   7.136   0.938
21185WAT     H263798   2.124   7.200   0.794
21186WAT      O63799   0.263   1.100   9.799
21186WAT     H163800   0.322   1.101   9.718
21186WAT     H263801   0.169   1.085   9.771
21187WAT      O63802   2.040   3.077   2.720
21187WAT     H163803   2.098   3.156   2.702
21187WAT     H263804   2.097   3.000   2.747
21188WAT      O63805   1.625   7.481   8.227
21188WAT     H163806   1.566   7.506   8.304
21188WAT     H263807   1.598   7.532   8.146
21189WAT      O63808   5.596   4.719   3.653
21189WAT     H163809   5.586   4.707   3.554
21189WAT     H263810   5.606   4.630   3.697
21190WAT      O63811   6.609   6.612   3.608
21190WAT     H163812   6.567   6.523   3.621
21190WAT     H263813   6.657   6.639   3.691
21191WAT      O63814   6.736   6.312   2.437
21191WAT     H163815   6.813   6.314   2.500
21191WAT     H263816   6.769   6.310   2.343
21192WAT      O63817   1.587   2.745   5.234
21192WAT     H163818   1.540   2.727   5.320
21192WAT     H263819   1.543   2.822   5.187
21193WAT      O63820   4.240   2.912   4.577
21193WAT     H163821   4.231   2.986   4.644
21193WAT     H263822   4.153   2.865   4.568
21194WAT      O63823   5.884   7.025   6.317
21194WAT     H163824   5.909   7.006   6.413
21194WAT     H263825   5.925   7.112   6.289
21195WAT      O63826   9.488   1.193   8.989
21195WAT     H163827   9.427   1.205   9.068
21195WAT     H263828   9.516   1.283   8.955
21196WAT      O63829   5.545   6.322   8.546
21196WAT     H163830   5.554   6.223   8.553
21196WAT     H263831   5.577   6.365   8.630
21197WAT      O63832   2.932   4.262   7.693
21197WAT     H163833   2.968   4.172   7.669
21197WAT     H263834   3.004   4.330   7.680
21198WAT      O63835   9.554   8.166   8.342
21198WAT     H163836   9.471   8.119   8.371
21198WAT     H263837   9.609   8.191   8.422
21199WAT      O63838   7.721   3.278   6.525
21199WAT     H163839   7.806   3.258   6.476
21199WAT     H263840   7.720   3.229   6.612
21200WAT      O63841   6.916   1.707   4.427
21200WAT     H163842   6.925   1.806   4.422
21200WAT     H263843   6.962   1.674   4.510
21201WAT      O63844   2.449   8.935   6.629
21201WAT     H163845   2.366   8.967   6.674
21201WAT     H263846   2.475   8.999   6.557
21202WAT      O63847   5.288   2.423   7.639
21202WAT     H163848   5.304   2.339   7.691
21202WAT     H263849   5.351   2.426   7.561
21203WAT      O63850   7.896   4.031   8.477
21203WAT     H163851   7.893   4.083   8.391
21203WAT     H263852   7.826   4.067   8.540
21204WAT      O63853   6.339   3.912   4.067
21204WAT     H163854   6.343   3.963   4.153
21204WAT     H263855   6.324   3.975   3.991
21205WAT      O63856   8.743   0.234   2.301
21205WAT     H163857   8.692   0.318   2.320
21205WAT     H263858   8.721   0.200   2.210
21206WAT      O63859   3.274   2.733   2.014
21206WAT     H163860   3.290   2.666   1.941
21206WAT     H263861   3.177   2.737   2.036
21207WAT      O63862   8.636   1.844   3.067
21207WAT     H163863   8.720   1.867   3.018
21207WAT     H263864   8.651   1.855   3.165
21208WAT      O63865   6.082   3.886   2.420
21208WAT     H163866   6.097   3.921   2.513
21208WAT     H263867   5.985   3.897   2.396
21209WAT      O63868   3.224   7.715   9.556
21209WAT     H163869   3.286   7.644   9.523
21209WAT     H263870   3.257   7.804   9.526
21210WAT      O63871   3.129   7.615   4.481
21210WAT     H163872   3.210   7.653   4.525
21210WAT     H263873   3.066   7.583   4.552
21211WAT      O63874   7.558   2.082   0.248
21211WAT     H163875   7.494   2.012   0.217
21211WAT     H263876   7.593   2.057   0.338
21212WAT      O63877   4.177   6.887   9.498
21212WAT     H163878   4.104   6.943   9.539
21212WAT     H263879   4.207   6.819   9.564
21213WAT      O63880   3.057   3.249   1.134
21213WAT     H163881   3.133   3.186   1.116
21213WAT     H263882   2.982   3.199   1.176
21214WAT      O63883   1.993   5.784   6.829
21214WAT     H163884   1.895   5.774   6.817
21214WAT     H263885   2.015   5.793   6.926
21215WAT      O63886   3.401   6.558   8.388
21215WAT     H163887   3.370   6.467   8.359
21215WAT     H263888   3.333   6.599   8.448
21216WAT      O63889   1.130   3.598   4.829
21216WAT     H163890   1.181   3.563   4.907
21216WAT     H263891   1.190   3.655   4.772
21217WAT      O63892   4.189   3.437   6.308
21217WAT     H163893   4.137   3.485   6.237
21217WAT     H263894   4.215   3.502   6.380
21218WAT      O63895   4.272   1.571   5.648
21218WAT     H163896   4.181   1.532   5.633
21218WAT     H263897   4.266   1.641   5.720
21219WAT      O63898   9.828   7.602   6.101
21219WAT     H163899   9.856   7.637   6.012
21219WAT     H263900   9.813   7.503   6.094
21220WAT      O63901   9.512   6.742   6.883
21220WAT     H163902   9.528   6.643   6.883
21220WAT     H263903   9.423   6.761   6.843
21221WAT      O63904   4.046   4.435   6.701
21221WAT     H163905   3.990   4.364   6.744
21221WAT     H263906   4.133   4.443   6.750
21222WAT      O63907   3.760   7.101   6.998
21222WAT     H163908   3.673   7.057   6.975
21222WAT     H263909   3.836   7.045   6.964
21223WAT      O63910   5.403   5.505   7.778
21223WAT     H163911   5.316   5.490   7.731
21223WAT     H263912   5.387   5.508   7.877
21224WAT      O63913   5.543   2.986   3.377
21224WAT     H163914   5.541   2.886   3.381
21224WAT     H263915   5.487   3.018   3.301
21225WAT      O63916   6.974   2.252   9.724
21225WAT     H163917   6.939   2.177   9.779
21225WAT     H263918   7.037   2.307   9.779
21226WAT      O63919   4.464   7.638   4.295
21226WAT     H163920   4.382   7.643   4.352
21226WAT     H263921   4.519   7.559   4.323
21227WAT      O63922   2.666   5.697   1.026
21227WAT     H163923   2.710   5.719   0.939
21227WAT     H263924   2.607   5.772   1.055
21228WAT      O63925   6.796   0.388   1.464
21228WAT     H163926   6.778   0.304   1.514
21228WAT     H263927   6.889   0.386   1.426
21229WAT      O63928   0.589   1.247   0.837
21229WAT     H163929   0.655   1.228   0.909
21229WAT     H263930   0.577   1.346   0.827
21230WAT      O63931   7.565   7.325   2.891
21230WAT     H163932   7.586   7.254   2.958
21230WAT     H263933   7.498   7.290   2.826
21231WAT      O63934   5.460   6.273   5.328
21231WAT     H163935   5.379   6.220   5.353
21231WAT     H263936   5.440   6.370   5.334
21232WAT      O63937   8.305   6.784   0.780
21232WAT     H163938   8.214   6.811   0.810
21232WAT     H263939   8.374   6.831   0.836
21233WAT      O63940   0.620   6.236   6.360
21233WAT     H163941   0.686   6.176   6.314
21233WAT     H263942   0.568   6.183   6.427
21234WAT      O63943   4.654   2.362   0.012
21234WAT     H163944   4.671   2.414  -0.071
21234WAT     H263945   4.741   2.327   0.049
21235WAT      O63946   0.154   0.612   2.563
21235WAT     H163947   0.089   0.554   2.516
21235WAT     H263948   0.136   0.610   2.661
21236WAT      O63949   3.651   6.589   8.835
21236WAT     H163950   3.556   6.618   8.825
21236WAT     H263951   3.710   6.648   8.780
21237WAT      O63952   9.193   1.728   5.103
21237WAT     H163953   9.182   1.789   5.025
21237WAT     H263954   9.258   1.768   5.168
21238WAT      O63955   5.716   6.137   6.523
21238WAT     H163956   5.669   6.225   6.512
21238WAT     H263957   5.752   6.129   6.616
21239WAT      O63958   5.708   1.397   2.709
21239WAT     H163959   5.706   1.349   2.797
21239WAT     H263960   5.785   1.461   2.709
21240WAT      O63961   0.955   1.646   1.433
21240WAT     H163962   0.978   1.577   1.502
21240WAT     H263963   1.037   1.674   1.384
21241WAT      O63964   0.427   8.369   1.547
21241WAT     H163965   0.352   8.318   1.505
21241WAT     H263966   0.404   8.466   1.550
21242WAT      O63967   1.576   8.674   9.473
21242WAT     H163968   1.563   8.772   9.459
21242WAT     H263969   1.639   8.639   9.403
21243WAT      O63970   0.362   5.997   1.877
21243WAT     H163971   0.375   6.069   1.808
21243WAT     H263972   0.384   6.033   1.967
21244WAT      O63973   6.015   6.803   6.557
21244WAT     H163974   6.110   6.824   6.536
21244WAT     H263975   6.008   6.772   6.652
21245WAT      O63976   8.433   4.391   0.187
21245WAT     H163977   8.404   4.307   0.234
21245WAT     H263978   8.487   4.447   0.250
21246WAT      O63979   4.634   2.075   3.923
21246WAT     H163980   4.691   2.117   3.993
21246WAT     H263981   4.570   2.142   3.886
21247WAT      O63982   8.394   4.570   1.821
21247WAT     H163983   8.390   4.669   1.803
21247WAT     H263984   8.398   4.555   1.919
21248WAT      O63985   9.620   2.941   6.201
21248WAT     H163986   9.631   2.945   6.101
21248WAT     H263987   9.703   2.904   6.242
21249WAT      O63988   5.145   3.657   2.917
21249WAT     H163989   5.139   3.619   3.009
21249WAT     H263990   5.171   3.586   2.853
21250WAT      O63991   4.582   1.573   2.076
21250WAT     H163992   4.489   1.535   2.074
21250WAT     H263993   4.581   1.664   2.034
21251WAT      O63994   1.169   0.245   1.522
21251WAT     H163995   1.201   0.230   1.616
21251WAT     H263996   1.206   0.331   1.488
21252WAT      O63997   8.117   8.220   9.633
21252WAT     H163998   8.160   8.285   9.571
21252WAT     H263999   8.045   8.169   9.585
21253WAT      O64000   7.032   1.344   5.500
21253WAT     H164001   7.022   1.249   5.529
21253WAT     H264002   7.108   1.386   5.549
21254WAT      O64003   3.332   4.971   1.326
21254WAT     H164004   3.365   4.879   1.308
21254WAT     H264005   3.232   4.970   1.334
21255WAT      O64006   0.826   7.540   2.796
21255WAT     H164007   0.779   7.595   2.866
21255WAT     H264008   0.912   7.506   2.833
21256WAT      O64009   5.141   6.204   2.515
21256WAT     H164010   5.110   6.179   2.423
21256WAT     H264011   5.079   6.165   2.583
21257WAT      O64012   5.831   7.933   2.932
21257WAT     H164013   5.777   7.999   2.879
21257WAT     H264014   5.788   7.843   2.927
21258WAT      O64015   8.226   2.745   2.201
21258WAT     H164016   8.165   2.777   2.273
21258WAT     H264017   8.193   2.777   2.112
21259WAT      O64018   2.539   2.349   4.868
21259WAT     H164019   2.550   2.399   4.782
21259WAT     H264020   2.442   2.343   4.892
21260WAT      O64021   3.440   5.449   5.783
21260WAT     H164022   3.484   5.484   5.865
21260WAT     H264023   3.346   5.483   5.778
21261WAT      O64024   6.248   1.967   3.594
21261WAT     H164025   6.313   2.035   3.561
21261WAT     H264026   6.158   2.009   3.604
21262WAT      O64027   1.978   3.112   2.025
21262WAT     H164028   2.057   3.125   1.965
21262WAT     H264029   2.002   3.138   2.118
21263WAT      O64030   5.803   0.475   6.362
21263WAT     H164031   5.709   0.496   6.391
21263WAT     H264032   5.867   0.500   6.435
21264WAT      O64033   0.497   9.594   7.122
21264WAT     H164034   0.489   9.535   7.041
21264WAT     H264035   0.555   9.673   7.100
21265WAT      O64036   0.028   6.618   7.063
21265WAT     H164037   0.029   6.522   7.091
21265WAT     H264038   0.122   6.654   7.063
21266WAT      O64039   3.247   7.765   7.703
21266WAT     H164040   3.231   7.724   7.614
21266WAT     H264041   3.192   7.719   7.772
21267WAT      O64042   3.699   1.580   8.397
21267WAT     H164043   3.632   1.521   8.353
21267WAT     H264044   3.653   1.641   8.462
21268WAT      O64045   0.948   0.393   2.615
21268WAT     H164046   1.035   0.356   2.585
21268WAT     H264047   0.953   0.493   2.617
21269WAT      O64048   1.373   2.184   7.846
21269WAT     H164049   1.414   2.241   7.918
21269WAT     H264050   1.443   2.159   7.779
21270WAT      O64051   5.405   0.503   4.789
21270WAT     H164052   5.373   0.568   4.721
21270WAT     H264053   5.343   0.501   4.867
21271WAT      O64054   4.193   5.495   6.774
21271WAT     H164055   4.285   5.529   6.753
21271WAT     H264056   4.186   5.479   6.873
21272WAT      O64057   4.210   4.752   3.160
21272WAT     H164058   4.196   4.733   3.063
21272WAT     H264059   4.176   4.675   3.215
21273WAT      O64060   8.266   9.318   3.473
21273WAT     H164061   8.275   9.345   3.568
21273WAT     H264062   8.223   9.391   3.420
21274WAT      O64063   6.009   0.797   2.132
21274WAT     H164064   5.957   0.881   2.151
21274WAT     H264065   6.102   0.807   2.167
21275WAT      O64066   5.962   6.643   4.793
21275WAT     H164067   6.059   6.652   4.817
21275WAT     H264068   5.911   6.610   4.872
21276WAT      O64069   0.793   3.684   3.858
21276WAT     H164070   0.834   3.717   3.944
21276WAT     H264071   0.699   3.717   3.851
21277WAT      O64072   3.261   0.364   9.473
21277WAT     H164073   3.167   0.330   9.471
21277WAT     H264074   3.318   0.303   9.528
21278WAT      O64075   3.223   7.277   6.021
21278WAT     H164076   3.277   7.230   6.090
21278WAT     H264077   3.249   7.244   5.930
21279WAT      O64078   1.159   8.261   9.696
21279WAT     H164079   1.233   8.208   9.655
21279WAT     H264080   1.158   8.353   9.657
21280WAT      O64081   6.236   5.670   8.266
21280WAT     H164082   6.209   5.709   8.355
21280WAT     H264083   6.335   5.675   8.256
21281WAT      O64084   2.206   1.427   4.273
21281WAT     H164085   2.301   1.412   4.299
21281WAT     H264086   2.164   1.493   4.335
21282WAT      O64087   2.774   9.557   2.909
21282WAT     H164088   2.870   9.528   2.911
21282WAT     H264089   2.758   9.624   2.982
21283WAT      O64090   8.233   6.118   0.503
21283WAT     H164091   8.146   6.097   0.547
21283WAT     H264092   8.235   6.215   0.477
21284WAT      O64093   2.132   0.184   1.278
21284WAT     H164094   2.173   0.193   1.187
21284WAT     H264095   2.104   0.274   1.311
21285WAT      O64096   4.510   6.249   8.612
21285WAT     H164097   4.588   6.217   8.560
21285WAT     H264098   4.506   6.349   8.607
21286WAT      O64099   9.545   5.191   3.087
21286WAT     H164100   9.451   5.164   3.068
21286WAT     H264101   9.576   5.146   3.171
21287WAT      O64102   3.073   5.136   1.991
21287WAT     H164103   3.016   5.056   2.012
21287WAT     H264104   3.143   5.111   1.925
21288WAT      O64105   4.492   2.881   3.928
21288WAT     H164106   4.535   2.857   3.841
21288WAT     H264107   4.485   2.980   3.936
21289WAT      O64108   2.650   4.267   3.031
21289WAT     H164109   2.714   4.331   3.073
21289WAT     H264110   2.649   4.280   2.932
21290WAT      O64111   0.740   1.341   0.439
21290WAT     H164112   0.807   1.381   0.501
21290WAT     H264113   0.693   1.265   0.484
21291WAT      O64114   6.667   6.577   8.370
21291WAT     H164115   6.671   6.478   8.357
21291WAT     H264116   6.723   6.603   8.448
21292WAT      O64117   1.543   4.966   2.740
21292WAT     H164118   1.510   5.051   2.700
21292WAT     H264119   1.468   4.900   2.745
21293WAT      O64120   8.498   3.613   4.051
21293WAT     H164121   8.499   3.537   3.986
21293WAT     H264122   8.403   3.634   4.076
21294WAT      O64123   6.798   5.092   0.454
21294WAT     H164124   6.888   5.078   0.414
21294WAT     H264125   6.733   5.027   0.412
21295WAT      O64126   0.242   5.447   3.003
21295WAT     H164127   0.189   5.385   3.060
21295WAT     H264128   0.200   5.454   2.912
21296WAT      O64129   5.962   2.729   5.455
21296WAT     H164130   6.036   2.764   5.512
21296WAT     H264131   5.984   2.637   5.423
21297WAT      O64132   1.865   2.373   6.663
21297WAT     H164133   1.824   2.425   6.588
21297WAT     H264134   1.816   2.286   6.673
21298WAT      O64135   6.595   9.738   6.405
21298WAT     H164136   6.686   9.721   6.368
21298WAT     H264137   6.547   9.804   6.347
21299WAT      O64138   7.057   2.974   5.347
21299WAT     H164139   7.151   2.999   5.373
21299WAT     H264140   7.047   2.875   5.348
21300WAT      O64141   1.006   3.761   9.306
21300WAT     H164142   1.073   3.738   9.235
21300WAT     H264143   0.915   3.766   9.265
21301WAT      O64144   6.278   2.240   8.295
21301WAT     H164145   6.324   2.228   8.383
21301WAT     H264146   6.291   2.333   8.262
21302WAT      O64147   1.372   6.047   5.196
21302WAT     H164148   1.309   5.993   5.253
21302WAT     H264149   1.321   6.121   5.152
21303WAT      O64150   7.160   1.653   6.236
21303WAT     H164151   7.207   1.714   6.172
21303WAT     H264152   7.061   1.662   6.225
21304WAT      O64153   6.580   2.599   0.149
21304WAT     H164154   6.519   2.646   0.213
21304WAT     H264155   6.532   2.521   0.109
21305WAT      O64156   2.527   7.912   6.192
21305WAT     H164157   2.485   7.858   6.118
21305WAT     H264158   2.624   7.925   6.172
21306WAT      O64159   7.739   7.530   9.355
21306WAT     H164160   7.721   7.486   9.267
21306WAT     H264161   7.828   7.576   9.351
21307WAT      O64162   2.784   9.581   7.500
21307WAT     H164163   2.874   9.625   7.504
21307WAT     H264164   2.794   9.482   7.513
21308WAT      O64165   3.700   9.518   7.148
21308WAT     H164166   3.716   9.466   7.064
21308WAT     H264167   3.724   9.614   7.133
21309WAT      O64168   3.016   0.843   2.088
21309WAT     H164169   2.958   0.818   2.010
21309WAT     H264170   3.112   0.823   2.066
21310WAT      O64171   3.375   2.669   1.119
21310WAT     H164172   3.473   2.678   1.136
21310WAT     H264173   3.347   2.740   1.054
21311WAT      O64174   5.422   3.052   8.159
21311WAT     H164175   5.465   3.047   8.250
21311WAT     H264176   5.323   3.053   8.169
21312WAT      O64177   4.713   9.527   6.995
21312WAT     H164178   4.777   9.592   6.953
21312WAT     H264179   4.626   9.574   7.013
21313WAT      O64180   4.819   9.121   7.153
21313WAT     H164181   4.736   9.121   7.208
21313WAT     H264182   4.893   9.076   7.203
21314WAT      O64183   8.166   6.322   1.649
21314WAT     H164184   8.238   6.339   1.582
21314WAT     H264185   8.208   6.309   1.739
21315WAT      O64186   6.628   5.686   8.794
21315WAT     H164187   6.603   5.702   8.699
21315WAT     H264188   6.546   5.658   8.845
21316WAT      O64189   4.753   6.652   2.717
21316WAT     H164190   4.696   6.625   2.640
21316WAT     H264191   4.724   6.604   2.799
21317WAT      O64192   6.866   6.458   3.253
21317WAT     H164193   6.942   6.393   3.243
21317WAT     H264194   6.789   6.428   3.197
21318WAT      O64195   2.515   7.987   5.548
21318WAT     H164196   2.494   7.891   5.528
21318WAT     H264197   2.528   8.036   5.461
21319WAT      O64198   7.404   0.634   9.762
21319WAT     H164199   7.325   0.693   9.774
21319WAT     H264200   7.485   0.679   9.800
21320WAT      O64201   8.366   1.022   9.848
21320WAT     H164202   8.287   0.992   9.793
21320WAT     H264203   8.334   1.079   9.924
21321WAT      O64204   1.112   9.334   0.698
21321WAT     H164205   1.027   9.330   0.645
21321WAT     H264206   1.190   9.334   0.636
21322WAT      O64207   7.337   4.296   8.348
21322WAT     H164208   7.310   4.383   8.307
21322WAT     H264209   7.408   4.253   8.292
21323WAT      O64210   9.788   2.637   6.721
21323WAT     H164211   9.726   2.648   6.643
21323WAT     H264212   9.823   2.727   6.748
21324WAT      O64213   6.015   9.629   2.521
21324WAT     H164214   6.042   9.558   2.586
21324WAT     H264215   6.040   9.719   2.557
21325WAT      O64216   5.913   5.704   7.127
21325WAT     H164217   5.857   5.715   7.044
21325WAT     H264218   5.936   5.794   7.164
21326WAT      O64219   1.518   1.166   1.090
21326WAT     H164220   1.433   1.116   1.072
21326WAT     H264221   1.563   1.188   1.004
21327WAT      O64222   8.553   2.241   2.462
21327WAT     H164223   8.584   2.170   2.526
21327WAT     H264224   8.583   2.216   2.370
21328WAT      O64225   9.253   2.401   8.850
21328WAT     H164226   9.293   2.438   8.765
21328WAT     H264227   9.181   2.336   8.826
21329WAT      O64228   6.069   5.042   8.329
21329WAT     H164229   6.137   5.113   8.314
21329WAT     H264230   6.111   4.952   8.318
21330WAT      O64231   5.580   8.128   8.915
21330WAT     H164232   5.640   8.108   8.838
21330WAT     H264233   5.497   8.171   8.882
21331WAT      O64234   8.926   1.369   9.221
21331WAT     H164235   8.834   1.351   9.187
21331WAT     H264236   8.959   1.455   9.182
21332WAT      O64237   0.589   5.680   9.786
21332WAT     H164238   0.542   5.729   9.859
21332WAT     H264239   0.681   5.655   9.818
21333WAT      O64240   5.729   0.100   2.409
21333WAT     H164241   5.660   0.127   2.477
21333WAT     H264242   5.818   0.136   2.437
21334WAT      O64243   5.240   3.703   7.098
21334WAT     H164244   5.303   3.627   7.115
21334WAT     H264245   5.288   3.778   7.053
21335WAT      O64246   7.496   2.375   6.001
21335WAT     H164247   7.478   2.345   6.094
21335WAT     H264248   7.426   2.441   5.973
21336WAT      O64249   0.845   0.595   6.742
21336WAT     H164250   0.845   0.609   6.643
21336WAT     H264251   0.760   0.550   6.769
21337WAT      O64252   4.739   0.310   7.683
21337WAT     H164253   4.646   0.307   7.719
21337WAT     H264254   4.738   0.280   7.588
21338WAT      O64255   1.855   8.476   2.816
21338WAT     H164256   1.844   8.407   2.745
21338WAT     H264257   1.777   8.474   2.877
21339WAT      O64258   3.668   6.773   0.711
21339WAT     H164259   3.742   6.836   0.734
21339WAT     H264260   3.655   6.708   0.786
21340WAT      O64261   6.086   4.476   1.391
21340WAT     H164262   6.088   4.422   1.306
21340WAT     H264263   5.994   4.513   1.405
21341WAT      O64264   0.440   0.127   9.278
21341WAT     H164265   0.428   0.112   9.376
21341WAT     H264266   0.460   0.224   9.261
21342WAT      O64267   8.910   3.955   1.059
21342WAT     H164268   8.824   3.908   1.077
21342WAT     H264269   8.927   4.022   1.132
21343WAT      O64270   7.527   5.015   8.514
21343WAT     H164271   7.434   5.042   8.493
21343WAT     H264272   7.526   4.952   8.593
21344WAT      O64273   7.605   5.556   3.018
21344WAT     H164274   7.521   5.561   3.074
21344WAT     H264275   7.681   5.526   3.076
21345WAT      O64276   1.100   3.709   1.568
21345WAT     H164277   1.057   3.798   1.556
21345WAT     H264278   1.172   3.715   1.637
21346WAT      O64279   0.351   3.040   7.821
21346WAT     H164280   0.322   3.128   7.784
21346WAT     H264281   0.413   2.995   7.758
21347WAT      O64282   0.855   8.225   1.028
21347WAT     H164283   0.860   8.223   0.928
21347WAT     H264284   0.885   8.137   1.065
21348WAT      O64285   5.651   8.955   6.200
21348WAT     H164286   5.639   8.873   6.144
21348WAT     H264287   5.618   8.938   6.292
21349WAT      O64288   4.456   0.939   0.683
21349WAT     H164289   4.422   1.008   0.619
21349WAT     H264290   4.532   0.889   0.642
21350WAT      O64291   4.107   9.310   3.745
21350WAT     H164292   4.181   9.260   3.701
21350WAT     H264293   4.038   9.246   3.779
21351WAT      O64294   2.373   6.377   4.702
21351WAT     H164295   2.282   6.416   4.717
21351WAT     H264296   2.367   6.278   4.698
21352WAT      O64297   7.517   0.852   7.083
21352WAT     H164298   7.538   0.810   7.171
21352WAT     H264299   7.506   0.951   7.094
21353WAT      O64300   0.941   0.365   6.179
21353WAT     H164301   0.906   0.420   6.103
21353WAT     H264302   0.934   0.268   6.155
21354WAT      O64303   4.825   7.827   2.093
21354WAT     H164304   4.746   7.871   2.135
21354WAT     H264305   4.893   7.807   2.164
21355WAT      O64306   6.763   7.502   3.232
21355WAT     H164307   6.828   7.574   3.207
21355WAT     H264308   6.752   7.501   3.332
21356WAT      O64309   0.887   2.317   2.762
21356WAT     H164310   0.881   2.341   2.859
21356WAT     H264311   0.797   2.291   2.728
21357WAT      O64312   8.988   5.177   0.830
21357WAT     H164313   9.075   5.161   0.876
21357WAT     H264314   8.913   5.152   0.891
21358WAT      O64315   6.868   6.058   6.065
21358WAT     H164316   6.917   5.987   6.116
21358WAT     H264317   6.789   6.018   6.020
21359WAT      O64318   5.618   2.700   3.922
21359WAT     H164319   5.682   2.624   3.910
21359WAT     H264320   5.670   2.785   3.936
21360WAT      O64321   8.736   1.979   0.835
21360WAT     H164322   8.795   2.028   0.770
21360WAT     H264323   8.678   2.044   0.883
21361WAT      O64324   4.949   5.493   2.522
21361WAT     H164325   5.005   5.544   2.587
21361WAT     H264326   4.884   5.436   2.572
21362WAT      O64327   9.379   6.308   8.684
21362WAT     H164328   9.341   6.299   8.592
21362WAT     H264329   9.451   6.378   8.682
21363WAT      O64330   2.833   6.143   6.135
21363WAT     H164331   2.761   6.116   6.072
21363WAT     H264332   2.821   6.239   6.161
21364WAT      O64333   9.132   2.863   6.721
21364WAT     H164334   9.106   2.857   6.624
21364WAT     H264335   9.225   2.828   6.733
21365WAT      O64336   8.527   4.009   9.732
21365WAT     H164337   8.488   4.087   9.683
21365WAT     H264338   8.497   4.012   9.827
21366WAT      O64339   6.004   7.430   1.545
21366WAT     H164340   6.075   7.380   1.595
21366WAT     H264341   5.949   7.365   1.491
21367WAT      O64342   4.396   6.730   2.637
21367WAT     H164343   4.390   6.791   2.558
21367WAT     H264344   4.469   6.664   2.622
21368WAT      O64345   7.832   5.117   9.230
21368WAT     H164346   7.780   5.036   9.203
21368WAT     H264347   7.925   5.110   9.194
21369WAT      O64348   2.856   7.985   1.602
21369WAT     H164349   2.955   8.001   1.603
21369WAT     H264350   2.812   8.043   1.671
21370WAT      O64351   4.899   5.695   0.775
21370WAT     H164352   4.902   5.730   0.682
21370WAT     H264353   4.972   5.738   0.829
21371WAT      O64354   4.512   8.031   1.543
21371WAT     H164355   4.595   8.061   1.496
21371WAT     H264356   4.434   8.039   1.481
21372WAT      O64357   8.279   9.415   6.515
21372WAT     H164358   8.345   9.381   6.448
21372WAT     H264359   8.317   9.403   6.607
21373WAT      O64360   8.522   7.933   1.550
21373WAT     H164361   8.609   7.894   1.521
21373WAT     H264362   8.482   7.987   1.475
21374WAT      O64363   8.101   8.180   0.972
21374WAT     H164364   8.080   8.254   0.908
21374WAT     H264365   8.064   8.203   1.062
21375WAT      O64366   5.191   4.252   3.770
21375WAT     H164367   5.262   4.188   3.799
21375WAT     H264368   5.127   4.206   3.709
21376WAT      O64369   9.765   4.586   8.520
21376WAT     H164370   9.694   4.525   8.554
21376WAT     H264371   9.764   4.585   8.420
21377WAT      O64372   2.509   3.426   3.065
21377WAT     H164373   2.449   3.412   2.986
21377WAT     H264374   2.589   3.368   3.057
21378WAT      O64375   1.487   6.507   6.313
21378WAT     H164376   1.487   6.429   6.377
21378WAT     H264377   1.426   6.486   6.236
21379WAT      O64378   2.934   4.532   7.410
21379WAT     H164379   2.938   4.447   7.358
21379WAT     H264380   2.869   4.595   7.368
21380WAT      O64381   7.416   8.049   2.273
21380WAT     H164382   7.504   8.034   2.318
21380WAT     H264383   7.342   8.029   2.338
21381WAT      O64384   3.839   8.674   3.670
21381WAT     H164385   3.784   8.753   3.697
21381WAT     H264386   3.782   8.592   3.671
21382WAT      O64387   9.791   3.057   2.632
21382WAT     H164388   9.800   2.963   2.599
21382WAT     H264389   9.694   3.081   2.636
21383WAT      O64390   4.127   8.930   1.895
21383WAT     H164391   4.037   8.928   1.939
21383WAT     H264392   4.198   8.921   1.965
21384WAT      O64393   0.384   5.637   4.684
21384WAT     H164394   0.315   5.609   4.751
21384WAT     H264395   0.426   5.723   4.714
21385WAT      O64396   4.535   7.713   2.314
21385WAT     H164397   4.555   7.628   2.266
21385WAT     H264398   4.440   7.711   2.348
21386WAT      O64399   1.676   8.496   2.440
21386WAT     H164400   1.668   8.413   2.496
21386WAT     H264401   1.742   8.558   2.482
21387WAT      O64402   2.206   0.199   7.966
21387WAT     H164403   2.237   0.294   7.966
21387WAT     H264404   2.137   0.186   8.037
21388WAT      O64405   4.592   1.345   9.380
21388WAT     H164406   4.515   1.397   9.344
21388WAT     H264407   4.660   1.333   9.307
21389WAT      O64408   7.689   0.584   0.748
21389WAT     H164409   7.662   0.493   0.717
21389WAT     H264410   7.741   0.630   0.677
21390WAT      O64411   8.256   3.755   0.780
21390WAT     H164412   8.312   3.807   0.846
21390WAT     H264413   8.159   3.766   0.803
21391WAT      O64414   3.937   0.958   6.655
21391WAT     H164415   3.872   1.034   6.654
21391WAT     H264416   4.027   0.992   6.685
21392WAT      O64417   7.915   5.071   7.291
21392WAT     H164418   7.913   5.101   7.386
21392WAT     H264419   7.918   4.971   7.287
21393WAT      O64420   2.663   9.041   1.626
21393WAT     H164421   2.564   9.049   1.632
21393WAT     H264422   2.705   9.127   1.656
21394WAT      O64423   8.197   9.330   2.102
21394WAT     H164424   8.147   9.396   2.158
21394WAT     H264425   8.137   9.295   2.030
21395WAT      O64426   0.423   7.795   6.668
21395WAT     H164427   0.469   7.735   6.733
21395WAT     H264428   0.468   7.885   6.668
21396WAT      O64429   8.800   0.201   3.413
21396WAT     H164430   8.812   0.180   3.316
21396WAT     H264431   8.829   0.122   3.467
21397WAT      O64432   8.978   2.432   6.726
21397WAT     H164433   8.895   2.429   6.670
21397WAT     H264434   9.054   2.468   6.671
21398WAT      O64435   2.688   0.586   9.437
21398WAT     H164436   2.783   0.575   9.407
21398WAT     H264437   2.676   0.678   9.475
21399WAT      O64438   2.930   5.025   8.343
21399WAT     H164439   2.856   5.091   8.354
21399WAT     H264440   2.997   5.061   8.278
21400WAT      O64441   0.310   0.408   1.734
21400WAT     H164442   0.316   0.326   1.677
21400WAT     H264443   0.239   0.395   1.804
21401WAT      O64444   0.513   9.545   1.040
21401WAT     H164445   0.598   9.532   0.987
21401WAT     H264446   0.519   9.493   1.125
21402WAT      O64447   1.316   3.413   0.043
21402WAT     H164448   1.394   3.407   0.105
21402WAT     H264449   1.231   3.402   0.094
21403WAT      O64450   3.844   2.189   5.795
21403WAT     H164451   3.843   2.287   5.817
21403WAT     H264452   3.812   2.176   5.702
21404WAT      O64453   0.982   4.682   3.435
21404WAT     H164454   1.005   4.589   3.407
21404WAT     H264455   0.883   4.694   3.432
21405WAT      O64456   0.908   7.885   5.822
21405WAT     H164457   0.881   7.868   5.916
21405WAT     H264458   0.916   7.983   5.806
21406WAT      O64459   2.209   1.168   6.238
21406WAT     H164460   2.233   1.234   6.309
21406WAT     H264461   2.292   1.127   6.201
21407WAT      O64462   4.175   3.241   2.618
21407WAT     H164463   4.092   3.292   2.600
21407WAT     H264464   4.245   3.302   2.656
21408WAT      O64465   6.045   2.364   1.305
21408WAT     H164466   5.987   2.445   1.294
21408WAT     H264467   6.138   2.392   1.327
21409WAT      O64468   0.008   6.752   5.228
21409WAT     H164469  -0.082   6.772   5.189
21409WAT     H264470   0.036   6.827   5.288
21410WAT      O64471   3.280   6.449   0.579
21410WAT     H164472   3.361   6.458   0.521
21410WAT     H264473   3.211   6.395   0.533
21411WAT      O64474   5.379   4.909   9.231
21411WAT     H164475   5.393   5.000   9.268
21411WAT     H264476   5.448   4.847   9.266
21412WAT      O64477   2.833   1.562   8.347
21412WAT     H164478   2.878   1.580   8.434
21412WAT     H264479   2.898   1.520   8.284
21413WAT      O64480   3.969   5.148   1.422
21413WAT     H164481   3.929   5.211   1.356
21413WAT     H264482   3.970   5.056   1.383
21414WAT      O64483   6.452   1.428   6.805
21414WAT     H164484   6.495   1.511   6.769
21414WAT     H264485   6.405   1.380   6.731
21415WAT      O64486   5.972   3.884   4.649
21415WAT     H164487   5.885   3.868   4.603
21415WAT     H264488   5.994   3.981   4.646
21416WAT      O64489   1.804   7.603   7.767
21416WAT     H164490   1.848   7.693   7.760
21416WAT     H264491   1.870   7.536   7.800
21417WAT      O64492   8.862   0.737   6.869
21417WAT     H164493   8.904   0.782   6.791
21417WAT     H264494   8.903   0.772   6.954
21418WAT      O64495   5.413   4.597   9.617
21418WAT     H164496   5.371   4.667   9.675
21418WAT     H264497   5.442   4.639   9.531
21419WAT      O64498   8.284   1.738   1.791
21419WAT     H164499   8.212   1.732   1.721
21419WAT     H264500   8.248   1.783   1.873
21420WAT      O64501   2.153   8.389   4.452
21420WAT     H164502   2.215   8.405   4.374
21420WAT     H264503   2.100   8.472   4.469
21421WAT      O64504   0.645   6.174   3.989
21421WAT     H164505   0.606   6.175   3.897
21421WAT     H264506   0.713   6.100   3.995
21422WAT      O64507   8.015   6.663   3.690
21422WAT     H164508   8.067   6.583   3.719
21422WAT     H264509   7.955   6.693   3.764
21423WAT      O64510   4.180   1.783   5.874
21423WAT     H164511   4.279   1.797   5.863
21423WAT     H264512   4.132   1.826   5.798
21424WAT      O64513   5.281   8.555   4.487
21424WAT     H164514   5.266   8.463   4.450
21424WAT     H264515   5.204   8.614   4.464
21425WAT      O64516   5.015   8.259   5.412
21425WAT     H164517   5.048   8.173   5.373
21425WAT     H264518   5.041   8.335   5.354
21426WAT      O64519   0.552   1.325   2.251
21426WAT     H164520   0.640   1.327   2.298
21426WAT     H264521   0.495   1.253   2.291
21427WAT      O64522   0.337   0.243   0.595
21427WAT     H164523   0.346   0.329   0.646
21427WAT     H264524   0.401   0.176   0.632
21428WAT      O64525   8.160   1.483   2.727
21428WAT     H164526   8.254   1.489   2.761
21428WAT     H264527   8.109   1.417   2.782
21429WAT      O64528   9.469   6.945   8.249
21429WAT     H164529   9.383   6.910   8.286
21429WAT     H264530   9.456   6.974   8.155
21430WAT      O64531   6.435   8.679   1.752
21430WAT     H164532   6.506   8.740   1.789
21430WAT     H264533   6.353   8.732   1.730
21431WAT      O64534   8.963   1.757   7.539
21431WAT     H164535   9.003   1.813   7.612
21431WAT     H264536   9.030   1.690   7.507
21432WAT      O64537   5.819   9.469   3.654
21432WAT     H164538   5.846   9.452   3.749
21432WAT     H264539   5.881   9.536   3.613
21433WAT      O64540   3.917   9.837   2.196
21433WAT     H164541   3.879   9.761   2.249
21433WAT     H264542   4.013   9.849   2.220
21434WAT      O64543   1.747   9.558   6.651
21434WAT     H164544   1.830   9.517   6.613
21434WAT     H264545   1.739   9.652   6.619
21435WAT      O64546   5.908   8.884   5.707
21435WAT     H164547   5.855   8.820   5.762
21435WAT     H264548   5.967   8.833   5.644
21436WAT      O64549   2.585   3.238   2.457
21436WAT     H164550   2.659   3.172   2.444
21436WAT     H264551   2.601   3.318   2.399
21437WAT      O64552   3.851   6.227   6.094
21437WAT     H164553   3.886   6.224   6.188
21437WAT     H264554   3.862   6.136   6.052
21438WAT      O64555   5.333   6.595   0.913
21438WAT     H164556   5.400   6.668   0.901
21438WAT     H264557   5.344   6.527   0.840
21439WAT      O64558   8.352   8.919   5.831
21439WAT     H164559   8.284   8.970   5.778
21439WAT     H264560   8.315   8.830   5.858
21440WAT      O64561   7.271   3.034   8.020
21440WAT     H164562   7.191   3.092   8.033
21440WAT     H264563   7.338   3.082   7.963
21441WAT      O64564   1.253   6.227   5.548
21441WAT     H164565   1.340   6.255   5.506
21441WAT     H264566   1.224   6.297   5.613
21442WAT      O64567   4.704   1.878   6.483
21442WAT     H164568   4.628   1.834   6.435
21442WAT     H264569   4.700   1.855   6.580
21443WAT      O64570   8.976   8.415   1.800
21443WAT     H164571   8.987   8.357   1.719
21443WAT     H264572   8.892   8.389   1.848
21444WAT      O64573   7.103   6.848   4.120
21444WAT     H164574   7.156   6.831   4.203
21444WAT     H264575   7.009   6.872   4.145
21445WAT      O64576   4.344   0.240   9.743
21445WAT     H164577   4.329   0.243   9.842
21445WAT     H264578   4.399   0.160   9.720
21446WAT      O64579   1.410   1.326   5.583
21446WAT     H164580   1.360   1.239   5.582
21446WAT     H264581   1.500   1.311   5.624
21447WAT      O64582   5.017   8.454   4.520
21447WAT     H164583   5.068   8.426   4.439
21447WAT     H264584   4.920   8.435   4.506
21448WAT      O64585   0.871   6.666   8.635
21448WAT     H164586   0.901   6.571   8.624
21448WAT     H264587   0.835   6.700   8.548
21449WAT      O64588   4.774   9.233   8.730
21449WAT     H164589   4.801   9.163   8.795
21449WAT     H264590   4.821   9.218   8.643
21450WAT      O64591   9.604   0.493   1.502
21450WAT     H164592   9.634   0.430   1.574
21450WAT     H264593   9.635   0.459   1.413
21451WAT      O64594   5.191   7.126   5.910
21451WAT     H164595   5.097   7.144   5.881
21451WAT     H264596   5.250   7.202   5.881
21452WAT      O64597   9.763   8.337   2.995
21452WAT     H164598   9.819   8.293   2.925
21452WAT     H264599   9.811   8.336   3.083
21453WAT      O64600   7.041   6.521   5.490
21453WAT     H164601   7.027   6.605   5.542
21453WAT     H264602   6.955   6.470   5.487
21454WAT      O64603   1.443   8.839   2.003
21454WAT     H164604   1.404   8.871   2.089
21454WAT     H264605   1.388   8.874   1.926
21455WAT      O64606   8.773   9.758   9.568
21455WAT     H164607   8.783   9.664   9.599
21455WAT     H264608   8.863   9.803   9.568
21456WAT      O64609   4.401   5.650   5.541
21456WAT     H164610   4.419   5.716   5.469
21456WAT     H264611   4.427   5.689   5.630
21457WAT      O64612   1.395   7.591   4.369
21457WAT     H164613   1.396   7.629   4.277
21457WAT     H264614   1.394   7.665   4.436
21458WAT      O64615   2.478   0.393   1.852
21458WAT     H164616   2.573   0.424   1.851
21458WAT     H264617   2.422   0.455   1.796
21459WAT      O64618   2.818   1.180   8.064
21459WAT     H164619   2.771   1.173   8.152
21459WAT     H264620   2.859   1.091   8.042
21460WAT      O64621   6.066   9.489   3.430
21460WAT     H164622   6.089   9.564   3.492
21460WAT     H264623   6.132   9.415   3.441
21461WAT      O64624   3.836   4.147   6.608
21461WAT     H164625   3.809   4.071   6.668
21461WAT     H264626   3.793   4.231   6.640
21462WAT      O64627   3.276   8.872   6.698
21462WAT     H164628   3.370   8.855   6.727
21462WAT     H264629   3.213   8.830   6.764
21463WAT      O64630   6.998   3.823   7.934
21463WAT     H164631   7.054   3.879   7.994
21463WAT     H264632   7.057   3.778   7.866
21464WAT      O64633   3.891   8.794   2.760
21464WAT     H164634   3.799   8.767   2.731
21464WAT     H264635   3.905   8.765   2.855
21465WAT      O64636   8.191   2.999   3.047
21465WAT     H164637   8.194   3.050   3.133
21465WAT     H264638   8.270   3.024   2.991
21466WAT      O64639   0.342   9.667   1.342
21466WAT     H164640   0.321   9.570   1.327
21466WAT     H264641   0.406   9.675   1.418
21467WAT      O64642   4.214   2.455   9.556
21467WAT     H164643   4.252   2.520   9.621
21467WAT     H264644   4.181   2.374   9.606
21468WAT      O64645   6.153   7.543   5.815
21468WAT     H164646   6.230   7.565   5.755
21468WAT     H264647   6.187   7.502   5.900
21469WAT      O64648   4.442   8.400   7.978
21469WAT     H164649   4.497   8.325   7.941
21469WAT     H264650   4.433   8.472   7.910
21470WAT      O64651   1.090   9.395   0.404
21470WAT     H164652   1.000   9.361   0.433
21470WAT     H264653   1.157   9.321   0.410
21471WAT      O64654   6.637   8.272   1.241
21471WAT     H164655   6.626   8.328   1.159
21471WAT     H264656   6.726   8.290   1.282
21472WAT      O64657   1.655   5.529   4.954
21472WAT     H164658   1.726   5.459   4.959
21472WAT     H264659   1.681   5.599   4.887
21473WAT      O64660   8.757   7.564   4.084
21473WAT     H164661   8.839   7.613   4.111
21473WAT     H264662   8.771   7.520   3.995
21474WAT      O64663   3.533   7.322   7.499
21474WAT     H164664   3.547   7.370   7.412
21474WAT     H264665   3.620   7.284   7.530
21475WAT      O64666   9.447   2.170   8.907
21475WAT     H164667   9.489   2.135   8.991
21475WAT     H264668   9.384   2.244   8.929
21476WAT      O64669   2.871   4.828   3.796
21476WAT     H164670   2.838   4.837   3.890
21476WAT     H264671   2.815   4.886   3.735
21477WAT      O64672   1.737   4.519   9.152
21477WAT     H164673   1.780   4.601   9.115
21477WAT     H264674   1.786   4.438   9.119
21478WAT      O64675   5.643   3.198   5.653
21478WAT     H164676   5.654   3.200   5.753
21478WAT     H264677   5.579   3.270   5.626
21479WAT      O64678   0.477   9.801   4.948
21479WAT     H164679   0.535   9.726   4.916
21479WAT     H264680   0.465   9.867   4.875
21480WAT      O64681   2.505   4.354   1.613
21480WAT     H164682   2.589   4.347   1.667
21480WAT     H264683   2.451   4.271   1.625
21481WAT      O64684   0.489   4.212   9.367
21481WAT     H164685   0.480   4.292   9.426
21481WAT     H264686   0.488   4.242   9.271
21482WAT      O64687   7.216   8.390   0.846
21482WAT     H164688   7.254   8.465   0.793
21482WAT     H264689   7.281   8.314   0.847
21483WAT      O64690   7.885   6.218   6.780
21483WAT     H164691   7.980   6.200   6.807
21483WAT     H264692   7.823   6.175   6.845
21484WAT      O64693   8.383   4.150   3.489
21484WAT     H164694   8.408   4.148   3.586
21484WAT     H264695   8.428   4.074   3.442
21485WAT      O64696   2.609   4.697   6.239
21485WAT     H164697   2.518   4.656   6.241
21485WAT     H264698   2.677   4.632   6.274
21486WAT      O64699   6.710   2.254   9.611
21486WAT     H164700   6.800   2.210   9.616
21486WAT     H264701   6.693   2.305   9.695
21487WAT      O64702   6.534   2.995   5.680
21487WAT     H164703   6.615   2.996   5.622
21487WAT     H264704   6.492   3.086   5.681
21488WAT      O64705   7.990   2.244   3.391
21488WAT     H164706   8.014   2.178   3.320
21488WAT     H264707   7.997   2.199   3.481
21489WAT      O64708   2.205   7.035   3.466
21489WAT     H164709   2.231   7.019   3.371
21489WAT     H264710   2.260   6.975   3.525
21490WAT      O64711   7.809   6.417   3.099
21490WAT     H164712   7.810   6.331   3.048
21490WAT     H264713   7.715   6.447   3.113
21491WAT      O64714   1.693   5.741   8.958
21491WAT     H164715   1.792   5.731   8.972
21491WAT     H264716   1.658   5.658   8.915
21492WAT      O64717   7.553   4.736   2.827
21492WAT     H164718   7.570   4.788   2.743
21492WAT     H264719   7.505   4.652   2.805
21493WAT      O64720   5.268   7.139   6.226
21493WAT     H164721   5.216   7.153   6.141
21493WAT     H264722   5.325   7.058   6.216
21494WAT      O64723   2.909   1.001   0.054
21494WAT     H164724   2.869   0.937   0.119
21494WAT     H264725   2.841   1.070   0.028
21495WAT      O64726   6.456   4.557   4.875
21495WAT     H164727   6.511   4.484   4.835
21495WAT     H264728   6.500   4.645   4.858
21496WAT      O64729   2.674   5.720   1.747
21496WAT     H164730   2.644   5.641   1.693
21496WAT     H264731   2.599   5.749   1.806
21497WAT      O64732   5.257   1.853   4.165
21497WAT     H164733   5.275   1.920   4.237
21497WAT     H264734   5.182   1.886   4.108
21498WAT      O64735   5.453   8.106   2.314
21498WAT     H164736   5.550   8.080   2.309
21498WAT     H264737   5.431   8.167   2.238
21499WAT      O64738   0.367   0.892   5.925
21499WAT     H164739   0.424   0.905   5.844
21499WAT     H264740   0.302   0.968   5.933
21500WAT      O64741   2.709   2.981   8.804
21500WAT     H164742   2.669   2.890   8.804
21500WAT     H264743   2.654   3.041   8.745
21501WAT      O64744   9.366   9.821   7.837
21501WAT     H164745   9.287   9.846   7.781
21501WAT     H264746   9.390   9.897   7.897
21502WAT      O64747   5.938   7.610   5.164
21502WAT     H164748   5.848   7.654   5.168
21502WAT     H264749   5.926   7.511   5.152
21503WAT      O64750   2.932   9.266   8.226
21503WAT     H164751   3.010   9.220   8.270
21503WAT     H264752   2.960   9.300   8.136
21504WAT      O64753   6.217   2.369   4.054
21504WAT     H164754   6.284   2.296   4.069
21504WAT     H264755   6.233   2.443   4.120
21505WAT      O64756   9.238   3.060   7.612
21505WAT     H164757   9.251   3.153   7.579
21505WAT     H264758   9.257   3.056   7.710
21506WAT      O64759   8.845   0.170   5.977
21506WAT     H164760   8.831   0.252   6.031
21506WAT     H264761   8.811   0.090   6.027
21507WAT      O64762   6.085   0.787   9.606
21507WAT     H164763   6.157   0.729   9.567
21507WAT     H264764   6.033   0.830   9.533
21508WAT      O64765   7.695   2.771   7.383
21508WAT     H164766   7.700   2.707   7.459
21508WAT     H264767   7.609   2.821   7.386
21509WAT      O64768   2.016   8.233   8.923
21509WAT     H164769   2.095   8.176   8.947
21509WAT     H264770   2.029   8.325   8.959
21510WAT      O64771   1.325   5.906   3.468
21510WAT     H164772   1.242   5.880   3.516
21510WAT     H264773   1.342   5.842   3.392
21511WAT      O64774   0.640   5.549   3.900
21511WAT     H164775   0.664   5.606   3.979
21511WAT     H264776   0.723   5.531   3.846
21512WAT      O64777   2.098   8.164   5.252
21512WAT     H164778   2.135   8.084   5.300
21512WAT     H264779   1.999   8.156   5.247
21513WAT      O64780   9.777   8.509   8.885
21513WAT     H164781   9.708   8.447   8.846
21513WAT     H264782   9.855   8.516   8.824
21514WAT      O64783   0.414   8.620   9.142
21514WAT     H164784   0.381   8.611   9.048
21514WAT     H264785   0.365   8.695   9.187
21515WAT      O64786   2.856   4.496   1.062
21515WAT     H164787   2.885   4.401   1.058
21515WAT     H264788   2.782   4.512   0.997
21516WAT      O64789   5.104   5.641   1.520
21516WAT     H164790   5.016   5.678   1.551
21516WAT     H264791   5.176   5.668   1.584
21517WAT      O64792   7.251   0.112   7.070
21517WAT     H164793   7.175   0.065   7.114
21517WAT     H264794   7.326   0.046   7.055
21518WAT      O64795   4.564   6.439   0.800
21518WAT     H164796   4.543   6.436   0.702
21518WAT     H264797   4.541   6.351   0.841
21519WAT      O64798   1.327   5.526   5.859
21519WAT     H164799   1.285   5.565   5.941
21519WAT     H264800   1.422   5.500   5.879
21520WAT      O64801   3.994   7.509   8.195
21520WAT     H164802   4.072   7.538   8.139
21520WAT     H264803   3.970   7.582   8.259
21521WAT      O64804   7.843   0.302   9.849
21521WAT     H164805   7.779   0.278   9.776
21521WAT     H264806   7.856   0.401   9.852
21522WAT      O64807   3.832   9.177   8.521
21522WAT     H164808   3.864   9.127   8.441
21522WAT     H264809   3.750   9.132   8.558
21523WAT      O64810   2.424   0.610   9.262
21523WAT     H164811   2.338   0.647   9.298
21523WAT     H264812   2.471   0.561   9.335
21524WAT      O64813   0.661   4.747   8.080
21524WAT     H164814   0.583   4.806   8.100
21524WAT     H264815   0.743   4.786   8.123
21525WAT      O64816   2.398   1.451   9.260
21525WAT     H164817   2.307   1.460   9.301
21525WAT     H264818   2.393   1.391   9.180
21526WAT      O64819   5.965   4.214   9.557
21526WAT     H164820   5.964   4.119   9.588
21526WAT     H264821   5.883   4.261   9.590
21527WAT      O64822   7.068   3.821   1.432
21527WAT     H164823   7.086   3.743   1.493
21527WAT     H264824   7.089   3.906   1.480
21528WAT      O64825   5.205   6.938   4.324
21528WAT     H164826   5.155   7.018   4.290
21528WAT     H264827   5.302   6.949   4.304
21529WAT      O64828   5.802   4.867   7.764
21529WAT     H164829   5.707   4.843   7.786
21529WAT     H264830   5.841   4.796   7.705
21530WAT      O64831   3.656   4.812   1.378
21530WAT     H164832   3.628   4.904   1.406
21530WAT     H264833   3.593   4.779   1.307
21531WAT      O64834   6.356   8.952   6.634
21531WAT     H164835   6.352   8.859   6.596
21531WAT     H264836   6.368   9.017   6.560
21532WAT      O64837   7.317   3.458   2.272
21532WAT     H164838   7.400   3.407   2.249
21532WAT     H264839   7.250   3.396   2.313
21533WAT      O64840   1.069   0.965   6.831
21533WAT     H164841   1.139   1.034   6.812
21533WAT     H264842   1.019   0.944   6.747
21534WAT      O64843   5.656   6.418   3.580
21534WAT     H164844   5.717   6.345   3.549
21534WAT     H264845   5.564   6.402   3.544
21535WAT      O64846   9.837   5.954   4.401
21535WAT     H164847   9.861   5.861   4.432
21535WAT     H264848   9.882   5.973   4.314
21536WAT      O64849   5.515   2.290   8.101
21536WAT     H164850   5.595   2.349   8.115
21536WAT     H264851   5.442   2.317   8.163
21537WAT      O64852   0.315   1.473   8.743
21537WAT     H164853   0.221   1.447   8.763
21537WAT     H264854   0.359   1.505   8.827
21538WAT      O64855   1.792   0.720   0.560
21538WAT     H164856   1.714   0.766   0.603
21538WAT     H264857   1.865   0.787   0.543
21539WAT      O64858   4.662   7.862   8.460
21539WAT     H164859   4.629   7.805   8.385
21539WAT     H264860   4.762   7.853   8.468
21540WAT      O64861   0.571   2.677   0.875
21540WAT     H164862   0.504   2.744   0.844
21540WAT     H264863   0.595   2.616   0.799
21541WAT      O64864   5.049   1.747   9.525
21541WAT     H164865   5.085   1.769   9.434
21541WAT     H264866   5.121   1.708   9.582
21542WAT      O64867   0.833   4.724   6.791
21542WAT     H164868   0.907   4.704   6.855
21542WAT     H264869   0.750   4.678   6.821
21543WAT      O64870   6.064   0.143   7.173
21543WAT     H164871   5.992   0.207   7.147
21543WAT     H264872   6.146   0.193   7.199
21544WAT      O64873   7.603   2.876   8.065
21544WAT     H164874   7.583   2.922   8.151
21544WAT     H264875   7.637   2.783   8.083
21545WAT      O64876   6.355   2.623   2.209
21545WAT     H164877   6.330   2.540   2.258
21545WAT     H264878   6.272   2.676   2.190
21546WAT      O64879   5.578   5.430   6.090
21546WAT     H164880   5.561   5.332   6.091
21546WAT     H264881   5.675   5.447   6.077
21547WAT      O64882   1.504   7.970   2.076
21547WAT     H164883   1.564   7.899   2.113
21547WAT     H264884   1.539   8.060   2.101
21548WAT      O64885   9.046   3.750   2.710
21548WAT     H164886   9.130   3.797   2.681
21548WAT     H264887   9.030   3.671   2.651
21549WAT      O64888   1.662   8.657   8.176
21549WAT     H164889   1.581   8.678   8.122
21549WAT     H264890   1.635   8.613   8.261
21550WAT      O64891   8.851   5.753   0.933
21550WAT     H164892   8.815   5.820   0.868
21550WAT     H264893   8.804   5.666   0.922
21551WAT      O64894   9.726   4.448   0.378
21551WAT     H164895   9.687   4.390   0.307
21551WAT     H264896   9.655   4.507   0.417
21552WAT      O64897   7.504   3.883   5.155
21552WAT     H164898   7.507   3.790   5.119
21552WAT     H264899   7.485   3.947   5.080
21553WAT      O64900   6.164   0.992   5.394
21553WAT     H164901   6.153   0.914   5.333
21553WAT     H264902   6.094   0.989   5.465
21554WAT      O64903   9.553   7.939   1.446
21554WAT     H164904   9.486   7.966   1.515
21554WAT     H264905   9.551   8.004   1.370
21555WAT      O64906   4.566   7.936   8.942
21555WAT     H164907   4.653   7.969   8.905
21555WAT     H264908   4.527   8.004   9.003
21556WAT      O64909   0.821   8.334   5.369
21556WAT     H164910   0.776   8.255   5.411
21556WAT     H264911   0.920   8.321   5.371
21557WAT      O64912   6.851   3.789   6.436
21557WAT     H164913   6.760   3.827   6.450
21557WAT     H264914   6.912   3.821   6.509
21558WAT      O64915   1.097   8.680   4.175
21558WAT     H164916   1.018   8.647   4.123
21558WAT     H264917   1.081   8.774   4.204
21559WAT      O64918   0.829   5.567   6.522
21559WAT     H164919   0.906   5.624   6.551
21559WAT     H264920   0.832   5.555   6.423
21560WAT      O64921   9.570   6.151   1.842
21560WAT     H164922   9.483   6.115   1.807
21560WAT     H264923   9.612   6.209   1.772
21561WAT      O64924   1.666   4.233   5.145
21561WAT     H164925   1.734   4.305   5.134
21561WAT     H264926   1.660   4.207   5.241
21562WAT      O64927   8.144   1.232   6.696
21562WAT     H164928   8.224   1.203   6.645
21562WAT     H264929   8.165   1.317   6.746
21563WAT      O64930   3.643   5.614   6.464
21563WAT     H164931   3.601   5.704   6.474
21563WAT     H264932   3.573   5.546   6.439
21564WAT      O64933   1.161   3.216   4.902
21564WAT     H164934   1.197   3.250   4.816
21564WAT     H264935   1.116   3.128   4.887
21565WAT      O64936   0.816   9.781   0.413
21565WAT     H164937   0.728   9.760   0.371
21565WAT     H264938   0.830   9.880   0.414
21566WAT      O64939   7.720   2.872   9.265
21566WAT     H164940   7.702   2.961   9.223
21566WAT     H264941   7.819   2.854   9.263
21567WAT      O64942   3.544   4.197   7.665
21567WAT     H164943   3.502   4.167   7.751
21567WAT     H264944   3.632   4.151   7.653
21568WAT      O64945   4.245   5.110   7.841
21568WAT     H164946   4.156   5.146   7.813
21568WAT     H264947   4.308   5.186   7.860
21569WAT      O64948   4.774   1.416   0.136
21569WAT     H164949   4.822   1.450   0.054
21569WAT     H264950   4.677   1.440   0.129
21570WAT      O64951   8.948   7.531   0.546
21570WAT     H164952   9.045   7.533   0.571
21570WAT     H264953   8.932   7.591   0.468
21571WAT      O64954   4.350   5.028   4.047
21571WAT     H164955   4.268   4.978   4.019
21571WAT     H264956   4.414   4.965   4.091
21572WAT      O64957   3.974   6.528   2.761
21572WAT     H164958   4.049   6.525   2.696
21572WAT     H264959   3.956   6.623   2.788
21573WAT      O64960   6.244   5.139   8.560
21573WAT     H164961   6.199   5.052   8.541
21573WAT     H264962   6.292   5.133   8.648
21574WAT      O64963   3.790   9.722   5.675
21574WAT     H164964   3.767   9.806   5.723
21574WAT     H264965   3.867   9.677   5.721
21575WAT      O64966   6.980   2.033   1.373
21575WAT     H164967   6.895   1.990   1.344
21575WAT     H264968   6.995   2.116   1.320
21576WAT      O64969   0.991   0.719   0.231
21576WAT     H164970   0.996   0.800   0.289
21576WAT     H264971   0.921   0.657   0.266
21577WAT      O64972   4.252   8.148   8.902
21577WAT     H164973   4.342   8.163   8.943
21577WAT     H264974   4.197   8.231   8.912
21578WAT      O64975   1.908   5.582   7.669
21578WAT     H164976   1.886   5.678   7.691
21578WAT     H264977   1.849   5.522   7.723
21579WAT      O64978   2.684   4.282   5.762
21579WAT     H164979   2.757   4.328   5.711
21579WAT     H264980   2.649   4.205   5.708
21580WAT      O64981   8.929   5.164   6.954
21580WAT     H164982   8.831   5.143   6.959
21580WAT     H264983   8.960   5.156   6.859
21581WAT      O64984   3.554   2.219   0.281
21581WAT     H164985   3.596   2.222   0.190
21581WAT     H264986   3.488   2.293   0.290
21582WAT      O64987   6.240   9.699   5.568
21582WAT     H164988   6.215   9.785   5.523
21582WAT     H264989   6.273   9.718   5.660
21583WAT      O64990   0.981   0.462   5.585
21583WAT     H164991   1.062   0.459   5.644
21583WAT     H264992   0.900   0.439   5.638
21584WAT      O64993   7.806   0.585   6.933
21584WAT     H164994   7.863   0.579   6.851
21584WAT     H264995   7.846   0.529   7.006
21585WAT      O64996   6.204   7.288   6.381
21585WAT     H164997   6.246   7.226   6.315
21585WAT     H264998   6.112   7.312   6.351
21586WAT      O64999   5.237   6.167   0.890
21586WAT     H165000   5.155   6.214   0.854
21586WAT     H265001   5.241   6.179   0.989
21587WAT      O65002   6.632   8.831   1.865
21587WAT     H165003   6.726   8.853   1.841
21587WAT     H265004   6.591   8.909   1.914
21588WAT      O65005   1.579   7.428   4.822
21588WAT     H165006   1.592   7.360   4.894
21588WAT     H265007   1.665   7.438   4.770
21589WAT      O65008   3.570   6.216   7.863
21589WAT     H165009   3.506   6.214   7.787
21589WAT     H265010   3.528   6.263   7.941
21590WAT      O65011   6.182   9.251   2.980
21590WAT     H165012   6.162   9.305   3.062
21590WAT     H265013   6.105   9.190   2.960
21591WAT      O65014   6.119   3.838   9.503
21591WAT     H165015   6.189   3.803   9.566
21591WAT     H265016   6.112   3.778   9.424
21592WAT      O65017   9.497   6.910   6.558
21592WAT     H165018   9.440   6.933   6.479
21592WAT     H265019   9.456   6.835   6.609
21593WAT      O65020   3.350   7.489   6.370
21593WAT     H165021   3.439   7.506   6.412
21593WAT     H265022   3.310   7.576   6.340
21594WAT      O65023   9.239   0.744   6.901
21594WAT     H165024   9.328   0.704   6.921
21594WAT     H265025   9.231   0.831   6.949
21595WAT      O65026   3.622   2.508   0.481
21595WAT     H165027   3.658   2.418   0.507
21595WAT     H265028   3.695   2.562   0.440
21596WAT      O65029   5.686   6.075   4.806
21596WAT     H165030   5.661   6.167   4.835
21596WAT     H265031   5.786   6.068   4.799
21597WAT      O65032   5.435   6.072   2.892
21597WAT     H165033   5.459   6.106   2.983
21597WAT     H265034   5.417   5.974   2.897
21598WAT      O65035   1.556   2.005   9.480
21598WAT     H165036   1.598   1.993   9.570
21598WAT     H265037   1.602   2.079   9.431
21599WAT      O65038   8.001   1.015   5.238
21599WAT     H165039   8.077   0.960   5.204
21599WAT     H265040   7.916   0.986   5.194
21600WAT      O65041   6.462   7.672   9.350
21600WAT     H165042   6.537   7.609   9.329
21600WAT     H265043   6.379   7.639   9.305
21601WAT      O65044   4.906   4.736   0.224
21601WAT     H165045   4.909   4.671   0.148
21601WAT     H265046   4.997   4.776   0.237
21602WAT      O65047   1.436   1.538   8.705
21602WAT     H165048   1.529   1.539   8.669
21602WAT     H265049   1.434   1.578   8.796
21603WAT      O65050   7.713   7.038   0.092
21603WAT     H165051   7.742   7.129   0.062
21603WAT     H265052   7.689   7.040   0.189
21604WAT      O65053   7.895   6.746   8.100
21604WAT     H165054   7.868   6.831   8.055
21604WAT     H265055   7.963   6.766   8.170
21605WAT      O65056   6.316   1.715   4.133
21605WAT     H165057   6.407   1.736   4.099
21605WAT     H265058   6.294   1.774   4.210
21606WAT      O65059   2.953   2.679   3.974
21606WAT     H165060   3.030   2.653   3.916
21606WAT     H265061   2.906   2.597   4.006
21607WAT      O65062   1.802   1.525   2.855
21607WAT     H165063   1.706   1.513   2.879
21607WAT     H265064   1.851   1.439   2.869
21608WAT      O65065   0.339   1.776   7.881
21608WAT     H165066   0.386   1.819   7.958
21608WAT     H265067   0.241   1.791   7.888
21609WAT      O65068   7.913   9.796   0.902
21609WAT     H165069   7.974   9.867   0.937
21609WAT     H265070   7.842   9.837   0.845
21610WAT      O65071   2.224   9.667   2.516
21610WAT     H165072   2.304   9.633   2.565
21610WAT     H265073   2.143   9.658   2.574
21611WAT      O65074   1.569   3.190   1.460
21611WAT     H165075   1.595   3.154   1.370
21611WAT     H265076   1.563   3.115   1.525
21612WAT      O65077   1.238   7.041   9.853
21612WAT     H165078   1.275   6.954   9.820
21612WAT     H265079   1.140   7.030   9.870
21613WAT      O65080   6.385   9.753   3.496
21613WAT     H165081   6.401   9.833   3.439
21613WAT     H265082   6.441   9.677   3.464
21614WAT      O65083   0.426   3.793   3.132
21614WAT     H165084   0.328   3.812   3.142
21614WAT     H265085   0.439   3.715   3.072
21615WAT      O65086   6.075   7.597   2.743
21615WAT     H165087   6.138   7.670   2.718
21615WAT     H265088   6.021   7.570   2.663
21616WAT      O65089   9.857   3.786   0.414
21616WAT     H165090   9.760   3.799   0.433
21616WAT     H265091   9.911   3.845   0.473
21617WAT      O65092   4.665   0.098   9.509
21617WAT     H165093   4.740   0.032   9.514
21617WAT     H265094   4.586   0.063   9.558
21618WAT      O65095   0.400   1.908   3.632
21618WAT     H165096   0.441   1.898   3.723
21618WAT     H265097   0.317   1.852   3.627
21619WAT      O65098   6.702   9.554   9.254
21619WAT     H165099   6.676   9.497   9.332
21619WAT     H265100   6.672   9.510   9.169
21620WAT      O65101   4.906   1.919   8.539
21620WAT     H165102   4.883   1.866   8.457
21620WAT     H265103   4.928   2.013   8.513
21621WAT      O65104   5.345   1.945   3.141
21621WAT     H165105   5.429   1.936   3.088
21621WAT     H265106   5.329   1.861   3.193
21622WAT      O65107   6.466   9.033   0.169
21622WAT     H165108   6.494   8.957   0.111
21622WAT     H265109   6.482   9.119   0.120
21623WAT      O65110   3.775   6.625   4.883
21623WAT     H165111   3.695   6.683   4.896
21623WAT     H265112   3.849   6.656   4.944
21624WAT      O65113   5.690   3.229   0.644
21624WAT     H165114   5.595   3.221   0.614
21624WAT     H265115   5.707   3.167   0.720
21625WAT      O65116   3.903   5.212   5.008
21625WAT     H165117   3.816   5.181   5.047
21625WAT     H265118   3.979   5.164   5.051
21626WAT      O65119   4.533   3.191   2.345
21626WAT     H165120   4.624   3.195   2.304
21626WAT     H265121   4.464   3.181   2.273
21627WAT      O65122   7.419   5.684   8.588
21627WAT     H165123   7.515   5.683   8.562
21627WAT     H265124   7.400   5.608   8.650
21628WAT      O65125   9.704   9.756   9.826
21628WAT     H165126   9.750   9.845   9.826
21628WAT     H265127   9.709   9.716   9.735
21629WAT      O65128   8.082   3.607   1.083
21629WAT     H165129   8.093   3.510   1.060
21629WAT     H265130   8.023   3.616   1.164
21630WAT      O65131   6.568   6.761   1.991
21630WAT     H165132   6.503   6.801   2.055
21630WAT     H265133   6.594   6.669   2.023
21631WAT      O65134   5.183   7.641   0.340
21631WAT     H165135   5.132   7.664   0.423
21631WAT     H265136   5.279   7.663   0.353
21632WAT      O65137   7.364   7.520   1.774
21632WAT     H165138   7.321   7.593   1.826
21632WAT     H265139   7.419   7.463   1.834
21633WAT      O65140   6.579   9.559   3.447
21633WAT     H165141   6.582   9.468   3.490
21633WAT     H265142   6.673   9.589   3.428
21634WAT      O65143   0.432   7.191   2.052
21634WAT     H165144   0.399   7.108   2.097
21634WAT     H265145   0.356   7.237   2.006
21635WAT      O65146   8.863   4.573   5.515
21635WAT     H165147   8.887   4.663   5.552
21635WAT     H265148   8.800   4.584   5.439
21636WAT      O65149   1.184   2.975   6.915
21636WAT     H165150   1.275   3.007   6.941
21636WAT     H265151   1.178   2.876   6.931
21637WAT      O65152   8.516   0.129   7.551
21637WAT     H165153   8.603   0.113   7.505
21637WAT     H265154   8.530   0.132   7.650
21638WAT      O65155   4.088   0.880   6.322
21638WAT     H165156   4.019   0.947   6.351
21638WAT     H265157   4.156   0.925   6.265
21639WAT      O65158   1.320   8.906   1.761
21639WAT     H165159   1.394   8.941   1.703
21639WAT     H265160   1.256   8.980   1.782
21640WAT      O65161   7.228   8.221   5.565
21640WAT     H165162   7.240   8.287   5.490
21640WAT     H265163   7.233   8.128   5.528
21641WAT      O65164   9.025   0.172   4.309
21641WAT     H165165   9.006   0.225   4.392
21641WAT     H265166   9.042   0.236   4.233
21642WAT      O65167   3.011   4.965   7.168
21642WAT     H165168   3.017   5.036   7.238
21642WAT     H265169   3.085   4.978   7.102
21643WAT      O65170   7.617   7.602   4.265
21643WAT     H165171   7.665   7.681   4.226
21643WAT     H265172   7.536   7.582   4.209
21644WAT      O65173   6.457   3.488   3.070
21644WAT     H165174   6.506   3.567   3.035
21644WAT     H265175   6.373   3.475   3.017
21645WAT      O65176   7.158   7.724   8.795
21645WAT     H165177   7.062   7.738   8.820
21645WAT     H265178   7.188   7.634   8.827
21646WAT      O65179   9.059   8.883   4.343
21646WAT     H165180   9.007   8.954   4.390
21646WAT     H265181   9.007   8.798   4.341
21647WAT      O65182   2.713   1.432   6.194
21647WAT     H165183   2.697   1.497   6.269
21647WAT     H265184   2.684   1.474   6.107
21648WAT      O65185   7.864   6.321   2.724
21648WAT     H165186   7.830   6.414   2.736
21648WAT     H265187   7.827   6.263   2.797
21649WAT      O65188   8.571   0.454   3.123
21649WAT     H165189   8.472   0.472   3.130
21649WAT     H265190   8.587   0.356   3.139
21650WAT      O65191   5.503   0.452   1.068
21650WAT     H165192   5.478   0.355   1.063
21650WAT     H265193   5.565   0.474   0.993
21651WAT      O65194   6.176   5.586   7.771
21651WAT     H165195   6.154   5.670   7.721
21651WAT     H265196   6.098   5.560   7.829
21652WAT      O65197   4.841   1.420   6.410
21652WAT     H165198   4.788   1.460   6.335
21652WAT     H265199   4.848   1.321   6.398
21653WAT      O65200   8.411   0.769   1.770
21653WAT     H165201   8.418   0.671   1.752
21653WAT     H265202   8.501   0.811   1.763
21654WAT      O65203   4.225   5.172   8.422
21654WAT     H165204   4.275   5.258   8.418
21654WAT     H265205   4.170   5.169   8.505
21655WAT      O65206   9.607   3.427   6.760
21655WAT     H165207   9.533   3.486   6.727
21655WAT     H265208   9.572   3.334   6.773
21656WAT      O65209   8.156   7.866   0.184
21656WAT     H165210   8.158   7.811   0.268
21656WAT     H265211   8.233   7.929   0.184
21657WAT      O65212   2.153   8.112   3.890
21657WAT     H165213   2.249   8.104   3.861
21657WAT     H265214   2.094   8.112   3.809
21658WAT      O65215   8.420   7.667   5.560
21658WAT     H165216   8.418   7.620   5.472
21658WAT     H265217   8.455   7.605   5.631
21659WAT      O65218   4.112   0.940   8.960
21659WAT     H165219   4.144   0.848   8.935
21659WAT     H265220   4.122   1.001   8.881
21660WAT      O65221   5.971   4.335   8.046
21660WAT     H165222   6.031   4.325   7.967
21660WAT     H265223   5.885   4.287   8.029
21661WAT      O65224   5.389   7.595   8.662
21661WAT     H165225   5.342   7.644   8.735
21661WAT     H265226   5.487   7.592   8.681
21662WAT      O65227   1.791   0.844   3.909
21662WAT     H165228   1.845   0.854   3.992
21662WAT     H265229   1.827   0.904   3.837
21663WAT      O65230   4.147   9.010   8.128
21663WAT     H165231   4.236   8.999   8.173
21663WAT     H265232   4.092   8.928   8.143
21664WAT      O65233   6.373   9.238   9.168
21664WAT     H165234   6.408   9.253   9.261
21664WAT     H265235   6.301   9.169   9.171
21665WAT      O65236   6.868   1.165   4.993
21665WAT     H165237   6.841   1.114   5.075
21665WAT     H265238   6.793   1.164   4.927
21666WAT      O65239   8.904   3.720   9.856
21666WAT     H165240   8.826   3.663   9.832
21666WAT     H265241   8.881   3.816   9.843
21667WAT      O65242   3.695   7.752   6.093
21667WAT     H165243   3.627   7.698   6.045
21667WAT     H265244   3.785   7.709   6.083
21668WAT      O65245   1.748   3.584   8.474
21668WAT     H165246   1.666   3.640   8.491
21668WAT     H265247   1.805   3.584   8.556
21669WAT      O65248   3.666   9.388   0.761
21669WAT     H165249   3.730   9.434   0.823
21669WAT     H265250   3.684   9.290   0.761
21670WAT      O65251   6.262   4.147   5.769
21670WAT     H165252   6.302   4.192   5.850
21670WAT     H265253   6.193   4.207   5.729
21671WAT      O65254   3.074   7.197   7.869
21671WAT     H165255   2.974   7.197   7.876
21671WAT     H265256   3.107   7.290   7.857
21672WAT      O65257   5.857   1.948   8.146
21672WAT     H165258   5.929   2.003   8.187
21672WAT     H265259   5.767   1.985   8.171
21673WAT      O65260   8.436   1.920   0.581
21673WAT     H165261   8.424   1.929   0.680
21673WAT     H265262   8.424   1.825   0.554
21674WAT      O65263   7.878   9.045   7.687
21674WAT     H165264   7.861   9.143   7.677
21674WAT     H265265   7.793   8.994   7.673
21675WAT      O65266   6.036   7.490   7.937
21675WAT     H165267   6.105   7.429   7.976
21675WAT     H265268   6.061   7.513   7.842
21676WAT      O65269   0.291   4.070   5.562
21676WAT     H165270   0.225   3.996   5.573
21676WAT     H265271   0.253   4.140   5.502
21677WAT      O65272   0.374   2.158   7.212
21677WAT     H165273   0.286   2.191   7.247
21677WAT     H265274   0.409   2.222   7.144
21678WAT      O65275   4.988   3.570   1.376
21678WAT     H165276   4.942   3.588   1.289
21678WAT     H265277   4.942   3.619   1.450
21679WAT      O65278   0.369   2.125   9.185
21679WAT     H165279   0.337   2.215   9.215
21679WAT     H265280   0.318   2.096   9.104
21680WAT      O65281   7.445   9.016   0.494
21680WAT     H165282   7.377   9.051   0.430
21680WAT     H265283   7.529   8.993   0.444
21681WAT      O65284   7.765   1.331   5.549
21681WAT     H165285   7.799   1.373   5.633
21681WAT     H265286   7.691   1.385   5.511
21682WAT      O65287   5.306   4.603   3.788
21682WAT     H165288   5.245   4.555   3.851
21682WAT     H265289   5.327   4.544   3.710
21683WAT      O65290   9.753   8.768   3.461
21683WAT     H165291   9.844   8.759   3.502
21683WAT     H265292   9.683   8.748   3.530
21684WAT      O65293   0.947   8.290   3.786
21684WAT     H165294   0.911   8.207   3.744
21684WAT     H265295   1.015   8.331   3.724
21685WAT      O65296   2.926   1.800   1.767
21685WAT     H165297   3.024   1.782   1.757
21685WAT     H265298   2.893   1.757   1.852
21686WAT      O65299   2.298   0.560   7.594
21686WAT     H165300   2.237   0.482   7.610
21686WAT     H265301   2.384   0.526   7.555
21687WAT      O65302   2.938   8.884   4.510
21687WAT     H165303   2.984   8.965   4.545
21687WAT     H265304   2.843   8.905   4.488
21688WAT      O65305   5.539   4.668   9.345
21688WAT     H165306   5.516   4.582   9.298
21688WAT     H265307   5.638   4.683   9.340
21689WAT      O65308   5.256   6.555   6.763
21689WAT     H165309   5.252   6.643   6.716
21689WAT     H265310   5.351   6.534   6.788
21690WAT      O65311   7.833   4.764   3.620
21690WAT     H165312   7.792   4.737   3.708
21690WAT     H265313   7.817   4.692   3.553
21691WAT      O65314   1.126   5.641   3.835
21691WAT     H165315   1.132   5.648   3.934
21691WAT     H265316   1.092   5.550   3.810
21692WAT      O65317   5.450   4.969   9.809
21692WAT     H165318   5.544   4.951   9.839
21692WAT     H265319   5.391   4.892   9.835
21693WAT      O65320   2.235   0.971   1.774
21693WAT     H165321   2.168   0.903   1.805
21693WAT     H265322   2.223   0.987   1.676
21694WAT      O65323   4.656   7.222   9.187
21694WAT     H165324   4.602   7.294   9.142
21694WAT     H265325   4.745   7.214   9.142
21695WAT      O65326   0.573   7.395   4.784
21695WAT     H165327   0.506   7.426   4.716
21695WAT     H265328   0.529   7.392   4.874
21696WAT      O65329   3.330   1.654   1.998
21696WAT     H165330   3.341   1.725   2.067
21696WAT     H265331   3.413   1.599   1.994
21697WAT      O65332   3.686   0.135   4.600
21697WAT     H165333   3.610   0.189   4.564
21697WAT     H265334   3.662   0.038   4.599
21698WAT      O65335   9.495   6.457   4.928
21698WAT     H165336   9.457   6.477   4.838
21698WAT     H265337   9.594   6.445   4.921
21699WAT      O65338   6.126   3.152   9.575
21699WAT     H165339   6.146   3.061   9.539
21699WAT     H265340   6.211   3.204   9.584
21700WAT      O65341   4.354   4.892   8.353
21700WAT     H165342   4.318   4.984   8.337
21700WAT     H265343   4.287   4.824   8.321
21701WAT      O65344   2.360   0.201   4.761
21701WAT     H165345   2.314   0.276   4.713
21701WAT     H265346   2.317   0.187   4.850
21702WAT      O65347   5.434   1.004   2.116
21702WAT     H165348   5.523   0.959   2.103
21702WAT     H265349   5.428   1.083   2.054
21703WAT      O65350   5.085   8.671   2.914
21703WAT     H165351   5.107   8.765   2.941
21703WAT     H265352   5.169   8.617   2.910
21704WAT      O65353   8.929   1.200   6.613
21704WAT     H165354   8.845   1.225   6.660
21704WAT     H265355   8.974   1.283   6.579
21705WAT      O65356   9.343   3.208   2.459
21705WAT     H165357   9.327   3.151   2.379
21705WAT     H265358   9.412   3.164   2.517
21706WAT      O65359   4.469   1.751   4.333
21706WAT     H165360   4.448   1.819   4.403
21706WAT     H265361   4.519   1.794   4.258
21707WAT      O65362   4.436   5.329   8.895
21707WAT     H165363   4.509   5.274   8.855
21707WAT     H265364   4.382   5.370   8.822
21708WAT      O65365   2.721   1.501   2.924
21708WAT     H165366   2.782   1.445   2.980
21708WAT     H265367   2.717   1.464   2.832
21709WAT      O65368   5.401   2.055   1.882
21709WAT     H165369   5.354   1.988   1.939
21709WAT     H265370   5.377   2.040   1.786
21710WAT      O65371   7.632   0.512   2.524
21710WAT     H165372   7.692   0.560   2.588
21710WAT     H265373   7.609   0.422   2.561
21711WAT      O65374   6.622   6.403   6.003
21711WAT     H165375   6.602   6.494   6.037
21711WAT     H265376   6.691   6.360   6.062
21712WAT      O65377   5.658   6.418   8.152
21712WAT     H165378   5.678   6.514   8.173
21712WAT     H265379   5.701   6.393   8.065
21713WAT      O65380   0.767   7.019   8.121
21713WAT     H165381   0.771   7.112   8.085
21713WAT     H265382   0.858   6.978   8.116
21714WAT      O65383   5.442   3.431   7.385
21714WAT     H165384   5.522   3.474   7.427
21714WAT     H265385   5.361   3.454   7.439
21715WAT      O65386   8.432   3.117   8.808
21715WAT     H165387   8.482   3.172   8.876
21715WAT     H265388   8.446   3.020   8.827
21716WAT      O65389   9.275   8.117   5.258
21716WAT     H165390   9.318   8.171   5.185
21716WAT     H265391   9.195   8.070   5.221
21717WAT      O65392   6.460   3.661   3.329
21717WAT     H165393   6.494   3.755   3.335
21717WAT     H265394   6.469   3.629   3.235
21718WAT      O65395   6.763   2.886   4.399
21718WAT     H165396   6.750   2.937   4.484
21718WAT     H265397   6.684   2.901   4.339
21719WAT      O65398   9.120   9.508   1.352
21719WAT     H165399   9.179   9.428   1.360
21719WAT     H265400   9.101   9.526   1.256
21720WAT      O65401   5.773   1.374   8.775
21720WAT     H165402   5.748   1.446   8.840
21720WAT     H265403   5.725   1.388   8.689
21721WAT      O65404   1.864   3.155   3.659
21721WAT     H165405   1.855   3.073   3.715
21721WAT     H265406   1.773   3.192   3.641
21722WAT      O65407   4.057   4.827   9.012
21722WAT     H165408   3.958   4.835   9.026
21722WAT     H265409   4.075   4.779   8.926
21723WAT      O65410   6.289   7.492   2.150
21723WAT     H165411   6.338   7.416   2.194
21723WAT     H265412   6.190   7.478   2.161
21724WAT      O65413   3.102   6.035   8.807
21724WAT     H165414   3.123   6.130   8.784
21724WAT     H265415   3.004   6.024   8.819
21725WAT      O65416   1.050   0.759   7.785
21725WAT     H165417   1.003   0.693   7.843
21725WAT     H265418   1.005   0.848   7.793
21726WAT      O65419   6.088   4.749   2.802
21726WAT     H165420   6.142   4.828   2.832
21726WAT     H265421   6.049   4.704   2.882
21727WAT      O65422   5.682   5.184   1.656
21727WAT     H165423   5.771   5.146   1.680
21727WAT     H265424   5.614   5.155   1.723
21728WAT      O65425   9.831   5.535   4.377
21728WAT     H165426   9.884   5.570   4.454
21728WAT     H265427   9.737   5.567   4.383
21729WAT      O65428   4.735   4.956   9.306
21729WAT     H165429   4.830   4.973   9.331
21729WAT     H265430   4.677   4.961   9.387
21730WAT      O65431   4.798   7.809   4.530
21730WAT     H165432   4.846   7.897   4.537
21730WAT     H265433   4.755   7.788   4.617
21731WAT      O65434   1.426   9.259   7.666
21731WAT     H165435   1.356   9.318   7.707
21731WAT     H265436   1.424   9.169   7.710
21732WAT      O65437   1.993   2.217   7.478
21732WAT     H165438   1.907   2.192   7.433
21732WAT     H265439   2.061   2.146   7.461
21733WAT      O65440   2.903   7.593   0.532
21733WAT     H165441   2.905   7.540   0.617
21733WAT     H265442   2.841   7.671   0.543
21734WAT      O65443   3.428   1.937   7.453
21734WAT     H165444   3.328   1.950   7.453
21734WAT     H265445   3.464   1.965   7.542
21735WAT      O65446   1.555   1.362   7.387
21735WAT     H165447   1.568   1.424   7.310
21735WAT     H265448   1.480   1.299   7.366
21736WAT      O65449   2.564   9.351   7.689
21736WAT     H165450   2.516   9.264   7.704
21736WAT     H265451   2.544   9.412   7.765
21737WAT      O65452   6.930   1.752   5.104
21737WAT     H165453   6.928   1.717   5.197
21737WAT     H265454   6.876   1.691   5.045
21738WAT      O65455   4.717   8.512   6.431
21738WAT     H165456   4.798   8.548   6.478
21738WAT     H265457   4.643   8.580   6.436
21739WAT      O65458   0.574   0.405   2.865
21739WAT     H165459   0.528   0.335   2.811
21739WAT     H265460   0.658   0.367   2.905
21740WAT      O65461   9.026   4.538   8.200
21740WAT     H165462   9.062   4.514   8.109
21740WAT     H265463   8.938   4.493   8.214
21741WAT      O65464   0.482   8.667   7.896
21741WAT     H165465   0.433   8.638   7.814
21741WAT     H265466   0.504   8.587   7.952
21742WAT      O65467   6.708   5.946   5.891
21742WAT     H165468   6.618   5.912   5.917
21742WAT     H265469   6.704   5.987   5.800
21743WAT      O65470   1.438   1.729   8.283
21743WAT     H165471   1.457   1.640   8.239
21743WAT     H265472   1.385   1.714   8.366
21744WAT      O65473   0.542   5.493   4.204
21744WAT     H165474   0.554   5.586   4.168
21744WAT     H265475   0.490   5.439   4.138
21745WAT      O65476   2.462   7.568   4.500
21745WAT     H165477   2.376   7.567   4.450
21745WAT     H265478   2.482   7.477   4.535
21746WAT      O65479   5.633   2.959   1.888
21746WAT     H165480   5.691   3.017   1.945
21746WAT     H265481   5.675   2.869   1.877
21747WAT      O65482   8.011   1.260   3.001
21747WAT     H165483   7.933   1.295   2.949
21747WAT     H265484   7.985   1.251   3.097
21748WAT      O65485   0.275   3.088   6.905
21748WAT     H165486   0.316   3.004   6.870
21748WAT     H265487   0.221   3.132   6.833
21749WAT      O65488   7.793   5.947   8.880
21749WAT     H165489   7.845   5.899   8.809
21749WAT     H265490   7.732   5.883   8.926
21750WAT      O65491   6.207   9.591   7.922
21750WAT     H165492   6.255   9.505   7.907
21750WAT     H265493   6.109   9.577   7.911
21751WAT      O65494   6.766   0.491   4.193
21751WAT     H165495   6.694   0.459   4.131
21751WAT     H265496   6.771   0.431   4.272
21752WAT      O65497   4.667   2.574   3.885
21752WAT     H165498   4.631   2.649   3.829
21752WAT     H265499   4.705   2.504   3.824
21753WAT      O65500  -0.001   6.868   6.296
21753WAT     H165501   0.097   6.856   6.313
21753WAT     H265502  -0.052   6.850   6.381
21754WAT      O65503   8.343   6.000   4.440
21754WAT     H165504   8.327   5.911   4.398
21754WAT     H265505   8.298   6.071   4.386
21755WAT      O65506   2.160   5.993   4.366
21755WAT     H165507   2.256   6.022   4.370
21755WAT     H265508   2.101   6.073   4.366
21756WAT      O65509   8.909   4.558   8.662
21756WAT     H165510   8.973   4.482   8.666
21756WAT     H265511   8.943   4.627   8.598
21757WAT      O65512   8.402   8.093   8.119
21757WAT     H165513   8.468   8.119   8.190
21757WAT     H265514   8.358   8.007   8.144
21758WAT      O65515   8.170   4.553   7.057
21758WAT     H165516   8.239   4.494   7.097
21758WAT     H265517   8.087   4.500   7.039
21759WAT      O65518   0.269   2.516   1.356
21759WAT     H165519   0.303   2.591   1.413
21759WAT     H265520   0.176   2.536   1.326
21760WAT      O65521   9.362   5.275   2.268
21760WAT     H165522   9.302   5.249   2.192
21760WAT     H265523   9.449   5.309   2.231
21761WAT      O65524   6.113   4.162   9.245
21761WAT     H165525   6.194   4.146   9.302
21761WAT     H265526   6.062   4.077   9.235
21762WAT      O65527   3.941   1.813   9.247
21762WAT     H165528   3.977   1.796   9.156
21762WAT     H265529   3.868   1.748   9.267
21763WAT      O65530   3.102   0.683   2.303
21763WAT     H165531   3.102   0.757   2.235
21763WAT     H265532   3.180   0.623   2.287
21764WAT      O65533   6.191   7.585   3.879
21764WAT     H165534   6.118   7.563   3.944
21764WAT     H265535   6.273   7.614   3.929
21765WAT      O65536   4.920   5.805   3.209
21765WAT     H165537   4.838   5.827   3.157
21765WAT     H265538   4.991   5.772   3.147
21766WAT      O65539   3.037   6.798   9.543
21766WAT     H165540   3.071   6.711   9.508
21766WAT     H265541   2.943   6.788   9.573
21767WAT      O65542   8.290   2.389   1.455
21767WAT     H165543   8.200   2.433   1.457
21767WAT     H265544   8.338   2.415   1.371
21768WAT      O65545   7.449   0.099   2.931
21768WAT     H165546   7.383   0.060   2.867
21768WAT     H265547   7.538   0.054   2.919
21769WAT      O65548   9.323   3.708   9.388
21769WAT     H165549   9.264   3.763   9.328
21769WAT     H265550   9.309   3.736   9.483
21770WAT      O65551   6.536   2.019   3.222
21770WAT     H165552   6.580   2.067   3.146
21770WAT     H265553   6.496   1.934   3.190
21771WAT      O65554   0.315   5.142   1.323
21771WAT     H165555   0.276   5.083   1.394
21771WAT     H265556   0.255   5.143   1.244
21772WAT      O65557   3.137   4.160   3.800
21772WAT     H165558   3.204   4.156   3.725
21772WAT     H265559   3.131   4.071   3.845
21773WAT      O65560   5.271   7.498   2.212
21773WAT     H165561   5.180   7.485   2.173
21773WAT     H265562   5.340   7.463   2.149
21774WAT      O65563   4.139   5.649   5.547
21774WAT     H165564   4.095   5.571   5.592
21774WAT     H265565   4.238   5.638   5.551
21775WAT      O65566   7.137   5.313   6.205
21775WAT     H165567   7.078   5.266   6.271
21775WAT     H265568   7.211   5.359   6.254
21776WAT      O65569   2.467   5.705   4.130
21776WAT     H165570   2.435   5.750   4.047
21776WAT     H265571   2.423   5.746   4.210
21777WAT      O65572   6.778   2.960   5.530
21777WAT     H165573   6.799   2.862   5.525
21777WAT     H265574   6.860   3.012   5.509
21778WAT      O65575   3.761   8.499   2.441
21778WAT     H165576   3.794   8.484   2.348
21778WAT     H265577   3.661   8.507   2.440
21779WAT      O65578   7.173   2.357   9.876
21779WAT     H165579   7.269   2.338   9.898
21779WAT     H265580   7.147   2.445   9.917
21780WAT      O65581   1.254   8.515   1.968
21780WAT     H165582   1.340   8.466   1.958
21780WAT     H265583   1.255   8.568   2.053
21781WAT      O65584   6.959   3.724   6.989
21781WAT     H165585   6.864   3.721   7.023
21781WAT     H265586   6.996   3.816   7.003
21782WAT      O65587   7.377   3.539   6.232
21782WAT     H165588   7.436   3.459   6.223
21782WAT     H265589   7.307   3.537   6.160
21783WAT      O65590   6.237   5.722   2.925
21783WAT     H165591   6.306   5.684   2.864
21783WAT     H265592   6.219   5.657   2.999
21784WAT      O65593   9.238   2.400   2.415
21784WAT     H165594   9.149   2.444   2.429
21784WAT     H265595   9.311   2.461   2.445
21785WAT      O65596   8.766   2.423   8.404
21785WAT     H165597   8.717   2.431   8.317
21785WAT     H265598   8.827   2.501   8.416
21786WAT      O65599   3.088   6.326   6.026
21786WAT     H165600   3.073   6.246   5.968
21786WAT     H265601   3.007   6.342   6.083
21787WAT      O65602   3.024   8.825   8.450
21787WAT     H165603   2.983   8.742   8.415
21787WAT     H265604   3.002   8.835   8.547
21788WAT      O65605   1.409   2.203   0.062
21788WAT     H165606   1.378   2.269  -0.007
21788WAT     H265607   1.336   2.137   0.080
21789WAT      O65608   2.309   3.150   3.031
21789WAT     H165609   2.355   3.143   2.943
21789WAT     H265610   2.314   3.245   3.064
21790WAT      O65611   8.391   4.004   6.205
21790WAT     H165612   8.435   4.068   6.142
21790WAT     H265613   8.454   3.981   6.280
21791WAT      O65614   8.895   6.616   1.089
21791WAT     H165615   8.955   6.579   1.161
21791WAT     H265616   8.943   6.611   1.001
21792WAT      O65617   6.355   0.089   3.287
21792WAT     H165618   6.424   0.158   3.264
21792WAT     H265619   6.268   0.134   3.306
21793WAT      O65620   9.277   5.620   6.152
21793WAT     H165621   9.235   5.640   6.063
21793WAT     H265622   9.313   5.527   6.151
21794WAT      O65623   1.378   9.289   5.808
21794WAT     H165624   1.376   9.294   5.708
21794WAT     H265625   1.452   9.227   5.836
21795WAT      O65626   7.119   6.701   8.894
21795WAT     H165627   7.209   6.690   8.934
21795WAT     H265628   7.127   6.741   8.803
21796WAT      O65629   0.402   0.515   1.490
21796WAT     H165630   0.355   0.550   1.409
21796WAT     H265631   0.335   0.488   1.559
21797WAT      O65632   4.507   7.192   2.890
21797WAT     H165633   4.433   7.251   2.922
21797WAT     H265634   4.585   7.247   2.861
21798WAT      O65635   3.625   7.401   1.096
21798WAT     H165636   3.716   7.364   1.076
21798WAT     H265637   3.635   7.488   1.144
21799WAT      O65638   7.333   6.433   7.465
21799WAT     H165639   7.365   6.518   7.423
21799WAT     H265640   7.410   6.388   7.511
21800WAT      O65641   4.885   3.350   7.651
21800WAT     H165642   4.984   3.363   7.663
21800WAT     H265643   4.842   3.338   7.740
21801WAT      O65644   2.228   1.368   8.680
21801WAT     H165645   2.241   1.453   8.731
21801WAT     H265646   2.270   1.376   8.590
21802WAT      O65647   6.434   6.710   5.634
21802WAT     H165648   6.433   6.635   5.568
21802WAT     H265649   6.523   6.714   5.679
21803WAT      O65650   6.023   5.595   4.712
21803WAT     H165651   5.953   5.617   4.780
21803WAT     H265652   6.113   5.594   4.756
21804WAT      O65653   6.309   2.395   1.357
21804WAT     H165654   6.356   2.342   1.286
21804WAT     H265655   6.373   2.459   1.399
21805WAT      O65656   4.554   6.168   3.820
21805WAT     H165657   4.496   6.250   3.827
21805WAT     H265658   4.602   6.168   3.732
21806WAT      O65659   8.231   7.038   7.873
21806WAT     H165660   8.308   6.985   7.836
21806WAT     H265661   8.145   6.991   7.853
21807WAT      O65662   9.733   8.497   9.370
21807WAT     H165663   9.740   8.472   9.273
21807WAT     H265664   9.659   8.445   9.413
21808WAT      O65665   6.773   0.912   2.667
21808WAT     H165666   6.730   0.846   2.728
21808WAT     H265667   6.863   0.938   2.703
21809WAT      O65668   7.733   2.042   3.621
21809WAT     H165669   7.728   1.958   3.675
21809WAT     H265670   7.658   2.043   3.554
21810WAT      O65671   3.878   8.512   1.510
21810WAT     H165672   3.882   8.458   1.594
21810WAT     H265673   3.937   8.592   1.519
21811WAT      O65674   3.257   5.610   6.577
21811WAT     H165675   3.204   5.664   6.513
21811WAT     H265676   3.196   5.558   6.636
21812WAT      O65677   9.502   4.017   8.672
21812WAT     H165678   9.467   3.925   8.690
21812WAT     H265679   9.498   4.071   8.756
21813WAT      O65680   3.904   3.261   5.620
21813WAT     H165681   3.905   3.361   5.612
21813WAT     H265682   3.871   3.236   5.711
21814WAT      O65683   7.542   5.217   9.005
21814WAT     H165684   7.527   5.187   9.099
21814WAT     H265685   7.633   5.256   8.997
21815WAT      O65686   0.560   7.460   9.393
21815WAT     H165687   0.598   7.370   9.414
21815WAT     H265688   0.487   7.450   9.325
21816WAT      O65689   5.306   9.258   0.803
21816WAT     H165690   5.267   9.167   0.811
21816WAT     H265691   5.406   9.252   0.802
21817WAT      O65692   0.186   0.148   9.039
21817WAT     H165693   0.116   0.102   9.093
21817WAT     H265694   0.277   0.114   9.064
21818WAT      O65695   3.617   6.779   5.802
21818WAT     H165696   3.528   6.777   5.756
21818WAT     H265697   3.677   6.709   5.763
21819WAT      O65698   4.246   3.505   3.017
21819WAT     H165699   4.191   3.473   2.940
21819WAT     H265700   4.229   3.602   3.033
21820WAT      O65701   8.565   5.255   1.671
21820WAT     H165702   8.615   5.182   1.625
21820WAT     H265703   8.628   5.328   1.697
21821WAT      O65704   9.415   8.840   9.614
21821WAT     H165705   9.440   8.845   9.518
21821WAT     H265706   9.472   8.771   9.660
21822WAT      O65707   0.528   8.622   9.544
21822WAT     H165708   0.543   8.529   9.511
21822WAT     H265709   0.512   8.682   9.466
21823WAT      O65710   1.795   1.766   8.277
21823WAT     H165711   1.865   1.702   8.247
21823WAT     H265712   1.721   1.769   8.210
21824WAT      O65713   8.105   4.957   2.752
21824WAT     H165714   8.068   4.928   2.664
21824WAT     H265715   8.134   4.877   2.805
21825WAT      O65716   7.388   3.601   0.879
21825WAT     H165717   7.332   3.669   0.831
21825WAT     H265718   7.432   3.541   0.812
21826WAT      O65719   7.335   2.999   2.802
21826WAT     H165720   7.421   2.952   2.782
21826WAT     H265721   7.351   3.069   2.872
21827WAT      O65722   0.132   0.595   4.340
21827WAT     H165723   0.165   0.552   4.256
21827WAT     H265724   0.112   0.525   4.409
21828WAT      O65725   5.702   0.437   4.661
21828WAT     H165726   5.663   0.463   4.572
21828WAT     H265727   5.650   0.481   4.734
21829WAT      O65728   2.277   2.073   7.426
21829WAT     H165729   2.256   1.976   7.420
21829WAT     H265730   2.313   2.105   7.339
21830WAT      O65731   3.115   0.689   1.168
21830WAT     H165732   3.171   0.609   1.191
21830WAT     H265733   3.044   0.662   1.103
21831WAT      O65734   2.110   1.597   9.359
21831WAT     H165735   2.012   1.614   9.356
21831WAT     H265736   2.159   1.683   9.373
21832WAT      O65737   5.229   9.591   7.625
21832WAT     H165738   5.229   9.512   7.686
21832WAT     H265739   5.295   9.659   7.658
21833WAT      O65740   1.878   6.400   2.313
21833WAT     H165741   1.848   6.309   2.344
21833WAT     H265742   1.918   6.449   2.390
21834WAT      O65743   6.855   9.075   3.639
21834WAT     H165744   6.909   9.144   3.591
21834WAT     H265745   6.784   9.121   3.693
21835WAT      O65746   3.266   7.601   5.236
21835WAT     H165747   3.252   7.509   5.199
21835WAT     H265748   3.180   7.636   5.273
21836WAT      O65749   2.945   7.464   9.675
21836WAT     H165750   2.979   7.467   9.769
21836WAT     H265751   2.858   7.415   9.673
21837WAT      O65752   3.106   1.059   3.731
21837WAT     H165753   3.016   1.018   3.748
21837WAT     H265754   3.103   1.156   3.755
21838WAT      O65755   3.980   8.662   1.109
21838WAT     H165756   3.902   8.704   1.156
21838WAT     H265757   4.055   8.727   1.102
21839WAT      O65758   9.022   7.896   2.951
21839WAT     H165759   9.092   7.906   2.881
21839WAT     H265760   9.065   7.865   3.036
21840WAT      O65761   2.598   5.732   1.455
21840WAT     H165762   2.522   5.762   1.397
21840WAT     H265763   2.639   5.812   1.499
21841WAT      O65764   5.547   0.122   8.854
21841WAT     H165765   5.553   0.162   8.945
21841WAT     H265766   5.617   0.162   8.795
21842WAT      O65767   7.753   8.344   3.381
21842WAT     H165768   7.730   8.268   3.320
21842WAT     H265769   7.837   8.323   3.430
21843WAT      O65770   1.858   4.912   1.082
21843WAT     H165771   1.930   4.891   1.148
21843WAT     H265772   1.769   4.907   1.127
21844WAT      O65773   5.123   8.430   0.110
21844WAT     H165774   5.143   8.528   0.113
21844WAT     H265775   5.063   8.405   0.186
21845WAT      O65776   2.285   7.624   7.268
21845WAT     H165777   2.343   7.548   7.295
21845WAT     H265778   2.194   7.591   7.245
21846WAT      O65779   9.345   0.405   9.314
21846WAT     H165780   9.442   0.428   9.307
21846WAT     H265781   9.307   0.393   9.222
21847WAT      O65782   8.600   9.745   9.309
21847WAT     H165783   8.548   9.789   9.382
21847WAT     H265784   8.697   9.747   9.332
21848WAT      O65785   8.871   3.433   5.517
21848WAT     H165786   8.816   3.387   5.448
21848WAT     H265787   8.916   3.513   5.476
21849WAT      O65788   1.538   1.047   7.825
21849WAT     H165789   1.498   1.133   7.792
21849WAT     H265790   1.471   0.973   7.814
21850WAT      O65791   2.379   8.381   5.422
21850WAT     H165792   2.404   8.468   5.380
21850WAT     H265793   2.280   8.370   5.420
21851WAT      O65794   7.218   5.648   7.766
21851WAT     H165795   7.258   5.720   7.710
21851WAT     H265796   7.179   5.688   7.849
21852WAT      O65797   1.037   6.656   7.608
21852WAT     H165798   0.970   6.730   7.611
21852WAT     H265799   1.007   6.582   7.668
21853WAT      O65800   9.197   0.776   2.535
21853WAT     H165801   9.158   0.777   2.442
21853WAT     H265802   9.294   0.798   2.531
21854WAT      O65803   1.019   6.502   5.418
21854WAT     H165804   0.931   6.470   5.383
21854WAT     H265805   1.092   6.466   5.361
21855WAT      O65806   1.601   5.237   0.589
21855WAT     H165807   1.622   5.150   0.634
21855WAT     H265808   1.582   5.221   0.492
21856WAT      O65809   4.265   5.802   1.338
21856WAT     H165810   4.235   5.892   1.306
21856WAT     H265811   4.353   5.780   1.297
21857WAT      O65812   8.272   2.957   4.950
21857WAT     H165813   8.196   2.894   4.960
21857WAT     H265814   8.358   2.910   4.972
21858WAT      O65815   8.768   5.341   7.612
21858WAT     H165816   8.812   5.424   7.647
21858WAT     H265817   8.829   5.297   7.545
21859WAT      O65818   9.787   1.209   5.616
21859WAT     H165819   9.713   1.272   5.593
21859WAT     H265820   9.840   1.188   5.534
21860WAT      O65821   1.186   5.287   0.363
21860WAT     H165822   1.178   5.367   0.422
21860WAT     H265823   1.266   5.298   0.303
21861WAT      O65824   0.175   8.949   8.023
21861WAT     H165825   0.166   8.967   7.925
21861WAT     H265826   0.091   8.906   8.057
21862WAT      O65827   6.119   0.680   8.766
21862WAT     H165828   6.179   0.740   8.714
21862WAT     H265829   6.023   0.703   8.747
21863WAT      O65830   9.172   0.428   8.380
21863WAT     H165831   9.134   0.508   8.426
21863WAT     H265832   9.101   0.383   8.327
21864WAT      O65833   9.163   4.113   1.107
21864WAT     H165834   9.252   4.156   1.121
21864WAT     H265835   9.175   4.027   1.058
21865WAT      O65836   1.021   1.275   3.839
21865WAT     H165837   0.956   1.212   3.798
21865WAT     H265838   1.005   1.280   3.938
21866WAT      O65839   7.010   4.426   1.079
21866WAT     H165840   6.991   4.519   1.048
21866WAT     H265841   7.002   4.421   1.179
21867WAT      O65842   8.092   3.401   4.910
21867WAT     H165843   8.145   3.446   4.981
21867WAT     H265844   7.999   3.383   4.944
21868WAT      O65845   3.572   4.414   8.003
21868WAT     H165846   3.568   4.336   7.941
21868WAT     H265847   3.668   4.439   8.019
21869WAT      O65848   7.040   6.095   4.845
21869WAT     H165849   6.986   6.046   4.777
21869WAT     H265850   6.980   6.140   4.911
21870WAT      O65851   6.823   3.112   3.062
21870WAT     H165852   6.816   3.013   3.053
21870WAT     H265853   6.741   3.155   3.024
21871WAT      O65854   4.745   8.302   3.601
21871WAT     H165855   4.774   8.318   3.695
21871WAT     H265856   4.811   8.243   3.555
21872WAT      O65857   1.842   0.607   3.066
21872WAT     H165858   1.826   0.530   3.128
21872WAT     H265859   1.862   0.572   2.974
21873WAT      O65860   2.240   2.910   5.876
21873WAT     H165861   2.152   2.876   5.909
21873WAT     H265862   2.265   2.993   5.926
21874WAT      O65863   4.931   3.974   1.715
21874WAT     H165864   5.021   3.947   1.681
21874WAT     H265865   4.941   4.053   1.776
21875WAT      O65866   1.497   0.740   3.341
21875WAT     H165867   1.466   0.775   3.429
21875WAT     H265868   1.554   0.659   3.356
21876WAT      O65869   6.486   2.865   7.283
21876WAT     H165870   6.581   2.832   7.283
21876WAT     H265871   6.433   2.813   7.216
21877WAT      O65872   8.758   9.315   8.679
21877WAT     H165873   8.746   9.360   8.767
21877WAT     H265874   8.763   9.384   8.606
21878WAT      O65875   7.762   2.099   6.118
21878WAT     H165876   7.761   1.999   6.121
21878WAT     H265877   7.807   2.129   6.034
21879WAT      O65878   0.700   9.210   5.883
21879WAT     H165879   0.663   9.177   5.970
21879WAT     H265880   0.786   9.257   5.899
21880WAT      O65881   3.611   0.502   5.637
21880WAT     H165882   3.522   0.457   5.649
21880WAT     H265883   3.621   0.532   5.542
21881WAT      O65884   4.795   3.097   6.036
21881WAT     H165885   4.806   2.999   6.019
21881WAT     H265886   4.701   3.124   6.016
21882WAT      O65887   4.770   9.772   2.120
21882WAT     H165888   4.728   9.713   2.189
21882WAT     H265889   4.795   9.860   2.161
21883WAT      O65890   6.945   7.536   6.659
21883WAT     H165891   6.929   7.584   6.746
21883WAT     H265892   7.043   7.534   6.640
21884WAT      O65893   5.992   0.499   3.913
21884WAT     H165894   5.932   0.420   3.899
21884WAT     H265895   6.082   0.468   3.942
21885WAT      O65896   9.359   0.732   9.018
21885WAT     H165897   9.373   0.798   8.944
21885WAT     H265898   9.447   0.700   9.052
21886WAT      O65899   2.829   1.475   7.271
21886WAT     H165900   2.917   1.501   7.232
21886WAT     H265901   2.796   1.548   7.331
21887WAT      O65902   1.740   4.712   8.352
21887WAT     H165903   1.756   4.629   8.298
21887WAT     H265904   1.694   4.689   8.437
21888WAT      O65905   5.553   2.943   5.930
21888WAT     H165906   5.583   2.912   5.840
21888WAT     H265907   5.569   2.871   5.998
21889WAT      O65908   6.550   6.858   4.661
21889WAT     H165909   6.465   6.888   4.704
21889WAT     H265910   6.585   6.931   4.602
21890WAT      O65911   6.224   2.591   4.226
21890WAT     H165912   6.213   2.534   4.308
21890WAT     H265913   6.171   2.675   4.237
21891WAT      O65914   0.123   9.210   7.573
21891WAT     H165915   0.144   9.133   7.512
21891WAT     H265916   0.178   9.202   7.657
21892WAT      O65917   0.583   6.403   9.312
21892WAT     H165918   0.623   6.462   9.242
21892WAT     H265919   0.645   6.326   9.330
21893WAT      O65920   6.650   8.104   2.770
21893WAT     H165921   6.634   8.028   2.707
21893WAT     H265922   6.646   8.190   2.719
21894WAT      O65923   6.610   5.650   0.330
21894WAT     H165924   6.580   5.635   0.235
21894WAT     H265925   6.538   5.699   0.380
21895WAT      O65926   3.523   2.244   9.160
21895WAT     H165927   3.543   2.147   9.144
21895WAT     H265928   3.474   2.281   9.081
21896WAT      O65929   0.859   1.819   4.688
21896WAT     H165930   0.815   1.877   4.756
21896WAT     H265931   0.796   1.747   4.660
21897WAT      O65932   9.646   0.062   5.479
21897WAT     H165933   9.640   0.100   5.387
21897WAT     H265934   9.680   0.132   5.542
21898WAT      O65935   4.684   7.661   1.900
21898WAT     H165936   4.726   7.732   1.956
21898WAT     H265937   4.591   7.644   1.931
21899WAT      O65938   2.125   8.388   2.557
21899WAT     H165939   2.190   8.455   2.522
21899WAT     H265940   2.032   8.417   2.533
21900WAT      O65941   2.328   1.133   1.950
21900WAT     H165942   2.272   1.101   2.027
21900WAT     H265943   2.300   1.086   1.867
21901WAT      O65944   6.466   0.035   1.700
21901WAT     H165945   6.407  -0.045   1.695
21901WAT     H265946   6.554   0.014   1.658
21902WAT      O65947   8.995   0.292   8.011
21902WAT     H165948   9.042   0.372   7.974
21902WAT     H265949   8.903   0.318   8.041
21903WAT      O65950   6.487   7.029   1.206
21903WAT     H165951   6.416   6.994   1.144
21903WAT     H265952   6.512   6.958   1.271
21904WAT      O65953   1.763   3.442   4.920
21904WAT     H165954   1.736   3.348   4.940
21904WAT     H265955   1.814   3.479   4.997
21905WAT      O65956   3.963   4.655   1.064
21905WAT     H165957   4.007   4.616   0.983
21905WAT     H265958   3.893   4.591   1.098
21906WAT      O65959   3.057   8.786   1.361
21906WAT     H165960   3.039   8.691   1.335
21906WAT     H265961   3.051   8.795   1.460
21907WAT      O65962   5.527   2.407   1.253
21907WAT     H165963   5.524   2.357   1.340
21907WAT     H265964   5.434   2.430   1.224
21908WAT      O65965   1.241   7.557   7.629
21908WAT     H165966   1.318   7.620   7.620
21908WAT     H265967   1.242   7.492   7.553
21909WAT      O65968   1.025   5.119   8.736
21909WAT     H165969   0.946   5.139   8.795
21909WAT     H265970   1.024   5.023   8.710
21910WAT      O65971   3.702   8.012   3.435
21910WAT     H165972   3.649   7.947   3.381
21910WAT     H265973   3.795   7.976   3.448
21911WAT      O65974   8.725   8.893   2.545
21911WAT     H165975   8.709   8.905   2.447
21911WAT     H265976   8.725   8.796   2.567
21912WAT      O65977   9.323   1.227   6.347
21912WAT     H165978   9.249   1.293   6.342
21912WAT     H265979   9.409   1.270   6.318
21913WAT      O65980   7.103   8.929   7.009
21913WAT     H165981   7.176   8.977   6.959
21913WAT     H265982   7.129   8.920   7.105
21914WAT      O65983   4.332   5.758   1.903
21914WAT     H165984   4.361   5.848   1.869
21914WAT     H265985   4.354   5.751   2.000
21915WAT      O65986   2.114   5.574   0.953
21915WAT     H165987   2.045   5.513   0.915
21915WAT     H265988   2.195   5.574   0.894
21916WAT      O65989   3.253   7.050   4.421
21916WAT     H165990   3.284   7.145   4.428
21916WAT     H265991   3.306   7.002   4.351
21917WAT      O65992   5.026   7.450   7.279
21917WAT     H165993   5.018   7.524   7.212
21917WAT     H265994   5.014   7.488   7.371
21918WAT      O65995   7.962   8.823   6.117
21918WAT     H165996   8.051   8.850   6.152
21918WAT     H265997   7.972   8.743   6.058
21919WAT      O65998   0.995   4.864   8.630
21919WAT     H165999   0.995   4.856   8.530
21919WAT     H266000   1.086   4.842   8.665
21920WAT      O66001   1.148   5.763   9.636
21920WAT     H166002   1.188   5.705   9.706
21920WAT     H266003   1.056   5.729   9.614
21921WAT      O66004   5.031   6.733   4.287
21921WAT     H166005   5.097   6.806   4.303
21921WAT     H266006   4.970   6.726   4.366
21922WAT      O66007   0.282   4.711   0.463
21922WAT     H166008   0.286   4.811   0.472
21922WAT     H266009   0.224   4.673   0.535
21923WAT      O66010   6.486   5.715   8.228
21923WAT     H166011   6.537   5.675   8.152
21923WAT     H266012   6.503   5.813   8.232
21924WAT      O66013   6.609   0.489   0.041
21924WAT     H166014   6.627   0.400   0.081
21924WAT     H266015   6.525   0.486  -0.013
21925WAT      O66016   7.547   2.035   6.454
21925WAT     H166017   7.526   2.098   6.380
21925WAT     H266018   7.644   2.009   6.449
21926WAT      O66019   7.287   0.666   0.622
21926WAT     H166020   7.230   0.682   0.703
21926WAT     H266021   7.293   0.568   0.605
21927WAT      O66022   8.576   1.501   2.302
21927WAT     H166023   8.531   1.497   2.391
21927WAT     H266024   8.649   1.570   2.304
21928WAT      O66025   9.385   6.200   9.852
21928WAT     H166026   9.441   6.282   9.845
21928WAT     H266027   9.404   6.153   9.938
21929WAT      O66028   4.574   1.067   4.563
21929WAT     H166029   4.538   1.024   4.647
21929WAT     H266030   4.512   1.140   4.534
21930WAT      O66031   2.183   5.400   4.223
21930WAT     H166032   2.283   5.390   4.217
21930WAT     H266033   2.139   5.329   4.168
21931WAT      O66034   2.440   0.474   2.112
21931WAT     H166035   2.447   0.430   2.023
21931WAT     H266036   2.432   0.573   2.101
21932WAT      O66037   9.520   9.303   7.710
21932WAT     H166038   9.532   9.350   7.797
21932WAT     H266039   9.610   9.287   7.668
21933WAT      O66040   2.676   9.072   0.167
21933WAT     H166041   2.603   9.048   0.104
21933WAT     H266042   2.640   9.135   0.237
21934WAT      O66043   0.332   2.394   9.302
21934WAT     H166044   0.402   2.439   9.357
21934WAT     H266045   0.250   2.379   9.357
21935WAT      O66046   1.478   4.219   3.378
21935WAT     H166047   1.536   4.143   3.406
21935WAT     H266048   1.434   4.197   3.291
21936WAT      O66049   8.010   9.402   0.884
21936WAT     H166050   8.025   9.489   0.837
21936WAT     H266051   7.970   9.419   0.974
21937WAT      O66052   0.281   3.702   1.086
21937WAT     H166053   0.376   3.676   1.066
21937WAT     H266054   0.251   3.771   1.020
21938WAT      O66055   0.969   8.986   8.672
21938WAT     H166056   1.050   8.934   8.701
21938WAT     H266057   0.998   9.073   8.632
21939WAT      O66058   2.151   8.023   4.163
21939WAT     H166059   2.140   8.046   4.066
21939WAT     H266060   2.209   7.942   4.171
21940WAT      O66061   7.249   6.615   2.069
21940WAT     H166062   7.196   6.690   2.030
21940WAT     H266063   7.312   6.579   2.001
21941WAT      O66064   7.454   6.865   2.239
21941WAT     H166065   7.361   6.841   2.210
21941WAT     H266066   7.514   6.869   2.159
21942WAT      O66067   4.812   0.130   6.457
21942WAT     H166068   4.775   0.213   6.416
21942WAT     H266069   4.886   0.155   6.521
21943WAT      O66070   4.961   0.463   0.689
21943WAT     H166071   4.867   0.455   0.725
21943WAT     H266072   4.974   0.554   0.652
21944WAT      O66073   0.488   5.899   2.696
21944WAT     H166074   0.422   5.904   2.772
21944WAT     H266075   0.572   5.946   2.723
21945WAT      O66076   7.453   9.689   2.661
21945WAT     H166077   7.383   9.752   2.697
21945WAT     H266078   7.418   9.645   2.578
21946WAT      O66079   0.143   3.387   0.550
21946WAT     H166080   0.063   3.366   0.493
21946WAT     H266081   0.113   3.412   0.642
21947WAT      O66082   9.191   7.730   7.772
21947WAT     H166083   9.212   7.634   7.755
21947WAT     H266084   9.098   7.738   7.809
21948WAT      O66085   8.979   0.316   6.630
21948WAT     H166086   8.891   0.293   6.672
21948WAT     H266087   9.047   0.248   6.655
21949WAT      O66088   1.465   3.844   8.574
21949WAT     H166089   1.482   3.845   8.476
21949WAT     H266090   1.372   3.811   8.591
21950WAT      O66091   7.458   8.063   5.859
21950WAT     H166092   7.402   8.000   5.805
21950WAT     H266093   7.501   8.129   5.798
21951WAT      O66094   4.311   3.753   2.790
21951WAT     H166095   4.406   3.731   2.769
21951WAT     H266096   4.252   3.716   2.718
21952WAT      O66097   8.940   4.882   3.635
21952WAT     H166098   8.938   4.951   3.707
21952WAT     H266099   8.853   4.831   3.635
21953WAT      O66100   3.065   8.652   3.162
21953WAT     H166101   2.991   8.716   3.142
21953WAT     H266102   3.115   8.681   3.244
21954WAT      O66103   3.828   2.912   4.306
21954WAT     H166104   3.844   2.950   4.215
21954WAT     H266105   3.891   2.954   4.372
21955WAT      O66106   5.632   8.312   9.215
21955WAT     H166107   5.619   8.345   9.121
21955WAT     H266108   5.547   8.324   9.266
21956WAT      O66109   3.655   9.570   5.889
21956WAT     H166110   3.700   9.553   5.802
21956WAT     H266111   3.705   9.524   5.962
21957WAT      O66112   2.575   5.467   6.571
21957WAT     H166113   2.605   5.372   6.569
21957WAT     H266114   2.598   5.507   6.660
21958WAT      O66115   8.054   7.641   5.996
21958WAT     H166116   8.129   7.674   5.940
21958WAT     H266117   8.058   7.541   6.004
21959WAT      O66118   7.646   0.327   0.647
21959WAT     H166119   7.586   0.247   0.647
21959WAT     H266120   7.711   0.320   0.571
21960WAT      O66121   8.437   2.095   6.757
21960WAT     H166122   8.478   2.155   6.826
21960WAT     H266123   8.481   2.111   6.669
21961WAT      O66124   0.656   9.706   3.921
21961WAT     H166125   0.650   9.633   3.989
21961WAT     H266126   0.704   9.784   3.961
21962WAT      O66127   2.333   1.420   1.938
21962WAT     H166128   2.338   1.321   1.924
21962WAT     H266129   2.239   1.451   1.921
21963WAT      O66130   1.362   8.900   2.260
21963WAT     H166131   1.443   8.937   2.305
21963WAT     H266132   1.283   8.957   2.283
21964WAT      O66133   0.289   5.680   2.327
21964WAT     H166134   0.313   5.615   2.398
21964WAT     H266135   0.301   5.774   2.361
21965WAT      O66136   7.102   8.631   6.434
21965WAT     H166137   7.139   8.578   6.357
21965WAT     H266138   7.169   8.701   6.460
21966WAT      O66139   0.941   8.602   5.105
21966WAT     H166140   1.000   8.532   5.064
21966WAT     H266141   0.950   8.599   5.204
21967WAT      O66142   1.019   5.657   2.469
21967WAT     H166143   0.952   5.603   2.520
21967WAT     H266144   0.988   5.752   2.464
21968WAT      O66145   3.212   9.696   1.295
21968WAT     H166146   3.152   9.760   1.344
21968WAT     H266147   3.173   9.604   1.298
21969WAT      O66148   6.118   6.207   3.102
21969WAT     H166149   6.062   6.220   3.020
21969WAT     H266150   6.207   6.171   3.075
21970WAT      O66151   4.814   7.535   8.480
21970WAT     H166152   4.848   7.597   8.410
21970WAT     H266153   4.718   7.512   8.461
21971WAT      O66154   9.309   6.773   4.177
21971WAT     H166155   9.267   6.835   4.111
21971WAT     H266156   9.258   6.687   4.179
21972WAT      O66157   1.902   4.444   9.442
21972WAT     H166158   2.001   4.442   9.431
21972WAT     H266159   1.858   4.440   9.352
21973WAT      O66160   9.849   6.353   6.905
21973WAT     H166161   9.848   6.254   6.916
21973WAT     H266162   9.862   6.397   6.994
21974WAT      O66163   3.788   6.443   1.052
21974WAT     H166164   3.800   6.344   1.043
21974WAT     H266165   3.877   6.486   1.068
21975WAT      O66166   1.532   9.581   7.097
21975WAT     H166167   1.606   9.550   7.157
21975WAT     H266168   1.458   9.618   7.152
21976WAT      O66169   4.940   6.833   5.520
21976WAT     H166170   4.880   6.910   5.499
21976WAT     H266171   4.936   6.814   5.619
21977WAT      O66172   2.891   6.723   8.255
21977WAT     H166173   2.935   6.635   8.273
21977WAT     H266174   2.841   6.752   8.336
21978WAT      O66175   5.987   0.142   2.472
21978WAT     H166176   5.997   0.063   2.412
21978WAT     H266177   6.060   0.208   2.454
21979WAT      O66178   3.795   1.140   5.240
21979WAT     H166179   3.841   1.228   5.228
21979WAT     H266180   3.777   1.100   5.150
21980WAT      O66181   6.881   3.718   0.547
21980WAT     H166182   6.921   3.801   0.509
21980WAT     H266183   6.895   3.642   0.484
21981WAT      O66184   0.618   2.890   2.631
21981WAT     H166185   0.539   2.936   2.591
21981WAT     H266186   0.625   2.912   2.728
21982WAT      O66187   2.900   0.055   0.232
21982WAT     H166188   2.890   0.076   0.135
21982WAT     H266189   2.898   0.140   0.285
21983WAT      O66190   8.410   8.809   2.705
21983WAT     H166191   8.321   8.762   2.705
21983WAT     H266192   8.472   8.763   2.768
21984WAT      O66193   1.639   8.332   5.285
21984WAT     H166194   1.639   8.312   5.383
21984WAT     H266195   1.700   8.410   5.267
21985WAT      O66196   0.159   9.450   6.291
21985WAT     H166197   0.101   9.520   6.332
21985WAT     H266198   0.104   9.371   6.265
21986WAT      O66199   1.533   4.807   6.722
21986WAT     H166200   1.593   4.728   6.704
21986WAT     H266201   1.514   4.853   6.635
21987WAT      O66202   7.473   5.713   1.701
21987WAT     H166203   7.436   5.657   1.775
21987WAT     H266204   7.437   5.681   1.614
21988WAT      O66205   0.696   9.532   0.186
21988WAT     H166206   0.649   9.611   0.224
21988WAT     H266207   0.787   9.525   0.226
21989WAT      O66208   9.667   1.478   3.289
21989WAT     H166209   9.567   1.473   3.285
21989WAT     H266210   9.702   1.392   3.327
21990WAT      O66211   0.423   5.282   1.554
21990WAT     H166212   0.385   5.371   1.533
21990WAT     H266213   0.401   5.218   1.481
21991WAT      O66214   8.593   1.593   4.221
21991WAT     H166215   8.515   1.587   4.284
21991WAT     H266216   8.594   1.684   4.178
21992WAT      O66217   0.255   0.140   8.579
21992WAT     H166218   0.244   0.198   8.498
21992WAT     H266219   0.350   0.143   8.609
21993WAT      O66220   7.207   4.007   2.761
21993WAT     H166221   7.119   4.001   2.808
21993WAT     H266222   7.231   3.918   2.722
21994WAT      O66223   2.888   3.138   4.192
21994WAT     H166224   2.968   3.176   4.240
21994WAT     H266225   2.919   3.076   4.121
21995WAT      O66226   0.923   8.333   4.335
21995WAT     H166227   0.825   8.327   4.354
21995WAT     H266228   0.940   8.298   4.243
21996WAT      O66229   0.718   0.166   7.764
21996WAT     H166230   0.747   0.098   7.831
21996WAT     H266231   0.762   0.146   7.676
21997WAT      O66232   6.111   1.643   5.540
21997WAT     H166233   6.027   1.615   5.493
21997WAT     H266234   6.185   1.580   5.516
21998WAT      O66235   6.827   2.955   9.133
21998WAT     H166236   6.893   2.915   9.196
21998WAT     H266237   6.740   2.908   9.143
21999WAT      O66238   9.466   7.408   5.779
21999WAT     H166239   9.483   7.506   5.789
21999WAT     H266240   9.462   7.385   5.681
22000WAT      O66241   6.856   6.325   6.140
22000WAT     H166242   6.877   6.229   6.119
22000WAT     H266243   6.927   6.384   6.102
22001WAT      O66244   7.034   4.985   7.499
22001WAT     H166245   7.074   5.065   7.454
22001WAT     H266246   6.936   4.981   7.478
22002WAT      O66247   2.329   9.818   0.746
22002WAT     H166248   2.253   9.789   0.687
22002WAT     H266249   2.359   9.741   0.801
22003WAT      O66250   2.510   1.458   5.408
22003WAT     H166251   2.597   1.507   5.401
22003WAT     H266252   2.474   1.468   5.501
22004WAT      O66253   4.410   8.337   7.588
22004WAT     H166254   4.410   8.427   7.631
22004WAT     H266255   4.482   8.281   7.630
22005WAT      O66256   1.163   6.161   0.923
22005WAT     H166257   1.201   6.211   1.001
22005WAT     H266258   1.175   6.063   0.937
22006WAT      O66259   0.771   7.201   3.428
22006WAT     H166260   0.847   7.136   3.426
22006WAT     H266261   0.759   7.242   3.337
22007WAT      O66262   5.236   7.960   2.358
22007WAT     H166263   5.164   7.996   2.298
22007WAT     H266264   5.322   8.007   2.339
22008WAT      O66265   4.633   4.119   2.487
22008WAT     H166266   4.610   4.034   2.440
22008WAT     H266267   4.605   4.112   2.583
22009WAT      O66268   7.199   1.803   1.267
22009WAT     H166269   7.150   1.889   1.284
22009WAT     H266270   7.158   1.730   1.321
22010WAT      O66271   8.397   7.991   1.308
22010WAT     H166272   8.350   8.073   1.277
22010WAT     H266273   8.330   7.928   1.348
22011WAT      O66274   8.968   7.835   2.514
22011WAT     H166275   9.022   7.842   2.430
22011WAT     H266276   8.975   7.742   2.551
22012WAT      O66277   2.308   2.245   9.855
22012WAT     H166278   2.350   2.272   9.942
22012WAT     H266279   2.372   2.185   9.805
22013WAT      O66280   5.954   1.144   4.576
22013WAT     H166281   5.908   1.231   4.587
22013WAT     H266282   5.967   1.102   4.666
22014WAT      O66283   1.534   4.257   8.433
22014WAT     H166284   1.463   4.197   8.470
22014WAT     H266285   1.494   4.322   8.369
22015WAT      O66286   6.032   6.219   4.130
22015WAT     H166287   6.098   6.161   4.081
22015WAT     H266288   6.028   6.191   4.226
22016WAT      O66289   6.824   1.768   1.837
22016WAT     H166290   6.910   1.799   1.878
22016WAT     H266291   6.760   1.844   1.832
22017WAT      O66292   4.268   0.305   0.132
22017WAT     H166293   4.268   0.404   0.144
22017WAT     H266294   4.193   0.278   0.071
22018WAT      O66295   6.894   8.478   8.120
22018WAT     H166296   6.835   8.473   8.200
22018WAT     H266297   6.989   8.490   8.150
22019WAT      O66298   8.844   3.227   8.737
22019WAT     H166299   8.903   3.201   8.813
22019WAT     H266300   8.836   3.150   8.673
22020WAT      O66301   7.646   6.362   1.829
22020WAT     H166302   7.627   6.282   1.885
22020WAT     H266303   7.744   6.377   1.823
22021WAT      O66304   6.409   4.169   7.301
22021WAT     H166305   6.351   4.095   7.268
22021WAT     H266306   6.503   4.135   7.314
22022WAT      O66307   4.719   8.811   5.672
22022WAT     H166308   4.741   8.719   5.640
22022WAT     H266309   4.776   8.877   5.623
22023WAT      O66310   9.711   2.094   9.897
22023WAT     H166311   9.726   2.168   9.831
22023WAT     H266312   9.692   2.009   9.848
22024WAT      O66313   7.572   6.180   6.223
22024WAT     H166314   7.533   6.272   6.236
22024WAT     H266315   7.515   6.128   6.160
22025WAT      O66316   8.382   1.185   9.333
22025WAT     H166317   8.344   1.233   9.412
22025WAT     H266318   8.480   1.171   9.346
22026WAT      O66319   2.798   3.562   9.198
22026WAT     H166320   2.794   3.636   9.130
22026WAT     H266321   2.723   3.574   9.263
22027WAT      O66322   4.324   7.764   9.207
22027WAT     H166323   4.352   7.815   9.289
22027WAT     H266324   4.226   7.776   9.193
22028WAT      O66325   1.369   7.637   2.661
22028WAT     H166326   1.363   7.709   2.730
22028WAT     H266327   1.327   7.669   2.575
22029WAT      O66328   4.681   7.393   3.087
22029WAT     H166329   4.708   7.488   3.101
22029WAT     H266330   4.584   7.382   3.112
22030WAT      O66331   4.505   4.403   2.741
22030WAT     H166332   4.461   4.436   2.825
22030WAT     H266333   4.545   4.313   2.757
22031WAT      O66334   1.715   6.104   0.256
22031WAT     H166335   1.668   6.175   0.307
22031WAT     H266336   1.651   6.058   0.194
22032WAT      O66337   2.241   6.393   5.023
22032WAT     H166338   2.239   6.408   5.121
22032WAT     H266339   2.312   6.325   5.001
22033WAT      O66340   8.139   0.544   7.034
22033WAT     H166341   8.201   0.615   7.068
22033WAT     H266342   8.136   0.548   6.935
22034WAT      O66343   2.381   0.166   7.404
22034WAT     H166344   2.344   0.163   7.310
22034WAT     H266345   2.342   0.244   7.452
22035WAT      O66346   3.064   7.478   8.926
22035WAT     H166347   3.019   7.390   8.936
22035WAT     H266348   3.119   7.479   8.843
22036WAT      O66349   8.937   0.173   5.140
22036WAT     H166350   8.939   0.076   5.115
22036WAT     H266351   8.923   0.181   5.239
22037WAT      O66352   0.092   3.947   0.595
22037WAT     H166353   0.115   4.027   0.650
22037WAT     H266354   0.099   3.864   0.651
22038WAT      O66355   6.831   1.317   9.554
22038WAT     H166356   6.786   1.359   9.633
22038WAT     H266357   6.773   1.243   9.519
22039WAT      O66358   3.923   3.390   8.617
22039WAT     H166359   3.891   3.349   8.703
22039WAT     H266360   3.866   3.469   8.596
22040WAT      O66361   2.460   3.760   2.661
22040WAT     H166362   2.442   3.751   2.759
22040WAT     H266363   2.558   3.777   2.647
22041WAT      O66364   8.166   2.700   7.534
22041WAT     H166365   8.131   2.618   7.580
22041WAT     H266366   8.089   2.753   7.497
22042WAT      O66367   4.011   7.209   6.262
22042WAT     H166368   4.025   7.227   6.165
22042WAT     H266369   3.931   7.259   6.295
22043WAT      O66370   6.860   0.089   1.085
22043WAT     H166371   6.945   0.059   1.128
22043WAT     H266372   6.783   0.037   1.123
22044WAT      O66373   6.690   3.646   5.344
22044WAT     H166374   6.760   3.714   5.362
22044WAT     H266375   6.731   3.555   5.344
22045WAT      O66376   4.600   2.171   2.225
22045WAT     H166377   4.581   2.214   2.313
22045WAT     H266378   4.603   2.240   2.153
22046WAT      O66379   3.222   8.072   5.262
22046WAT     H166380   3.138   8.125   5.273
22046WAT     H266381   3.227   8.038   5.168
22047WAT      O66382   2.099   4.804   3.949
22047WAT     H166383   2.031   4.810   3.875
22047WAT     H266384   2.057   4.764   4.030
22048WAT      O66385   7.789   5.314   1.904
22048WAT     H166386   7.830   5.224   1.916
22048WAT     H266387   7.737   5.316   1.818
22049WAT      O66388   5.177   8.395   2.222
22049WAT     H166389   5.099   8.443   2.182
22049WAT     H266390   5.149   8.348   2.305
22050WAT      O66391   1.783   1.111   5.267
22050WAT     H166392   1.779   1.078   5.362
22050WAT     H266393   1.875   1.098   5.231
22051WAT      O66394   0.900   1.858   8.158
22051WAT     H166395   0.882   1.936   8.098
22051WAT     H266396   0.850   1.870   8.244
22052WAT      O66397   0.309   1.749   4.459
22052WAT     H166398   0.219   1.749   4.417
22052WAT     H266399   0.340   1.844   4.470
22053WAT      O66400   5.464   3.958   3.367
22053WAT     H166401   5.429   3.998   3.282
22053WAT     H266402   5.388   3.935   3.428
22054WAT      O66403   8.682   8.433   4.118
22054WAT     H166404   8.638   8.500   4.058
22054WAT     H266405   8.709   8.477   4.203
22055WAT      O66406   5.725   1.758   2.573
22055WAT     H166407   5.679   1.837   2.534
22055WAT     H266408   5.775   1.709   2.501
22056WAT      O66409   2.589   0.716   5.104
22056WAT     H166410   2.592   0.813   5.076
22056WAT     H266411   2.682   0.682   5.114
22057WAT      O66412   5.042   6.880   8.498
22057WAT     H166413   5.059   6.813   8.571
22057WAT     H266414   5.118   6.945   8.495
22058WAT      O66415   6.014   6.835   0.979
22058WAT     H166416   5.935   6.813   1.036
22058WAT     H266417   6.021   6.934   0.968
22059WAT      O66418   3.505   1.174   6.604
22059WAT     H166419   3.488   1.117   6.684
22059WAT     H266420   3.520   1.116   6.524
22060WAT      O66421   6.020   1.287   7.406
22060WAT     H166422   6.058   1.318   7.493
22060WAT     H266423   6.050   1.194   7.387
22061WAT      O66424   0.348   2.127   6.277
22061WAT     H166425   0.355   2.127   6.177
22061WAT     H266426   0.432   2.088   6.316
22062WAT      O66427   0.329   8.242   6.242
22062WAT     H166428   0.416   8.231   6.289
22062WAT     H266429   0.261   8.181   6.281
22063WAT      O66430   0.564   4.817   2.578
22063WAT     H166431   0.479   4.806   2.630
22063WAT     H266432   0.583   4.732   2.529
22064WAT      O66433   1.732   6.125   3.600
22064WAT     H166434   1.641   6.092   3.622
22064WAT     H266435   1.727   6.221   3.571
22065WAT      O66436   5.203   0.692   8.267
22065WAT     H166437   5.198   0.790   8.246
22065WAT     H266438   5.243   0.680   8.358
22066WAT      O66439   4.592   5.997   5.247
22066WAT     H166440   4.518   5.932   5.262
22066WAT     H266441   4.654   5.962   5.177
22067WAT      O66442   8.807   2.935   4.334
22067WAT     H166443   8.739   2.938   4.407
22067WAT     H266444   8.769   2.978   4.252
22068WAT      O66445   8.443   6.690   3.944
22068WAT     H166446   8.412   6.741   3.864
22068WAT     H266447   8.528   6.642   3.923
22069WAT      O66448   0.476   3.322   7.984
22069WAT     H166449   0.511   3.336   7.891
22069WAT     H266450   0.521   3.386   8.047
22070WAT      O66451   0.117   8.157   1.212
22070WAT     H166452   0.040   8.106   1.173
22070WAT     H266453   0.195   8.152   1.151
22071WAT      O66454   1.063   9.354   5.559
22071WAT     H166455   1.105   9.265   5.542
22071WAT     H266456   1.004   9.379   5.483
22072WAT      O66457   1.967   5.090   4.019
22072WAT     H166458   1.997   5.146   3.942
22072WAT     H266459   2.033   5.017   4.034
22073WAT      O66460   5.011   7.650   9.307
22073WAT     H166461   4.939   7.709   9.271
22073WAT     H266462   4.972   7.562   9.334
22074WAT      O66463   1.179   0.493   0.604
22074WAT     H166464   1.220   0.441   0.679
22074WAT     H266465   1.176   0.590   0.628
22075WAT      O66466   8.475   8.566   6.707
22075WAT     H166467   8.447   8.511   6.786
22075WAT     H266468   8.574   8.581   6.711
22076WAT      O66469   9.240   4.791   1.364
22076WAT     H166470   9.186   4.708   1.377
22076WAT     H266471   9.270   4.825   1.453
22077WAT      O66472   8.897   7.422   9.058
22077WAT     H166473   8.966   7.494   9.048
22077WAT     H266474   8.899   7.388   9.152
22078WAT      O66475   2.976   6.483   2.117
22078WAT     H166476   3.015   6.442   2.034
22078WAT     H266477   2.934   6.571   2.094
22079WAT      O66478   1.035   3.268   3.082
22079WAT     H166479   1.116   3.241   3.031
22079WAT     H266480   1.004   3.193   3.140
22080WAT      O66481   2.452   7.986   3.066
22080WAT     H166482   2.467   7.890   3.042
22080WAT     H266483   2.511   8.044   3.010
22081WAT      O66484   8.429   2.562   4.384
22081WAT     H166485   8.395   2.606   4.467
22081WAT     H266486   8.404   2.618   4.305
22082WAT      O66487   0.425   8.365   7.797
22082WAT     H166488   0.328   8.374   7.821
22082WAT     H266489   0.439   8.400   7.704
22083WAT      O66490   3.907   5.434   9.231
22083WAT     H166491   3.830   5.416   9.170
22083WAT     H266492   3.974   5.360   9.222
22084WAT      O66493   4.345   8.243   0.864
22084WAT     H166494   4.326   8.254   0.961
22084WAT     H266495   4.314   8.325   0.815
22085WAT      O66496   4.991   4.593   2.117
22085WAT     H166497   4.965   4.527   2.188
22085WAT     H266498   4.944   4.680   2.133
22086WAT      O66499   1.209   0.298   2.594
22086WAT     H166500   1.275   0.337   2.657
22086WAT     H266501   1.229   0.201   2.581
22087WAT      O66502   4.505   1.755   8.149
22087WAT     H166503   4.461   1.844   8.158
22087WAT     H266504   4.470   1.693   8.219
22088WAT      O66505   9.297   5.551   3.253
22088WAT     H166506   9.234   5.533   3.329
22088WAT     H266507   9.321   5.648   3.251
22089WAT      O66508   7.054   6.309   1.988
22089WAT     H166509   7.056   6.319   1.889
22089WAT     H266510   7.042   6.399   2.031
22090WAT      O66511   1.305   1.339   9.487
22090WAT     H166512   1.268   1.376   9.402
22090WAT     H266513   1.238   1.278   9.529
22091WAT      O66514   9.692   1.172   1.838
22091WAT     H166515   9.759   1.236   1.876
22091WAT     H266516   9.652   1.118   1.911
22092WAT      O66517   7.550   8.568   7.867
22092WAT     H166518   7.476   8.603   7.810
22092WAT     H266519   7.515   8.497   7.928
22093WAT      O66520   6.156   7.561   9.389
22093WAT     H166521   6.177   7.585   9.484
22093WAT     H266522   6.184   7.467   9.370
22094WAT      O66523   6.227   5.533   2.544
22094WAT     H166524   6.135   5.506   2.516
22094WAT     H266525   6.241   5.629   2.524
22095WAT      O66526   1.151   8.426   3.623
22095WAT     H166527   1.201   8.351   3.579
22095WAT     H266528   1.126   8.495   3.554
22096WAT      O66529   3.979   8.484   3.351
22096WAT     H166530   3.907   8.552   3.340
22096WAT     H266531   3.964   8.433   3.435
22097WAT      O66532   7.648   7.776   7.470
22097WAT     H166533   7.693   7.862   7.447
22097WAT     H266534   7.715   7.702   7.473
22098WAT      O66535   5.324   7.974   5.460
22098WAT     H166536   5.272   7.954   5.377
22098WAT     H266537   5.404   8.030   5.438
22099WAT      O66538   2.146   1.926   4.948
22099WAT     H166539   2.158   1.844   5.005
22099WAT     H266540   2.130   1.898   4.853
22100WAT      O66541   0.981   7.330   9.197
22100WAT     H166542   1.081   7.335   9.201
22100WAT     H266543   0.947   7.272   9.271
22101WAT      O66544   6.766   4.522   7.112
22101WAT     H166545   6.776   4.621   7.104
22101WAT     H266546   6.851   4.483   7.148
22102WAT      O66547   1.083   1.394   3.235
22102WAT     H166548   1.010   1.440   3.284
22102WAT     H266549   1.050   1.305   3.201
22103WAT      O66550   6.938   4.433   1.346
22103WAT     H166551   6.874   4.502   1.379
22103WAT     H266552   6.897   4.342   1.358
22104WAT      O66553   8.536   0.584   9.165
22104WAT     H166554   8.503   0.500   9.122
22104WAT     H266555   8.577   0.644   9.096
22105WAT      O66556   8.611   1.910   8.287
22105WAT     H166557   8.695   1.950   8.324
22105WAT     H266558   8.532   1.958   8.324
22106WAT      O66559   8.864   9.090   2.322
22106WAT     H166560   8.892   9.137   2.406
22106WAT     H266561   8.940   9.034   2.289
22107WAT      O66562   8.163   0.382   6.322
22107WAT     H166563   8.233   0.393   6.252
22107WAT     H266564   8.139   0.472   6.359
22108WAT      O66565   1.139   2.499   0.172
22108WAT     H166566   1.079   2.466   0.245
22108WAT     H266567   1.156   2.424   0.107
22109WAT      O66568   1.900   6.053   0.943
22109WAT     H166569   1.875   5.986   0.873
22109WAT     H266570   1.857   6.141   0.922
22110WAT      O66571   0.497   5.664   5.745
22110WAT     H166572   0.499   5.587   5.808
22110WAT     H266573   0.453   5.636   5.659
22111WAT      O66574   5.477   6.696   8.705
22111WAT     H166575   5.559   6.726   8.754
22111WAT     H266576   5.502   6.666   8.613
22112WAT      O66577   4.174   1.664   2.825
22112WAT     H166578   4.224   1.695   2.906
22112WAT     H266579   4.236   1.663   2.746
22113WAT      O66580   1.894   9.072   7.262
22113WAT     H166581   1.945   9.149   7.299
22113WAT     H266582   1.952   9.019   7.201
22114WAT      O66583   5.473   0.930   7.264
22114WAT     H166584   5.396   0.893   7.315
22114WAT     H266585   5.451   1.023   7.233
22115WAT      O66586   7.708   9.006   6.751
22115WAT     H166587   7.637   8.942   6.778
22115WAT     H266588   7.768   8.963   6.683
22116WAT      O66589   0.602   9.179   7.847
22116WAT     H166590   0.613   9.082   7.865
22116WAT     H266591   0.504   9.202   7.845
22117WAT      O66592   8.047   6.846   9.838
22117WAT     H166593   7.977   6.853   9.767
22117WAT     H266594   8.006   6.865   9.927
22118WAT      O66595   8.587   0.755   6.833
22118WAT     H166596   8.680   0.725   6.814
22118WAT     H266597   8.524   0.678   6.820
22119WAT      O66598   4.090   4.056   3.565
22119WAT     H166599   4.126   4.092   3.652
22119WAT     H266600   4.116   3.960   3.556
22120WAT      O66601   9.757   3.343   0.459
22120WAT     H166602   9.746   3.250   0.422
22120WAT     H266603   9.668   3.378   0.487
22121WAT      O66604   8.797   0.560   4.428
22121WAT     H166605   8.797   0.465   4.458
22121WAT     H266606   8.873   0.576   4.365
22122WAT      O66607   8.014   6.026   5.421
22122WAT     H166608   8.058   5.943   5.386
22122WAT     H266609   8.021   6.027   5.520
22123WAT      O66610   3.645   0.047   1.287
22123WAT     H166611   3.564   0.010   1.241
22123WAT     H266612   3.619   0.128   1.339
22124WAT      O66613   6.991   0.417   5.314
22124WAT     H166614   6.991   0.340   5.378
22124WAT     H266615   7.081   0.461   5.315
22125WAT      O66616   8.799   2.077   6.716
22125WAT     H166617   8.829   2.113   6.628
22125WAT     H266618   8.822   1.980   6.722
22126WAT      O66619   1.743   1.829   9.707
22126WAT     H166620   1.651   1.790   9.710
22126WAT     H266621   1.769   1.845   9.612
22127WAT      O66622   7.384   6.635   1.549
22127WAT     H166623   7.316   6.586   1.494
22127WAT     H266624   7.467   6.647   1.495
22128WAT      O66625   6.110   1.853   7.778
22128WAT     H166626   6.082   1.782   7.843
22128WAT     H266627   6.209   1.853   7.768
22129WAT      O66628   1.157   2.285   2.670
22129WAT     H166629   1.067   2.298   2.712
22129WAT     H266630   1.146   2.245   2.579
22130WAT      O66631   8.060   1.492   1.257
22130WAT     H166632   8.141   1.524   1.207
22130WAT     H266633   7.984   1.481   1.193
22131WAT      O66634   2.657   5.561   4.240
22131WAT     H166635   2.593   5.623   4.194
22131WAT     H266636   2.713   5.613   4.304
22132WAT      O66637   7.227   1.588   4.218
22132WAT     H166638   7.252   1.682   4.196
22132WAT     H266639   7.213   1.536   4.134
22133WAT      O66640   9.766   1.247   1.365
22133WAT     H166641   9.691   1.291   1.414
22133WAT     H266642   9.853   1.280   1.402
22134WAT      O66643   5.908   1.006   5.510
22134WAT     H166644   5.842   0.945   5.466
22134WAT     H266645   5.875   1.101   5.502
22135WAT      O66646   6.364   2.960   9.253
22135WAT     H166647   6.346   3.034   9.189
22135WAT     H266648   6.280   2.935   9.300
22136WAT      O66649   8.069   6.697   8.712
22136WAT     H166650   8.149   6.756   8.721
22136WAT     H266651   8.074   6.644   8.627
22137WAT      O66652   0.521   5.874   6.105
22137WAT     H166653   0.470   5.891   6.021
22137WAT     H266654   0.619   5.881   6.085
22138WAT      O66655   7.953   7.995   9.047
22138WAT     H166656   7.934   8.019   8.952
22138WAT     H266657   7.884   8.035   9.107
22139WAT      O66658   7.792   3.126   8.187
22139WAT     H166659   7.692   3.136   8.190
22139WAT     H266660   7.817   3.072   8.106
22140WAT      O66661   2.049   3.976   7.607
22140WAT     H166662   2.034   3.993   7.509
22140WAT     H266663   2.096   3.888   7.618
22141WAT      O66664   0.459   4.911   9.195
22141WAT     H166665   0.430   5.006   9.206
22141WAT     H266666   0.430   4.878   9.105
22142WAT      O66667   3.376   7.792   5.090
22142WAT     H166668   3.328   7.795   5.002
22142WAT     H266669   3.331   7.725   5.150
22143WAT      O66670   9.007   7.330   4.741
22143WAT     H166671   8.963   7.396   4.802
22143WAT     H266672   9.090   7.370   4.702
22144WAT      O66673   7.601   9.184   8.579
22144WAT     H166674   7.578   9.093   8.612
22144WAT     H266675   7.543   9.208   8.501
22145WAT      O66676   0.683   3.038   2.006
22145WAT     H166677   0.604   2.980   2.026
22145WAT     H266678   0.674   3.124   2.057
22146WAT      O66679   2.053   2.793   3.060
22146WAT     H166680   1.953   2.794   3.058
22146WAT     H266681   2.085   2.699   3.072
22147WAT      O66682   4.004   5.442   4.965
22147WAT     H166683   4.077   5.419   4.901
22147WAT     H266684   3.961   5.358   4.997
22148WAT      O66685   3.345   6.388   8.948
22148WAT     H166686   3.371   6.291   8.946
22148WAT     H266687   3.362   6.426   9.038
22149WAT      O66688   4.090   2.714   9.427
22149WAT     H166689   4.147   2.646   9.474
22149WAT     H266690   4.046   2.773   9.494
22150WAT      O66691   1.434   9.709   2.973
22150WAT     H166692   1.375   9.775   2.926
22150WAT     H266693   1.407   9.616   2.949
22151WAT      O66694   8.929   2.361   5.132
22151WAT     H166695   8.871   2.441   5.147
22151WAT     H266696   9.024   2.389   5.125
22152WAT      O66697   3.758   1.680   1.595
22152WAT     H166698   3.851   1.689   1.632
22152WAT     H266699   3.702   1.757   1.627
22153WAT      O66700   7.644   4.101   8.575
22153WAT     H166701   7.589   4.075   8.655
22153WAT     H266702   7.610   4.187   8.537
22154WAT      O66703   1.823   8.542   6.088
22154WAT     H166704   1.886   8.465   6.102
22154WAT     H266705   1.729   8.511   6.102
22155WAT      O66706   8.575   8.758   9.098
22155WAT     H166707   8.580   8.698   9.018
22155WAT     H266708   8.573   8.854   9.067
22156WAT      O66709   0.055   1.829   5.978
22156WAT     H166710   0.005   1.851   5.894
22156WAT     H266711   0.024   1.889   6.052
22157WAT      O66712   1.101   3.979   9.444
22157WAT     H166713   1.120   4.056   9.383
22157WAT     H266714   1.083   3.898   9.388
22158WAT      O66715   3.024   1.435   6.851
22158WAT     H166716   3.086   1.369   6.809
22158WAT     H266717   2.935   1.391   6.865
22159WAT      O66718   3.604   6.976   3.108
22159WAT     H166719   3.680   7.039   3.095
22159WAT     H266720   3.562   6.955   3.020
22160WAT      O66721   1.280   6.514   7.501
22160WAT     H166722   1.234   6.551   7.582
22160WAT     H266723   1.215   6.460   7.448
22161WAT      O66724   1.341   9.633   0.299
22161WAT     H166725   1.257   9.642   0.246
22161WAT     H266726   1.394   9.718   0.290
22162WAT      O66727   3.149   3.163   4.798
22162WAT     H166728   3.226   3.222   4.775
22162WAT     H266729   3.100   3.202   4.877
22163WAT      O66730   2.822   2.205   2.166
22163WAT     H166731   2.854   2.113   2.142
22163WAT     H266732   2.825   2.263   2.085
22164WAT      O66733   3.789   3.935   2.728
22164WAT     H166734   3.882   3.945   2.694
22164WAT     H266735   3.735   4.016   2.703
22165WAT      O66736   0.304   3.921   8.357
22165WAT     H166737   0.234   3.929   8.286
22165WAT     H266738   0.279   3.980   8.434
22166WAT      O66739   8.984   1.620   9.070
22166WAT     H166740   9.011   1.632   8.974
22166WAT     H266741   8.885   1.612   9.075
22167WAT      O66742   8.828   2.124   0.620
22167WAT     H166743   8.789   2.043   0.576
22167WAT     H266744   8.927   2.126   0.605
22168WAT      O66745   7.850   5.178   5.367
22168WAT     H166746   7.765   5.188   5.419
22168WAT     H266747   7.831   5.192   5.270
22169WAT      O66748   7.674   5.629   8.573
22169WAT     H166749   7.707   5.588   8.659
22169WAT     H266750   7.752   5.652   8.515
22170WAT      O66751   7.394   7.158   5.139
22170WAT     H166752   7.472   7.218   5.157
22170WAT     H266753   7.374   7.103   5.221
22171WAT      O66754   9.377   5.879   4.910
22171WAT     H166755   9.324   5.962   4.894
22171WAT     H266756   9.449   5.898   4.976
22172WAT      O66757   5.710   6.352   1.374
22172WAT     H166758   5.761   6.303   1.445
22172WAT     H266759   5.751   6.442   1.360
22173WAT      O66760   4.478   8.578   2.270
22173WAT     H166761   4.388   8.603   2.305
22173WAT     H266762   4.468   8.528   2.184
22174WAT      O66763   7.470   0.179   0.199
22174WAT     H166764   7.478   0.252   0.132
22174WAT     H266765   7.375   0.169   0.228
22175WAT      O66766   7.869   7.102   1.733
22175WAT     H166767   7.832   7.009   1.739
22175WAT     H266768   7.968   7.100   1.748
22176WAT      O66769   3.826   4.212   1.181
22176WAT     H166770   3.832   4.311   1.192
22176WAT     H266771   3.911   4.170   1.212
22177WAT      O66772   1.987   0.172   2.474
22177WAT     H166773   2.083   0.163   2.450
22177WAT     H266774   1.942   0.083   2.467
22178WAT      O66775   4.012   0.263   8.381
22178WAT     H166776   3.967   0.311   8.305
22178WAT     H266777   3.984   0.304   8.468
22179WAT      O66778   7.655   3.455   2.451
22179WAT     H166779   7.579   3.448   2.385
22179WAT     H266780   7.633   3.402   2.533
22180WAT      O66781   9.212   7.580   0.579
22180WAT     H166782   9.266   7.496   0.586
22180WAT     H266783   9.242   7.632   0.500
22181WAT      O66784   9.428   8.512   1.495
22181WAT     H166785   9.487   8.581   1.536
22181WAT     H266786   9.466   8.482   1.407
22182WAT      O66787   3.394   8.863   5.360
22182WAT     H166788   3.304   8.894   5.327
22182WAT     H266789   3.435   8.934   5.417
22183WAT      O66790   5.508   7.964   4.881
22183WAT     H166791   5.413   7.934   4.878
22183WAT     H266792   5.513   8.062   4.859
22184WAT      O66793   1.751   9.044   5.375
22184WAT     H166794   1.768   8.950   5.405
22184WAT     H266795   1.812   9.067   5.300
22185WAT      O66796   8.955   8.087   2.461
22185WAT     H166797   8.946   8.086   2.361
22185WAT     H266798   8.966   7.994   2.494
22186WAT      O66799   3.063   1.989   5.867
22186WAT     H166800   3.020   1.932   5.796
22186WAT     H266801   2.993   2.023   5.929
22187WAT      O66802   6.925   3.580   9.229
22187WAT     H166803   6.925   3.630   9.143
22187WAT     H266804   6.910   3.643   9.305
22188WAT      O66805   1.528   2.934   7.469
22188WAT     H166806   1.501   2.899   7.379
22188WAT     H266807   1.626   2.955   7.468
22189WAT      O66808   7.904   1.868   3.963
22189WAT     H166809   7.855   1.859   4.049
22189WAT     H266810   7.991   1.915   3.979
22190WAT      O66811   7.155   6.928   5.069
22190WAT     H166812   7.091   6.990   5.115
22190WAT     H266813   7.158   6.950   4.971
22191WAT      O66814   0.154   4.071   7.554
22191WAT     H166815   0.203   4.147   7.596
22191WAT     H266816   0.187   3.984   7.591
22192WAT      O66817   2.641   6.666   6.685
22192WAT     H166818   2.664   6.568   6.686
22192WAT     H266819   2.551   6.679   6.726
22193WAT      O66820   0.121   3.951   8.172
22193WAT     H166821   0.074   3.913   8.093
22193WAT     H266822   0.175   4.030   8.144
22194WAT      O66823   2.017   7.161   9.128
22194WAT     H166824   2.112   7.156   9.159
22194WAT     H266825   2.011   7.223   9.049
22195WAT      O66826   2.222   6.481   7.717
22195WAT     H166827   2.278   6.457   7.797
22195WAT     H266828   2.130   6.444   7.729
22196WAT      O66829   8.236   2.125   1.513
22196WAT     H166830   8.252   2.071   1.430
22196WAT     H266831   8.239   2.222   1.491
22197WAT      O66832   9.726   7.605   9.526
22197WAT     H166833   9.676   7.629   9.609
22197WAT     H266834   9.820   7.638   9.533
22198WAT      O66835   1.887   7.457   8.364
22198WAT     H166836   1.873   7.375   8.421
22198WAT     H266837   1.867   7.538   8.419
22199WAT      O66838   9.046   6.146   8.509
22199WAT     H166839   8.969   6.209   8.519
22199WAT     H266840   9.131   6.198   8.509
22200WAT      O66841   7.009   2.995   5.778
22200WAT     H166842   6.955   2.914   5.752
22200WAT     H266843   7.021   3.054   5.698
22201WAT      O66844   8.899   7.337   9.592
22201WAT     H166845   8.860   7.413   9.644
22201WAT     H266846   8.867   7.250   9.630
22202WAT      O66847   0.868   4.398   2.123
22202WAT     H166848   0.799   4.328   2.133
22202WAT     H266849   0.933   4.371   2.051
22203WAT      O66850   2.029   9.714   1.637
22203WAT     H166851   2.025   9.804   1.593
22203WAT     H266852   2.085   9.720   1.720
22204WAT      O66853   6.114   0.282   9.596
22204WAT     H166854   6.071   0.366   9.563
22204WAT     H266855   6.044   0.218   9.627
22205WAT      O66856   6.225   4.544   6.253
22205WAT     H166857   6.312   4.495   6.252
22205WAT     H266858   6.213   4.594   6.167
22206WAT      O66859   2.218   3.747   7.624
22206WAT     H166860   2.281   3.680   7.586
22206WAT     H266861   2.257   3.838   7.615
22207WAT      O66862   2.104   4.566   1.527
22207WAT     H166863   2.199   4.595   1.511
22207WAT     H266864   2.091   4.474   1.492
22208WAT      O66865   1.291   3.453   2.806
22208WAT     H166866   1.342   3.414   2.882
22208WAT     H266867   1.224   3.518   2.841
22209WAT      O66868   9.813   1.827   0.530
22209WAT     H166869   9.846   1.870   0.446
22209WAT     H266870   9.888   1.821   0.596
22210WAT      O66871   3.398   3.358   4.341
22210WAT     H166872   3.486   3.333   4.299
22210WAT     H266873   3.400   3.454   4.367
22211WAT      O66874   3.340   7.822   6.018
22211WAT     H166875   3.327   7.725   5.995
22211WAT     H266876   3.259   7.874   5.990
22212WAT      O66877   4.567   4.214   0.428
22212WAT     H166878   4.657   4.241   0.393
22212WAT     H266879   4.567   4.116   0.447
22213WAT      O66880   8.940   8.825   0.764
22213WAT     H166881   8.853   8.873   0.776
22213WAT     H266882   8.996   8.873   0.696
22214WAT      O66883   8.804   0.562   9.396
22214WAT     H166884   8.794   0.652   9.439
22214WAT     H266885   8.792   0.491   9.466
22215WAT      O66886   6.652   5.441   9.628
22215WAT     H166887   6.705   5.493   9.562
22215WAT     H266888   6.579   5.499   9.665
22216WAT      O66889   8.040   5.312   3.087
22216WAT     H166890   7.973   5.386   3.085
22216WAT     H266891   8.079   5.300   2.996
22217WAT      O66892   6.675   7.365   6.279
22217WAT     H166893   6.759   7.366   6.333
22217WAT     H266894   6.602   7.412   6.330
22218WAT      O66895   5.442   4.094   3.121
22218WAT     H166896   5.477   4.175   3.075
22218WAT     H266897   5.468   4.012   3.069
22219WAT      O66898   5.058   1.975   8.128
22219WAT     H166899   4.970   1.985   8.174
22219WAT     H266900   5.051   1.902   8.060
22220WAT      O66901   7.575   1.127   5.557
22220WAT     H166902   7.609   1.038   5.586
22220WAT     H266903   7.646   1.196   5.574
22221WAT      O66904   2.128   0.670   0.959
22221WAT     H166905   2.192   0.700   0.888
22221WAT     H266906   2.175   0.669   1.047
22222WAT      O66907   4.070   9.826   9.772
22222WAT     H166908   4.017   9.758   9.824
22222WAT     H266909   4.088   9.905   9.830
22223WAT      O66910   7.001   0.295   7.907
22223WAT     H166911   6.934   0.343   7.964
22223WAT     H266912   7.026   0.354   7.830
22224WAT      O66913   5.779   1.568   8.953
22224WAT     H166914   5.725   1.651   8.969
22224WAT     H266915   5.835   1.549   9.033
22225WAT      O66916   2.170   9.326   3.048
22225WAT     H166917   2.233   9.393   3.087
22225WAT     H266918   2.196   9.234   3.076
22226WAT      O66919   1.119   5.315   5.250
22226WAT     H166920   1.203   5.287   5.203
22226WAT     H266921   1.041   5.267   5.210
22227WAT      O66922   8.352   3.422   3.165
22227WAT     H166923   8.307   3.408   3.077
22227WAT     H266924   8.401   3.509   3.164
22228WAT      O66925   3.430   1.888   2.120
22228WAT     H166926   3.491   1.904   2.042
22228WAT     H266927   3.483   1.850   2.196
22229WAT      O66928   5.179   0.937   2.104
22229WAT     H166929   5.130   1.017   2.069
22229WAT     H266930   5.274   0.963   2.122
22230WAT      O66931   1.062   6.504   3.142
22230WAT     H166932   1.099   6.496   3.235
22230WAT     H266933   1.046   6.412   3.104
22231WAT      O66934   8.061   4.656   3.156
22231WAT     H166935   7.992   4.585   3.170
22231WAT     H266936   8.041   4.733   3.216
22232WAT      O66937   4.161   3.729   8.402
22232WAT     H166938   4.119   3.659   8.459
22232WAT     H266939   4.253   3.700   8.375
22233WAT      O66940   4.756   0.875   3.583
22233WAT     H166941   4.753   0.969   3.549
22233WAT     H266942   4.827   0.868   3.654
22234WAT      O66943   4.998   4.113   1.011
22234WAT     H166944   5.066   4.086   1.079
22234WAT     H266945   5.011   4.209   0.987
22235WAT      O66946   9.785   3.662   0.986
22235WAT     H166947   9.747   3.740   1.036
22235WAT     H266948   9.790   3.582   1.046
22236WAT      O66949   2.172   8.119   4.511
22236WAT     H166950   2.181   8.218   4.499
22236WAT     H266951   2.256   8.083   4.551
22237WAT      O66952   1.909   5.907   5.355
22237WAT     H166953   1.978   5.913   5.428
22237WAT     H266954   1.891   5.999   5.319
22238WAT      O66955   2.794   2.691   4.341
22238WAT     H166956   2.808   2.776   4.392
22238WAT     H266957   2.696   2.671   4.335
22239WAT      O66958   8.784   6.307   3.491
22239WAT     H166959   8.841   6.239   3.445
22239WAT     H266960   8.786   6.393   3.440
22240WAT      O66961   6.296   7.145   1.936
22240WAT     H166962   6.223   7.109   1.995
22240WAT     H266963   6.281   7.114   1.842
22241WAT      O66964   6.982   7.498   5.222
22241WAT     H166965   7.059   7.514   5.283
22241WAT     H266966   6.933   7.415   5.250
22242WAT      O66967   5.721   4.662   6.074
22242WAT     H166968   5.802   4.706   6.037
22242WAT     H266969   5.644   4.676   6.011
22243WAT      O66970   6.395   7.595   0.003
22243WAT     H166971   6.303   7.587   0.042
22243WAT     H266972   6.415   7.692  -0.014
22244WAT      O66973   2.653   6.582   8.594
22244WAT     H166974   2.698   6.493   8.582
22244WAT     H266975   2.655   6.607   8.691
22245WAT      O66976   4.092   3.691   7.524
22245WAT     H166977   4.016   3.740   7.481
22245WAT     H266978   4.109   3.606   7.473
22246WAT      O66979   1.446   6.790   0.792
22246WAT     H166980   1.502   6.789   0.874
22246WAT     H266981   1.416   6.696   0.771
22247WAT      O66982   8.519   7.339   6.547
22247WAT     H166983   8.543   7.276   6.621
22247WAT     H266984   8.524   7.433   6.581
22248WAT      O66985   1.369   8.592   4.142
22248WAT     H166986   1.406   8.682   4.167
22248WAT     H266987   1.270   8.601   4.127
22249WAT      O66988   7.408   4.974   2.206
22249WAT     H166989   7.377   5.045   2.268
22249WAT     H266990   7.370   4.991   2.115
22250WAT      O66991   7.849   7.520   1.517
22250WAT     H166992   7.839   7.426   1.550
22250WAT     H266993   7.765   7.571   1.534
22251WAT      O66994   3.297   1.925   8.244
22251WAT     H166995   3.272   1.982   8.166
22251WAT     H266996   3.359   1.976   8.304
22252WAT      O66997   5.132   4.459   8.882
22252WAT     H166998   5.195   4.382   8.887
22252WAT     H266999   5.074   4.450   8.801
22253WAT      O67000   7.635   7.183   1.369
22253WAT     H167001   7.598   7.204   1.279
22253WAT     H267002   7.660   7.086   1.372
22254WAT      O67003   3.329   1.571   2.901
22254WAT     H167004   3.371   1.513   2.832
22254WAT     H267005   3.399   1.608   2.962
22255WAT      O67006   4.238   9.186   8.434
22255WAT     H167007   4.332   9.203   8.403
22255WAT     H267008   4.228   9.089   8.458
22256WAT      O67009   4.759   7.109   0.689
22256WAT     H167010   4.778   7.126   0.593
22256WAT     H267011   4.681   7.046   0.697
22257WAT      O67012   3.885   7.947   4.640
22257WAT     H167013   3.855   7.861   4.681
22257WAT     H267014   3.898   8.015   4.713
22258WAT      O67015   1.068   5.526   5.620
22258WAT     H167016   1.074   5.625   5.611
22258WAT     H267017   1.154   5.484   5.590
22259WAT      O67018   6.483   3.726   5.509
22259WAT     H167019   6.530   3.722   5.421
22259WAT     H267020   6.547   3.704   5.582
22260WAT      O67021   1.041   8.408   7.121
22260WAT     H167022   1.106   8.364   7.183
22260WAT     H267023   0.948   8.382   7.145
22261WAT      O67024   8.750   8.578   1.098
22261WAT     H167025   8.800   8.493   1.115
22261WAT     H267026   8.803   8.655   1.132
22262WAT      O67027   0.833   7.080   5.216
22262WAT     H167028   0.759   7.033   5.264
22262WAT     H267029   0.920   7.058   5.260
22263WAT      O67030   5.066   2.640   4.055
22263WAT     H167031   5.085   2.543   4.065
22263WAT     H267032   4.970   2.653   4.030
22264WAT      O67033   4.592   8.884   2.828
22264WAT     H167034   4.659   8.927   2.767
22264WAT     H267035   4.624   8.891   2.923
22265WAT      O67036   8.653   1.162   8.829
22265WAT     H167037   8.636   1.192   8.736
22265WAT     H267038   8.598   1.081   8.849
22266WAT      O67039   0.586   2.160   4.243
22266WAT     H167040   0.505   2.185   4.191
22266WAT     H267041   0.570   2.074   4.292
22267WAT      O67042   4.927   4.803   9.552
22267WAT     H167043   4.908   4.900   9.568
22267WAT     H267044   5.006   4.794   9.491
22268WAT      O67045   9.215   7.845   3.150
22268WAT     H167046   9.216   7.865   3.248
22268WAT     H267047   9.291   7.893   3.106
22269WAT      O67048   3.339   1.767   4.534
22269WAT     H167049   3.414   1.829   4.513
22269WAT     H267050   3.376   1.680   4.568
22270WAT      O67051   1.391   4.331   2.458
22270WAT     H167052   1.450   4.305   2.381
22270WAT     H267053   1.334   4.409   2.431
22271WAT      O67054   6.022   4.373   6.278
22271WAT     H167055   6.011   4.367   6.179
22271WAT     H267056   6.083   4.448   6.301
22272WAT      O67057   2.742   9.629   0.022
22272WAT     H167058   2.807   9.558  -0.006
22272WAT     H267059   2.714   9.614   0.117
22273WAT      O67060   3.041   0.048   4.943
22273WAT     H167061   3.115   0.092   4.892
22273WAT     H267062   3.036   0.088   5.035
22274WAT      O67063   4.840   2.119   4.756
22274WAT     H167064   4.811   2.152   4.666
22274WAT     H267065   4.852   2.019   4.752
22275WAT      O67066   7.109   2.147   7.324
22275WAT     H167067   7.097   2.052   7.294
22275WAT     H267068   7.176   2.150   7.398
22276WAT      O67069   5.588   1.281   0.778
22276WAT     H167070   5.581   1.333   0.693
22276WAT     H267071   5.666   1.219   0.772
22277WAT      O67072   9.583   1.346   2.522
22277WAT     H167073   9.486   1.325   2.535
22277WAT     H267074   9.631   1.338   2.610
22278WAT      O67075   4.060   0.315   1.406
22278WAT     H167076   4.020   0.237   1.453
22278WAT     H267077   3.992   0.353   1.343
22279WAT      O67078   5.493   2.002   7.097
22279WAT     H167079   5.482   2.011   7.196
22279WAT     H267080   5.481   1.907   7.070
22280WAT      O67081   3.609   8.477   8.324
22280WAT     H167082   3.634   8.427   8.241
22280WAT     H267083   3.515   8.510   8.317
22281WAT      O67084   6.677   9.436   2.206
22281WAT     H167085   6.725   9.487   2.134
22281WAT     H267086   6.661   9.496   2.284
22282WAT      O67087   7.473   7.620   9.431
22282WAT     H167088   7.559   7.601   9.384
22282WAT     H267089   7.465   7.718   9.448
22283WAT      O67090   2.943   7.259   5.587
22283WAT     H167091   2.847   7.270   5.612
22283WAT     H267092   2.950   7.235   5.490
22284WAT      O67093   1.836   8.065   9.065
22284WAT     H167094   1.891   8.133   9.016
22284WAT     H267095   1.740   8.075   9.039
22285WAT      O67096   0.748   4.588   7.878
22285WAT     H167097   0.717   4.633   7.962
22285WAT     H267098   0.752   4.655   7.804
22286WAT      O67099   7.919   0.968   1.003
22286WAT     H167100   7.888   1.031   0.932
22286WAT     H267101   7.987   0.905   0.965
22287WAT      O67102   5.199   8.251   9.810
22287WAT     H167103   5.197   8.315   9.888
22287WAT     H267104   5.198   8.157   9.844
22288WAT      O67105   3.232   3.113   5.065
22288WAT     H167106   3.303   3.158   5.119
22288WAT     H267107   3.252   3.123   4.968
22289WAT      O67108   0.335   9.409   4.217
22289WAT     H167109   0.319   9.506   4.236
22289WAT     H267110   0.310   9.389   4.123
22290WAT      O67111   8.240   2.823   7.764
22290WAT     H167112   8.339   2.805   7.772
22290WAT     H267113   8.208   2.793   7.675
22291WAT      O67114   2.137   1.303   6.005
22291WAT     H167115   2.137   1.242   5.926
22291WAT     H267116   2.152   1.250   6.089
22292WAT      O67117   9.539   6.472   9.790
22292WAT     H167118   9.458   6.518   9.825
22292WAT     H267119   9.575   6.522   9.711
22293WAT      O67120   9.314   2.598   4.817
22293WAT     H167121   9.385   2.655   4.774
22293WAT     H267122   9.316   2.507   4.775
22294WAT      O67123   2.694   6.784   9.582
22294WAT     H167124   2.596   6.780   9.604
22294WAT     H267125   2.727   6.692   9.561
22295WAT      O67126   6.869   0.659   6.820
22295WAT     H167127   6.900   0.688   6.911
22295WAT     H267128   6.855   0.560   6.820
22296WAT      O67129   3.266   8.980   3.010
22296WAT     H167130   3.197   9.042   3.046
22296WAT     H267131   3.312   8.934   3.086
22297WAT      O67132   9.469   9.817   6.184
22297WAT     H167133   9.496   9.875   6.262
22297WAT     H267134   9.493   9.722   6.203
22298WAT      O67135   6.672   3.509   0.875
22298WAT     H167136   6.668   3.414   0.907
22298WAT     H267137   6.591   3.558   0.906
22299WAT      O67138   8.631   3.153   2.738
22299WAT     H167139   8.657   3.082   2.672
22299WAT     H267140   8.702   3.223   2.741
22300WAT      O67141   4.034   2.526   9.879
22300WAT     H167142   4.008   2.598   9.943
22300WAT     H267143   4.068   2.567   9.794
22301WAT      O67144   0.956   6.007   9.572
22301WAT     H167145   0.875   5.988   9.517
22301WAT     H267146   1.033   5.954   9.536
22302WAT      O67147   5.432   1.640   8.459
22302WAT     H167148   5.419   1.704   8.383
22302WAT     H267149   5.354   1.576   8.462
22303WAT      O67150   9.260   8.800   6.883
22303WAT     H167151   9.329   8.743   6.929
22303WAT     H267152   9.205   8.846   6.952
22304WAT      O67153   3.760   6.478   3.060
22304WAT     H167154   3.817   6.555   3.031
22304WAT     H267155   3.782   6.398   3.004
22305WAT      O67156   1.786   4.097   6.555
22305WAT     H167157   1.717   4.067   6.490
22305WAT     H267158   1.850   4.022   6.573
22306WAT      O67159   7.133   7.174   5.989
22306WAT     H167160   7.127   7.092   6.045
22306WAT     H267161   7.086   7.159   5.902
22307WAT      O67162   6.417   7.341   8.273
22307WAT     H167163   6.415   7.333   8.373
22307WAT     H267164   6.512   7.338   8.242
22308WAT      O67165   0.644   2.593   7.323
22308WAT     H167166   0.560   2.540   7.332
22308WAT     H267167   0.723   2.531   7.329
22309WAT      O67168   4.872   1.039   9.247
22309WAT     H167169   4.967   1.033   9.276
22309WAT     H267170   4.845   1.135   9.243
22310WAT      O67171   9.800   1.953   4.650
22310WAT     H167172   9.775   1.867   4.696
22310WAT     H267173   9.743   1.966   4.570
22311WAT      O67174   6.261   3.530   9.247
22311WAT     H167175   6.185   3.501   9.304
22311WAT     H267176   6.342   3.546   9.304
22312WAT      O67177   0.253   6.539   3.693
22312WAT     H167178   0.326   6.604   3.673
22312WAT     H267179   0.281   6.481   3.769
22313WAT      O67180   3.200   9.693   5.708
22313WAT     H167181   3.100   9.695   5.700
22313WAT     H267182   3.239   9.643   5.631
22314WAT      O67183   8.049   1.133   8.598
22314WAT     H167184   7.999   1.067   8.655
22314WAT     H267185   8.015   1.128   8.504
22315WAT      O67186   8.426   3.849   2.412
22315WAT     H167187   8.389   3.913   2.479
22315WAT     H267188   8.526   3.849   2.417
22316WAT      O67189   8.982   0.427   0.631
22316WAT     H167190   9.071   0.428   0.677
22316WAT     H267191   8.952   0.332   0.621
22317WAT      O67192   7.928   5.652   0.580
22317WAT     H167193   7.945   5.559   0.612
22317WAT     H267194   8.011   5.687   0.536
22318WAT      O67195   4.733   3.482   1.639
22318WAT     H167196   4.756   3.391   1.606
22318WAT     H267197   4.709   3.541   1.562
22319WAT      O67198   7.878   9.459   6.355
22319WAT     H167199   7.904   9.518   6.278
22319WAT     H267200   7.951   9.392   6.371
22320WAT      O67201   6.134   8.703   5.014
22320WAT     H167202   6.195   8.748   5.079
22320WAT     H267203   6.098   8.770   4.949
22321WAT      O67204   0.785   8.406   6.065
22321WAT     H167205   0.739   8.317   6.067
22321WAT     H267206   0.727   8.475   6.108
22322WAT      O67207   5.559   6.462   2.042
22322WAT     H167208   5.485   6.492   1.982
22322WAT     H267209   5.521   6.413   2.119
22323WAT      O67210   3.530   8.910   5.766
22323WAT     H167211   3.614   8.932   5.814
22323WAT     H267212   3.452   8.918   5.828
22324WAT      O67213   6.097   7.928   4.196
22324WAT     H167214   6.021   7.991   4.177
22324WAT     H267215   6.181   7.964   4.157
22325WAT      O67216   6.746   0.660   9.780
22325WAT     H167217   6.670   0.603   9.813
22325WAT     H267218   6.759   0.737   9.842
22326WAT      O67219   5.410   7.559   6.719
22326WAT     H167220   5.423   7.540   6.816
22326WAT     H267221   5.387   7.474   6.671
22327WAT      O67222   4.421   3.007   0.973
22327WAT     H167223   4.433   3.038   0.879
22327WAT     H267224   4.350   2.936   0.977
22328WAT      O67225   4.401   7.766   9.704
22328WAT     H167226   4.404   7.786   9.607
22328WAT     H267227   4.384   7.668   9.718
22329WAT      O67228   4.592   2.212   9.312
22329WAT     H167229   4.660   2.275   9.274
22329WAT     H267230   4.515   2.264   9.349
22330WAT      O67231   7.557   0.162   4.107
22330WAT     H167232   7.495   0.086   4.126
22330WAT     H267233   7.558   0.180   4.008
22331WAT      O67234   0.679   8.589   9.173
22331WAT     H167235   0.580   8.590   9.154
22331WAT     H267236   0.728   8.621   9.092
22332WAT      O67237   1.973   5.111   2.296
22332WAT     H167238   2.046   5.066   2.244
22332WAT     H267239   1.978   5.210   2.281
22333WAT      O67240   5.790   3.446   1.157
22333WAT     H167241   5.777   3.420   1.252
22333WAT     H267242   5.769   3.543   1.146
22334WAT      O67243   1.100   0.926   5.951
22334WAT     H167244   1.165   0.996   5.922
22334WAT     H267245   1.141   0.871   6.024
22335WAT      O67246   0.522   7.144   5.525
22335WAT     H167247   0.622   7.145   5.525
22335WAT     H267248   0.490   7.094   5.606
22336WAT      O67249   0.471   8.081   5.107
22336WAT     H167250   0.488   8.139   5.027
22336WAT     H267251   0.556   8.066   5.157
22337WAT      O67252   5.811   2.518   3.808
22337WAT     H167253   5.886   2.514   3.874
22337WAT     H267254   5.845   2.557   3.722
22338WAT      O67255   4.562   5.499   2.117
22338WAT     H167256   4.596   5.406   2.101
22338WAT     H267257   4.637   5.564   2.102
22339WAT      O67258   3.098   1.145   5.530
22339WAT     H167259   3.191   1.148   5.567
22339WAT     H267260   3.053   1.233   5.544
22340WAT      O67261   9.280   2.012   1.878
22340WAT     H167262   9.313   1.987   1.969
22340WAT     H267263   9.218   2.090   1.886
22341WAT      O67264   7.097   5.769   1.696
22341WAT     H167265   7.107   5.688   1.754
22341WAT     H267266   7.002   5.779   1.667
22342WAT      O67267   3.630   5.686   1.024
22342WAT     H167268   3.682   5.720   0.947
22342WAT     H267269   3.691   5.670   1.102
22343WAT      O67270   5.020   5.083   3.122
22343WAT     H167271   5.053   5.149   3.189
22343WAT     H267272   5.010   4.994   3.165
22344WAT      O67273   8.542   0.132   9.847
22344WAT     H167274   8.508   0.224   9.868
22344WAT     H267275   8.561   0.125   9.749
22345WAT      O67276   4.810   5.351   2.731
22345WAT     H167277   4.816   5.260   2.772
22345WAT     H267278   4.851   5.418   2.792
22346WAT      O67279   0.921   9.050   9.751
22346WAT     H167280   1.004   9.014   9.707
22346WAT     H267281   0.841   9.001   9.716
22347WAT      O67282   8.419   1.293   6.940
22347WAT     H167283   8.496   1.281   6.876
22347WAT     H267284   8.360   1.366   6.907
22348WAT      O67285   6.939   5.172   1.742
22348WAT     H167286   6.861   5.129   1.696
22348WAT     H267287   6.982   5.106   1.803
22349WAT      O67288   3.253   1.577   1.352
22349WAT     H167289   3.272   1.493   1.301
22349WAT     H267290   3.229   1.650   1.289
22350WAT      O67291   9.850   3.886   6.202
22350WAT     H167292   9.876   3.973   6.160
22350WAT     H267293   9.811   3.826   6.132
22351WAT      O67294   8.249   5.106   5.603
22351WAT     H167295   8.346   5.102   5.628
22351WAT     H267296   8.213   5.013   5.597
22352WAT      O67297   5.258   3.654   3.789
22352WAT     H167298   5.247   3.620   3.696
22352WAT     H267299   5.355   3.660   3.810
22353WAT      O67300   5.291   7.558   1.111
22353WAT     H167301   5.341   7.595   1.033
22353WAT     H267302   5.195   7.585   1.105
22354WAT      O67303   2.494   4.968   6.998
22354WAT     H167304   2.490   5.034   7.074
22354WAT     H267305   2.524   4.879   7.032
22355WAT      O67306   5.200   6.330   4.052
22355WAT     H167307   5.278   6.382   4.017
22355WAT     H267308   5.135   6.312   3.979
22356WAT      O67309   6.992   0.973   4.578
22356WAT     H167310   6.942   1.060   4.582
22356WAT     H267311   6.939   0.908   4.523
22357WAT      O67312   3.046   2.919   0.829
22357WAT     H167313   3.023   2.834   0.783
22357WAT     H267314   3.143   2.918   0.853
22358WAT      O67315   6.089   7.126   3.408
22358WAT     H167316   6.079   7.048   3.470
22358WAT     H267317   6.028   7.115   3.330
22359WAT      O67318   2.980   5.883   0.460
22359WAT     H167319   3.028   5.966   0.486
22359WAT     H267320   2.911   5.904   0.391
22360WAT      O67321   3.549   0.868   7.538
22360WAT     H167322   3.559   0.774   7.573
22360WAT     H267323   3.545   0.932   7.615
22361WAT      O67324   6.503   8.581   0.400
22361WAT     H167325   6.585   8.631   0.371
22361WAT     H267326   6.440   8.573   0.324
22362WAT      O67327   9.588   7.651   1.725
22362WAT     H167328   9.535   7.730   1.754
22362WAT     H267329   9.568   7.630   1.630
22363WAT      O67330   0.091   1.102   0.433
22363WAT     H167331   0.053   1.011   0.451
22363WAT     H267332   0.190   1.100   0.446
22364WAT      O67333   1.682   5.401   0.820
22364WAT     H167334   1.670   5.358   0.730
22364WAT     H267335   1.777   5.431   0.830
22365WAT      O67336   9.675   6.276   3.808
22365WAT     H167337   9.735   6.209   3.851
22365WAT     H267338   9.717   6.309   3.723
22366WAT      O67339   9.567   8.093   7.365
22366WAT     H167340   9.607   8.043   7.442
22366WAT     H267341   9.510   8.031   7.311
22367WAT      O67342   9.443   7.098   7.960
22367WAT     H167343   9.440   7.075   7.863
22367WAT     H267344   9.517   7.163   7.977
22368WAT      O67345   2.457   9.675   4.537
22368WAT     H167346   2.388   9.721   4.482
22368WAT     H267347   2.542   9.668   4.486
22369WAT      O67348   3.603   2.330   1.697
22369WAT     H167349   3.672   2.262   1.675
22369WAT     H267350   3.638   2.394   1.765
22370WAT      O67351   9.825   9.405   8.934
22370WAT     H167352   9.849   9.341   9.007
22370WAT     H267353   9.882   9.387   8.854
22371WAT      O67354   5.609   7.027   1.313
22371WAT     H167355   5.553   7.030   1.230
22371WAT     H267356   5.602   7.114   1.362
22372WAT      O67357   3.774   4.197   3.025
22372WAT     H167358   3.685   4.203   2.979
22372WAT     H267359   3.829   4.277   3.001
22373WAT      O67360   0.147   7.394   3.276
22373WAT     H167361   0.138   7.482   3.322
22373WAT     H267362   0.224   7.344   3.314
22374WAT      O67363   5.308   0.114   9.042
22374WAT     H167364   5.250   0.195   9.050
22374WAT     H267365   5.274   0.057   8.967
22375WAT      O67366   3.984   9.143   9.587
22375WAT     H167367   3.887   9.144   9.611
22375WAT     H267368   4.039   9.147   9.671
22376WAT      O67369   6.603   1.847   6.440
22376WAT     H167370   6.577   1.941   6.419
22376WAT     H267371   6.648   1.844   6.529
22377WAT      O67372   7.289   3.391   4.916
22377WAT     H167373   7.254   3.298   4.911
22377WAT     H267374   7.263   3.432   5.003
22378WAT      O67375   5.534   9.676   7.628
22378WAT     H167376   5.538   9.733   7.710
22378WAT     H267377   5.483   9.724   7.557
22379WAT      O67378   7.739   8.097   3.657
22379WAT     H167379   7.776   8.077   3.748
22379WAT     H267380   7.655   8.046   3.643
22380WAT      O67381   9.059   4.555   9.895
22380WAT     H167382   9.056   4.578   9.797
22380WAT     H267383   9.022   4.463   9.908
22381WAT      O67384   2.088   7.635   7.578
22381WAT     H167385   2.023   7.559   7.577
22381WAT     H267386   2.038   7.721   7.582
22382WAT      O67387   3.555   3.114   0.545
22382WAT     H167388   3.534   3.079   0.454
22382WAT     H267389   3.493   3.189   0.568
22383WAT      O67390   4.462   4.042   2.006
22383WAT     H167391   4.428   3.951   2.029
22383WAT     H267392   4.561   4.037   1.992
22384WAT      O67393   2.853   3.770   1.715
22384WAT     H167394   2.951   3.752   1.716
22384WAT     H267395   2.822   3.792   1.808
22385WAT      O67396   9.083   5.313   8.517
22385WAT     H167397   9.011   5.252   8.484
22385WAT     H267398   9.159   5.258   8.552
22386WAT      O67399   4.853   0.589   7.604
22386WAT     H167400   4.768   0.639   7.587
22386WAT     H267401   4.849   0.499   7.560
22387WAT      O67402   0.507   9.084   2.630
22387WAT     H167403   0.533   9.157   2.693
22387WAT     H267404   0.443   9.022   2.676
22388WAT      O67405   8.672   0.953   7.480
22388WAT     H167406   8.647   1.034   7.533
22388WAT     H267407   8.591   0.915   7.436
22389WAT      O67408   4.452   1.793   5.296
22389WAT     H167409   4.401   1.707   5.288
22389WAT     H267410   4.495   1.798   5.386
22390WAT      O67411   5.687   6.706   0.096
22390WAT     H167412   5.710   6.759   0.178
22390WAT     H267413   5.694   6.764   0.015
22391WAT      O67414   2.993   4.287   7.258
22391WAT     H167415   2.920   4.251   7.317
22391WAT     H267416   2.957   4.303   7.166
22392WAT      O67417   9.336   7.212   3.342
22392WAT     H167418   9.419   7.246   3.386
22392WAT     H267419   9.324   7.115   3.362
22393WAT      O67420   3.693   6.109   2.306
22393WAT     H167421   3.714   6.206   2.317
22393WAT     H267422   3.594   6.098   2.297
22394WAT      O67423   0.266   4.610   2.126
22394WAT     H167424   0.335   4.550   2.168
22394WAT     H267425   0.175   4.575   2.146
22395WAT      O67426   2.554   8.000   3.539
22395WAT     H167427   2.497   7.920   3.560
22395WAT     H267428   2.498   8.082   3.538
22396WAT      O67429   8.211   8.200   8.371
22396WAT     H167430   8.123   8.167   8.406
22396WAT     H267431   8.197   8.285   8.320
22397WAT      O67432   0.284   6.258   0.179
22397WAT     H167433   0.326   6.186   0.124
22397WAT     H267434   0.304   6.348   0.140
22398WAT      O67435   2.341   0.475   0.443
22398WAT     H167436   2.265   0.448   0.501
22398WAT     H267437   2.413   0.406   0.447
22399WAT      O67438   6.756   0.303   2.286
22399WAT     H167439   6.723   0.213   2.257
22399WAT     H267440   6.692   0.342   2.352
22400WAT      O67441   5.223   8.544   1.878
22400WAT     H167442   5.291   8.538   1.804
22400WAT     H267443   5.193   8.452   1.903
22401WAT      O67444   4.870   9.091   9.002
22401WAT     H167445   4.844   9.136   9.087
22401WAT     H267446   4.969   9.073   9.003
22402WAT      O67447   3.283   7.020   3.862
22402WAT     H167448   3.322   7.037   3.772
22402WAT     H267449   3.346   7.053   3.932
22403WAT      O67450   3.278   8.497   5.785
22403WAT     H167451   3.248   8.579   5.835
22403WAT     H267452   3.334   8.440   5.845
22404WAT      O67453   7.527   2.487   1.971
22404WAT     H167454   7.618   2.458   1.941
22404WAT     H267455   7.530   2.512   2.068
22405WAT      O67456   8.105   5.172   0.183
22405WAT     H167457   8.102   5.241   0.255
22405WAT     H267458   8.120   5.216   0.095
22406WAT      O67459   1.002   9.721   6.563
22406WAT     H167460   1.036   9.728   6.657
22406WAT     H267461   0.907   9.753   6.560
22407WAT      O67462   3.322   5.673   2.327
22407WAT     H167463   3.325   5.762   2.374
22407WAT     H267464   3.245   5.672   2.264
22408WAT      O67465   3.519   9.659   3.861
22408WAT     H167466   3.533   9.654   3.762
22408WAT     H267467   3.548   9.749   3.894
22409WAT      O67468   4.548   5.453   2.611
22409WAT     H167469   4.495   5.493   2.686
22409WAT     H267470   4.638   5.425   2.645
22410WAT      O67471   8.830   2.146   1.804
22410WAT     H167472   8.802   2.050   1.797
22410WAT     H267473   8.818   2.178   1.898
22411WAT      O67474   2.248   0.083   2.439
22411WAT     H167475   2.322   0.128   2.490
22411WAT     H267476   2.240  -0.012   2.468
22412WAT      O67477   8.842   5.833   2.979
22412WAT     H167478   8.889   5.876   2.902
22412WAT     H267479   8.769   5.894   3.011
22413WAT      O67480   3.706   3.309   2.966
22413WAT     H167481   3.745   3.399   2.984
22413WAT     H267482   3.760   3.239   3.013
22414WAT      O67483   5.862   0.357   8.923
22414WAT     H167484   5.848   0.271   8.974
22414WAT     H267485   5.960   0.370   8.908
22415WAT      O67486   5.965   6.611   8.167
22415WAT     H167487   6.034   6.680   8.142
22415WAT     H267488   5.976   6.531   8.109
22416WAT      O67489   4.994   1.333   3.832
22416WAT     H167490   4.896   1.339   3.812
22416WAT     H267491   5.042   1.294   3.754
22417WAT      O67492   5.358   3.509   0.119
22417WAT     H167493   5.287   3.546   0.179
22417WAT     H267494   5.344   3.411   0.108
22418WAT      O67495   0.850   0.210   0.445
22418WAT     H167496   0.763   0.251   0.417
22418WAT     H267497   0.868   0.233   0.541
22419WAT      O67498   5.901   1.278   6.029
22419WAT     H167499   5.946   1.285   5.939
22419WAT     H267500   5.968   1.250   6.097
22420WAT      O67501   9.103   4.808   5.401
22420WAT     H167502   9.069   4.885   5.348
22420WAT     H267503   9.187   4.834   5.449
22421WAT      O67504   3.159   6.305   8.759
22421WAT     H167505   3.227   6.324   8.830
22421WAT     H267506   3.070   6.343   8.787
22422WAT      O67507   5.208   1.339   7.841
22422WAT     H167508   5.232   1.337   7.939
22422WAT     H267509   5.290   1.324   7.787
22423WAT      O67510   4.730   6.731   1.043
22423WAT     H167511   4.757   6.814   1.093
22423WAT     H267512   4.811   6.677   1.021
22424WAT      O67513   3.322   2.637   1.732
22424WAT     H167514   3.418   2.625   1.704
22424WAT     H267515   3.278   2.703   1.671
22425WAT      O67516   8.754   1.298   2.307
22425WAT     H167517   8.684   1.369   2.292
22425WAT     H267518   8.772   1.291   2.405
22426WAT      O67519   7.229   9.013   1.688
22426WAT     H167520   7.284   8.962   1.622
22426WAT     H267521   7.236   9.111   1.668
22427WAT      O67522   5.469   2.778   4.607
22427WAT     H167523   5.453   2.874   4.581
22427WAT     H267524   5.567   2.764   4.623
22428WAT      O67525   5.350   0.871   3.716
22428WAT     H167526   5.409   0.948   3.741
22428WAT     H267527   5.282   0.902   3.649
22429WAT      O67528   7.044   0.692   4.895
22429WAT     H167529   7.005   0.683   4.986
22429WAT     H267530   7.029   0.784   4.860
22430WAT      O67531   1.675   1.863   0.210
22430WAT     H167532   1.754   1.818   0.168
22430WAT     H267533   1.604   1.879   0.142
22431WAT      O67534   9.588   5.349   5.477
22431WAT     H167535   9.665   5.284   5.485
22431WAT     H267536   9.551   5.345   5.385
22432WAT      O67537   6.449   9.322   2.178
22432WAT     H167538   6.532   9.378   2.177
22432WAT     H267539   6.465   9.238   2.230
22433WAT      O67540   2.528   7.287   8.144
22433WAT     H167541   2.502   7.232   8.064
22433WAT     H267542   2.618   7.257   8.177
22434WAT      O67543   4.482   4.617   4.109
22434WAT     H167544   4.582   4.611   4.105
22434WAT     H267545   4.444   4.528   4.130
22435WAT      O67546   6.081   7.661   1.709
22435WAT     H167547   6.094   7.567   1.740
22435WAT     H267548   6.006   7.664   1.643
22436WAT      O67549   8.481   4.349   7.410
22436WAT     H167550   8.449   4.388   7.496
22436WAT     H267551   8.435   4.261   7.394
22437WAT      O67552   4.329   5.932   2.149
22437WAT     H167553   4.378   5.960   2.232
22437WAT     H267554   4.356   5.991   2.073
22438WAT      O67555   0.472   7.226   2.374
22438WAT     H167556   0.480   7.323   2.396
22438WAT     H267557   0.477   7.214   2.275
22439WAT      O67558   6.601   7.458   1.372
22439WAT     H167559   6.547   7.375   1.384
22439WAT     H267560   6.559   7.516   1.303
22440WAT      O67561   3.628   3.967   0.147
22440WAT     H167562   3.612   3.969   0.246
22440WAT     H267563   3.723   3.943   0.129
22441WAT      O67564   0.684   4.742   3.408
22441WAT     H167565   0.682   4.842   3.402
22441WAT     H267566   0.678   4.703   3.316
22442WAT      O67567   5.188   0.164   5.937
22442WAT     H167568   5.149   0.247   5.977
22442WAT     H267569   5.197   0.177   5.838
22443WAT      O67570   6.803   1.325   3.647
22443WAT     H167571   6.832   1.355   3.738
22443WAT     H267572   6.790   1.405   3.589
22444WAT      O67573   7.181   1.983   7.620
22444WAT     H167574   7.254   1.943   7.674
22444WAT     H267575   7.215   2.064   7.572
22445WAT      O67576   0.977   2.130   9.771
22445WAT     H167577   0.962   2.219   9.729
22445WAT     H267578   0.894   2.102   9.821
22446WAT      O67579   0.153   1.737   3.537
22446WAT     H167580   0.150   1.653   3.590
22446WAT     H267581   0.080   1.735   3.468
22447WAT      O67582   8.096   2.788   3.345
22447WAT     H167583   8.059   2.881   3.350
22447WAT     H267584   8.036   2.725   3.393
22448WAT      O67585   3.787   6.677   7.804
22448WAT     H167586   3.879   6.646   7.827
22448WAT     H267587   3.720   6.610   7.836
22449WAT      O67588   7.275   6.721   5.186
22449WAT     H167589   7.212   6.794   5.162
22449WAT     H267590   7.334   6.700   5.109
22450WAT      O67591   0.598   0.831   7.919
22450WAT     H167592   0.664   0.827   7.844
22450WAT     H267593   0.511   0.866   7.884
22451WAT      O67594   1.272   1.661   3.939
22451WAT     H167595   1.357   1.633   3.984
22451WAT     H267596   1.290   1.739   3.880
22452WAT      O67597   2.351   6.389   1.539
22452WAT     H167598   2.417   6.448   1.493
22452WAT     H267599   2.400   6.325   1.598
22453WAT      O67600   8.749   1.524   9.479
22453WAT     H167601   8.846   1.541   9.465
22453WAT     H267602   8.696   1.575   9.411
22454WAT      O67603   7.534   7.684   2.757
22454WAT     H167604   7.444   7.721   2.735
22454WAT     H267605   7.554   7.606   2.697
22455WAT      O67606   9.377   2.072   0.497
22455WAT     H167607   9.388   2.166   0.464
22455WAT     H267608   9.351   2.013   0.420
22456WAT      O67609   3.002   2.307   3.486
22456WAT     H167610   2.971   2.400   3.504
22456WAT     H267611   2.924   2.244   3.487
22457WAT      O67612   6.235   1.024   9.730
22457WAT     H167613   6.185   1.074   9.801
22457WAT     H267614   6.192   0.934   9.717
22458WAT      O67615   6.262   7.711   6.082
22458WAT     H167616   6.331   7.638   6.077
22458WAT     H267617   6.270   7.758   6.170
22459WAT      O67618   5.328   4.729   3.428
22459WAT     H167619   5.416   4.777   3.424
22459WAT     H267620   5.341   4.633   3.402
22460WAT      O67621   7.829   0.829   7.066
22460WAT     H167622   7.733   0.858   7.066
22460WAT     H267623   7.834   0.734   7.034
22461WAT      O67624   9.009   6.561   1.820
22461WAT     H167625   8.915   6.580   1.849
22461WAT     H267626   9.043   6.480   1.869
22462WAT      O67627   1.438   0.060   0.259
22462WAT     H167628   1.375   0.132   0.229
22462WAT     H267629   1.495   0.033   0.181
22463WAT      O67630   8.279   3.484   4.284
22463WAT     H167631   8.376   3.501   4.304
22463WAT     H267632   8.243   3.560   4.229
22464WAT      O67633   1.251   6.323   2.756
22464WAT     H167634   1.265   6.363   2.847
22464WAT     H267635   1.325   6.352   2.695
22465WAT      O67636   2.606   7.976   7.700
22465WAT     H167637   2.570   7.916   7.772
22465WAT     H267638   2.698   7.946   7.674
22466WAT      O67639   5.391   6.088   3.308
22466WAT     H167640   5.421   6.114   3.216
22466WAT     H267641   5.468   6.095   3.371
22467WAT      O67642   0.256   3.803   4.319
22467WAT     H167643   0.176   3.785   4.376
22467WAT     H267644   0.240   3.886   4.265
22468WAT      O67645   6.232   8.848   1.428
22468WAT     H167646   6.278   8.932   1.396
22468WAT     H267647   6.252   8.774   1.364
22469WAT      O67648   9.402   5.515   7.101
22469WAT     H167649   9.322   5.456   7.106
22469WAT     H267650   9.480   5.469   7.142
22470WAT      O67651   5.641   4.552   5.792
22470WAT     H167652   5.609   4.563   5.698
22470WAT     H267653   5.588   4.613   5.852
22471WAT      O67654   9.176   0.902   8.685
22471WAT     H167655   9.197   0.804   8.696
22471WAT     H267656   9.176   0.925   8.587
22472WAT      O67657   0.098   1.865   8.588
22472WAT     H167658   0.049   1.824   8.665
22472WAT     H267659   0.194   1.878   8.613
22473WAT      O67660   1.223   6.245   6.586
22473WAT     H167661   1.180   6.155   6.591
22473WAT     H267662   1.165   6.307   6.533
22474WAT      O67663   3.017   2.231   8.472
22474WAT     H167664   3.089   2.281   8.519
22474WAT     H267665   2.989   2.152   8.526
22475WAT      O67666   3.161   0.691   8.228
22475WAT     H167667   3.078   0.716   8.278
22475WAT     H267668   3.139   0.621   8.160
22476WAT      O67669   2.632   9.337   8.218
22476WAT     H167670   2.718   9.287   8.207
22476WAT     H267671   2.639   9.397   8.298
22477WAT      O67672   7.959   1.040   3.521
22477WAT     H167673   8.004   1.126   3.546
22477WAT     H267674   8.014   0.963   3.552
22478WAT      O67675   6.204   9.070   1.817
22478WAT     H167676   6.279   9.037   1.875
22478WAT     H267677   6.129   9.102   1.874
22479WAT      O67678   2.603   2.563   4.722
22479WAT     H167679   2.535   2.626   4.683
22479WAT     H267680   2.667   2.535   4.650
22480WAT      O67681   7.230   4.740   7.965
22480WAT     H167682   7.142   4.723   8.008
22480WAT     H267683   7.228   4.828   7.918
22481WAT      O67684   6.658   5.244   6.551
22481WAT     H167685   6.593   5.272   6.622
22481WAT     H267686   6.750   5.236   6.591
22482WAT      O67687   8.368   8.687   4.239
22482WAT     H167688   8.303   8.611   4.246
22482WAT     H267689   8.413   8.701   4.327
22483WAT      O67690   5.900   2.194   3.906
22483WAT     H167691   5.803   2.206   3.883
22483WAT     H267692   5.913   2.215   4.003
22484WAT      O67693   2.488   7.618   2.560
22484WAT     H167694   2.504   7.711   2.526
22484WAT     H267695   2.445   7.622   2.650
22485WAT      O67696   9.359   2.519   8.612
22485WAT     H167697   9.326   2.576   8.538
22485WAT     H267698   9.436   2.564   8.658
22486WAT      O67699   9.532   3.587   9.279
22486WAT     H167700   9.566   3.513   9.337
22486WAT     H267701   9.459   3.636   9.327
22487WAT      O67702   9.590   3.562   3.173
22487WAT     H167703   9.643   3.522   3.247
22487WAT     H267704   9.566   3.491   3.107
22488WAT      O67705   7.491   6.878   9.608
22488WAT     H167706   7.531   6.857   9.519
22488WAT     H267707   7.550   6.844   9.680
22489WAT      O67708   0.441   2.530   2.292
22489WAT     H167709   0.521   2.590   2.297
22489WAT     H267710   0.469   2.441   2.256
22490WAT      O67711   9.213   0.453   6.039
22490WAT     H167712   9.150   0.507   6.095
22490WAT     H267713   9.301   0.499   6.035
22491WAT      O67714   9.014   4.873   9.200
22491WAT     H167715   9.099   4.903   9.243
22491WAT     H267716   8.958   4.953   9.179
22492WAT      O67717   7.662   6.672   3.313
22492WAT     H167718   7.641   6.665   3.215
22492WAT     H267719   7.739   6.735   3.326
22493WAT      O67720   6.049   9.126   0.521
22493WAT     H167721   6.028   9.224   0.527
22493WAT     H267722   6.001   9.077   0.594
22494WAT      O67723   0.020   9.159   9.437
22494WAT     H167724  -0.074   9.193   9.435
22494WAT     H267725   0.023   9.071   9.485
22495WAT      O67726   6.429   3.818   6.220
22495WAT     H167727   6.375   3.738   6.249
22495WAT     H267728   6.366   3.892   6.195
22496WAT      O67729   3.339   5.567   0.557
22496WAT     H167730   3.381   5.508   0.626
22496WAT     H267731   3.322   5.657   0.595
22497WAT      O67732   4.541   2.327   7.251
22497WAT     H167733   4.597   2.359   7.175
22497WAT     H267734   4.599   2.280   7.318
22498WAT      O67735   8.582   6.158   9.160
22498WAT     H167736   8.546   6.121   9.074
22498WAT     H267737   8.540   6.111   9.237
22499WAT      O67738   2.876   5.473   8.785
22499WAT     H167739   2.783   5.483   8.823
22499WAT     H267740   2.907   5.561   8.749
22500WAT      O67741   4.331   5.982   5.665
22500WAT     H167742   4.373   6.029   5.587
22500WAT     H267743   4.400   5.927   5.711
22501WAT      O67744   7.130   5.375   6.755
22501WAT     H167745   7.187   5.306   6.799
22501WAT     H267746   7.188   5.444   6.712
22502WAT      O67747   4.403   1.445   9.205
22502WAT     H167748   4.384   1.539   9.232
22502WAT     H267749   4.320   1.390   9.213
22503WAT      O67750   9.733   6.098   5.789
22503WAT     H167751   9.639   6.111   5.821
22503WAT     H267752   9.772   6.017   5.834
22504WAT      O67753   0.196   5.549   0.263
22504WAT     H167754   0.157   5.487   0.195
22504WAT     H267755   0.123   5.602   0.306
22505WAT      O67756   0.626   9.517   6.269
22505WAT     H167757   0.663   9.431   6.303
22505WAT     H267758   0.648   9.527   6.172
22506WAT      O67759   8.350   8.477   1.730
22506WAT     H167760   8.314   8.505   1.641
22506WAT     H267761   8.449   8.489   1.731
22507WAT      O67762   4.213   5.928   8.863
22507WAT     H167763   4.119   5.908   8.835
22507WAT     H267764   4.276   5.902   8.789
22508WAT      O67765   5.020   3.050   1.565
22508WAT     H167766   5.057   3.057   1.657
22508WAT     H267767   5.017   2.953   1.538
22509WAT      O67768   9.560   4.666   7.646
22509WAT     H167769   9.519   4.611   7.574
22509WAT     H267770   9.488   4.710   7.700
22510WAT      O67771   5.167   2.391   1.522
22510WAT     H167772   5.074   2.425   1.534
22510WAT     H267773   5.175   2.345   1.433
22511WAT      O67774   5.373   9.615   2.287
22511WAT     H167775   5.409   9.708   2.282
22511WAT     H267776   5.376   9.573   2.196
22512WAT      O67777   6.818   9.801   3.926
22512WAT     H167778   6.749   9.779   3.857
22512WAT     H267779   6.840   9.898   3.923
22513WAT      O67780   6.384   8.384   3.491
22513WAT     H167781   6.330   8.340   3.564
22513WAT     H267782   6.460   8.434   3.532
22514WAT      O67783   1.488   0.909   9.262
22514WAT     H167784   1.400   0.876   9.294
22514WAT     H267785   1.504   1.001   9.298
22515WAT      O67786   7.337   5.164   6.755
22515WAT     H167787   7.297   5.083   6.713
22515WAT     H267788   7.378   5.139   6.843
22516WAT      O67789   5.947   9.255   5.424
22516WAT     H167790   5.898   9.341   5.441
22516WAT     H267791   5.963   9.245   5.326
22517WAT      O67792   5.451   0.150   4.515
22517WAT     H167793   5.509   0.081   4.471
22517WAT     H267794   5.375   0.106   4.561
22518WAT      O67795   0.021   9.497   0.800
22518WAT     H167796   0.108   9.497   0.849
22518WAT     H267797  -0.029   9.413   0.823
22519WAT      O67798   0.227   6.234   4.267
22519WAT     H167799   0.234   6.333   4.258
22519WAT     H267800   0.147   6.201   4.217
22520WAT      O67801   0.204   8.851   6.763
22520WAT     H167802   0.216   8.920   6.692
22520WAT     H267803   0.261   8.772   6.743
22521WAT      O67804   1.500   8.836   4.223
22521WAT     H167805   1.557   8.761   4.256
22521WAT     H267806   1.546   8.883   4.148
22522WAT      O67807   0.320   6.430   9.313
22522WAT     H167808   0.418   6.416   9.323
22522WAT     H267809   0.277   6.436   9.403
22523WAT      O67810   9.000   2.035   7.861
22523WAT     H167811   9.030   2.020   7.955
22523WAT     H267812   8.996   2.133   7.842
22524WAT      O67813   2.711   2.870   8.247
22524WAT     H167814   2.743   2.916   8.330
22524WAT     H267815   2.713   2.935   8.171
22525WAT      O67816   8.774   9.436   6.260
22525WAT     H167817   8.729   9.420   6.172
22525WAT     H267818   8.706   9.430   6.333
22526WAT      O67819   1.854   6.499   9.519
22526WAT     H167820   1.848   6.586   9.471
22526WAT     H267821   1.935   6.499   9.578
22527WAT      O67822   2.714   0.936   4.358
22527WAT     H167823   2.712   1.012   4.293
22527WAT     H267824   2.772   0.863   4.322
22528WAT      O67825   9.041   6.054   6.680
22528WAT     H167826   8.999   6.112   6.750
22528WAT     H267827   9.094   6.110   6.617
22529WAT      O67828   1.337   2.290   7.153
22529WAT     H167829   1.242   2.295   7.181
22529WAT     H267830   1.359   2.369   7.096
22530WAT      O67831   0.301   5.048   5.610
22530WAT     H167832   0.208   5.025   5.583
22530WAT     H267833   0.361   5.049   5.530
22531WAT      O67834   6.396   1.318   6.120
22531WAT     H167835   6.353   1.289   6.205
22531WAT     H267836   6.439   1.239   6.076
22532WAT      O67837   7.129   5.332   7.163
22532WAT     H167838   7.096   5.243   7.131
22532WAT     H267839   7.218   5.351   7.122
22533WAT      O67840   0.088   1.703   6.330
22533WAT     H167841   0.037   1.653   6.401
22533WAT     H267842   0.043   1.790   6.312
22534WAT      O67843   6.623   0.609   1.859
22534WAT     H167844   6.614   0.536   1.926
22534WAT     H267845   6.635   0.570   1.768
22535WAT      O67846   6.882   1.504   7.518
22535WAT     H167847   6.918   1.478   7.607
22535WAT     H267848   6.928   1.452   7.446
22536WAT      O67849   5.765   3.133   6.497
22536WAT     H167850   5.718   3.092   6.419
22536WAT     H267851   5.841   3.190   6.465
22537WAT      O67852   1.172   6.217   7.782
22537WAT     H167853   1.223   6.302   7.793
22537WAT     H267854   1.078   6.237   7.756
22538WAT      O67855   4.380   0.010   2.655
22538WAT     H167856   4.329  -0.048   2.591
22538WAT     H267857   4.456  -0.043   2.694
22539WAT      O67858   2.615   9.705   4.861
22539WAT     H167859   2.524   9.724   4.824
22539WAT     H267860   2.677   9.779   4.838
22540WAT      O67861   1.255   1.406   4.835
22540WAT     H167862   1.299   1.383   4.748
22540WAT     H267863   1.205   1.492   4.824
22541WAT      O67864   1.839   9.649   3.461
22541WAT     H167865   1.760   9.645   3.523
22541WAT     H267866   1.809   9.683   3.372
22542WAT      O67867   6.884   6.804   0.921
22542WAT     H167868   6.956   6.873   0.933
22542WAT     H267869   6.911   6.720   0.967
22543WAT      O67870   8.345   2.349   2.581
22543WAT     H167871   8.427   2.319   2.533
22543WAT     H267872   8.283   2.271   2.594
22544WAT      O67873   0.242   8.589   3.335
22544WAT     H167874   0.193   8.647   3.399
22544WAT     H267875   0.248   8.634   3.246
22545WAT      O67876   9.426   9.073   0.108
22545WAT     H167877   9.409   9.072   0.010
22545WAT     H267878   9.481   8.994   0.134
22546WAT      O67879   5.828   7.134   8.897
22546WAT     H167880   5.734   7.135   8.862
22546WAT     H267881   5.892   7.151   8.822
22547WAT      O67882   1.550   7.545   9.682
22547WAT     H167883   1.622   7.511   9.742
22547WAT     H267884   1.590   7.594   9.605
22548WAT      O67885   5.429   7.803   8.398
22548WAT     H167886   5.452   7.709   8.376
22548WAT     H267887   5.440   7.860   8.317
22549WAT      O67888   6.035   5.321   4.792
22549WAT     H167889   6.037   5.257   4.869
22549WAT     H267890   6.014   5.413   4.826
22550WAT      O67891   4.673   1.556   8.780
22550WAT     H167892   4.619   1.531   8.699
22550WAT     H267893   4.618   1.541   8.862
22551WAT      O67894   2.236   8.089   9.590
22551WAT     H167895   2.168   8.043   9.532
22551WAT     H267896   2.205   8.087   9.685
22552WAT      O67897   2.445   3.510   1.646
22552WAT     H167898   2.536   3.543   1.618
22552WAT     H267899   2.384   3.511   1.567
22553WAT      O67900   5.714   1.574   7.595
22553WAT     H167901   5.744   1.508   7.525
22553WAT     H267902   5.787   1.586   7.663
22554WAT      O67903   4.657   3.030   4.817
22554WAT     H167904   4.646   3.056   4.721
22554WAT     H267905   4.734   3.081   4.856
22555WAT      O67906   5.678   7.160   5.016
22555WAT     H167907   5.718   7.068   5.007
22555WAT     H267908   5.621   7.180   4.936
22556WAT      O67909   1.047   6.285   2.987
22556WAT     H167910   0.982   6.221   3.027
22556WAT     H267911   1.138   6.244   2.987
22557WAT      O67912   4.947   7.896   9.662
22557WAT     H167913   4.851   7.921   9.677
22557WAT     H267914   4.978   7.935   9.575
22558WAT      O67915   5.085   8.751   2.423
22558WAT     H167916   5.162   8.689   2.406
22558WAT     H267917   5.096   8.834   2.370
22559WAT      O67918   2.436   1.014   1.510
22559WAT     H167919   2.515   0.970   1.554
22559WAT     H267920   2.369   0.945   1.486
22560WAT      O67921   8.786   5.889   0.701
22560WAT     H167922   8.871   5.889   0.649
22560WAT     H267923   8.730   5.810   0.673
22561WAT      O67924   3.686   2.750   5.325
22561WAT     H167925   3.646   2.674   5.273
22561WAT     H267926   3.617   2.788   5.386
22562WAT      O67927   1.671   4.903   1.789
22562WAT     H167928   1.651   4.807   1.769
22562WAT     H267929   1.593   4.945   1.834
22563WAT      O67930   0.586   1.380   9.123
22563WAT     H167931   0.661   1.347   9.181
22563WAT     H267932   0.502   1.331   9.146
22564WAT      O67933   8.836   7.180   5.184
22564WAT     H167934   8.933   7.168   5.163
22564WAT     H267935   8.823   7.261   5.241
22565WAT      O67936   1.825   1.633   4.890
22565WAT     H167937   1.728   1.624   4.865
22565WAT     H267938   1.863   1.542   4.910
22566WAT      O67939   9.835   3.682   1.725
22566WAT     H167940   9.837   3.722   1.816
22566WAT     H267941   9.929   3.665   1.694
22567WAT      O67942   2.485   5.277   9.767
22567WAT     H167943   2.515   5.268   9.862
22567WAT     H267944   2.560   5.313   9.712
22568WAT      O67945   4.425   5.796   5.302
22568WAT     H167946   4.345   5.836   5.257
22568WAT     H267947   4.425   5.697   5.287
22569WAT      O67948   7.328   4.556   0.724
22569WAT     H167949   7.367   4.633   0.773
22569WAT     H267950   7.400   4.507   0.676
22570WAT      O67951   7.574   2.005   2.396
22570WAT     H167952   7.614   1.979   2.484
22570WAT     H267953   7.646   2.017   2.328
22571WAT      O67954   1.563   9.140   6.308
22571WAT     H167955   1.648   9.160   6.260
22571WAT     H267956   1.563   9.187   6.397
22572WAT      O67957   7.129   7.947   4.125
22572WAT     H167958   7.202   8.016   4.133
22572WAT     H267959   7.114   7.904   4.214
22573WAT      O67960   3.240   0.018   0.073
22573WAT     H167961   3.288  -0.035   0.004
22573WAT     H267962   3.215   0.108   0.035
22574WAT      O67963   6.664   7.991   8.969
22574WAT     H167964   6.569   7.982   8.998
22574WAT     H267965   6.697   8.083   8.992
22575WAT      O67966   0.486   4.836   9.685
22575WAT     H167967   0.579   4.871   9.694
22575WAT     H267968   0.480   4.745   9.726
22576WAT      O67969   6.317   7.089   6.233
22576WAT     H167970   6.408   7.101   6.272
22576WAT     H267971   6.320   7.022   6.159
22577WAT      O67972   6.711   1.823   2.356
22577WAT     H167973   6.627   1.851   2.309
22577WAT     H267974   6.787   1.824   2.292
22578WAT      O67975   4.432   4.699   4.747
22578WAT     H167976   4.350   4.673   4.797
22578WAT     H267977   4.463   4.789   4.778
22579WAT      O67978   5.200   2.990   3.122
22579WAT     H167979   5.119   3.048   3.129
22579WAT     H267980   5.279   3.037   3.162
22580WAT      O67981   3.089   2.593   6.337
22580WAT     H167982   3.000   2.617   6.376
22580WAT     H267983   3.080   2.582   6.238
22581WAT      O67984   4.646   7.627   9.431
22581WAT     H167985   4.568   7.566   9.449
22581WAT     H267986   4.722   7.574   9.395
22582WAT      O67987   1.567   8.092   1.185
22582WAT     H167988   1.646   8.154   1.185
22582WAT     H267989   1.564   8.044   1.272
22583WAT      O67990   7.560   8.890   4.163
22583WAT     H167991   7.534   8.924   4.073
22583WAT     H267992   7.582   8.792   4.156
22584WAT      O67993   6.742   5.274   6.122
22584WAT     H167994   6.767   5.334   6.198
22584WAT     H267995   6.775   5.182   6.141
22585WAT      O67996   0.626   8.275   0.170
22585WAT     H167997   0.693   8.321   0.112
22585WAT     H267998   0.615   8.180   0.140
22586WAT      O67999   1.302   5.607   2.971
22586WAT     H168000   1.396   5.632   2.949
22586WAT     H268001   1.246   5.613   2.888
22587WAT      O68002   4.777   2.984   8.667
22587WAT     H168003   4.855   2.925   8.689
22587WAT     H268004   4.781   3.009   8.570
22588WAT      O68005   5.729   6.377   2.473
22588WAT     H168006   5.719   6.393   2.571
22588WAT     H268007   5.741   6.280   2.456
22589WAT      O68008   2.907   9.786   1.657
22589WAT     H168009   2.842   9.854   1.690
22589WAT     H268010   2.972   9.764   1.730
22590WAT      O68011   1.710   1.005   0.857
22590WAT     H168012   1.649   1.084   0.860
22590WAT     H268013   1.782   1.022   0.789
22591WAT      O68014   5.885   1.607   3.226
22591WAT     H168015   5.970   1.571   3.266
22591WAT     H268016   5.845   1.675   3.287
22592WAT      O68017   0.954   2.594   6.598
22592WAT     H168018   1.016   2.524   6.635
22592WAT     H268019   1.005   2.678   6.582
22593WAT      O68020   4.941   0.413   4.859
22593WAT     H168021   5.030   0.368   4.861
22593WAT     H268022   4.869   0.346   4.874
22594WAT      O68023   7.965   2.026   0.650
22594WAT     H168024   7.921   2.091   0.589
22594WAT     H268025   8.037   2.072   0.701
22595WAT      O68026   9.478   6.304   2.509
22595WAT     H168027   9.453   6.268   2.599
22595WAT     H268028   9.395   6.334   2.461
22596WAT      O68029   1.732   1.086   4.493
22596WAT     H168030   1.793   1.007   4.503
22596WAT     H268031   1.784   1.165   4.460
22597WAT      O68032   6.600   6.804   9.153
22597WAT     H168033   6.594   6.809   9.253
22597WAT     H268034   6.553   6.722   9.121
22598WAT      O68035   1.372   8.683   6.686
22598WAT     H168036   1.435   8.679   6.764
22598WAT     H268037   1.424   8.668   6.602
22599WAT      O68038   1.467   3.125   8.493
22599WAT     H168039   1.460   3.077   8.405
22599WAT     H268040   1.527   3.204   8.482
22600WAT      O68041   5.520   4.090   2.027
22600WAT     H168042   5.604   4.145   2.021
22600WAT     H268043   5.444   4.150   2.054
22601WAT      O68044   4.726   1.862   7.008
22601WAT     H168045   4.790   1.923   7.056
22601WAT     H268046   4.634   1.876   7.045
22602WAT      O68047   7.732   3.341   4.321
22602WAT     H168048   7.633   3.354   4.322
22602WAT     H268049   7.773   3.386   4.401
22603WAT      O68050   2.303   5.317   1.489
22603WAT     H168051   2.307   5.318   1.389
22603WAT     H268052   2.218   5.275   1.519
22604WAT      O68053   8.317   4.141   5.130
22604WAT     H168054   8.349   4.231   5.160
22604WAT     H268055   8.302   4.143   5.031
22605WAT      O68056   3.379   6.317   9.701
22605WAT     H168057   3.458   6.378   9.712
22605WAT     H268058   3.367   6.295   9.605
22606WAT      O68059   4.350   4.306   9.114
22606WAT     H168060   4.262   4.287   9.157
22606WAT     H268061   4.372   4.403   9.123
22607WAT      O68062   5.404   0.082   4.980
22607WAT     H168063   5.445   0.155   4.926
22607WAT     H268064   5.359   0.120   5.061
22608WAT      O68065   3.811   2.412   6.810
22608WAT     H168066   3.889   2.376   6.860
22608WAT     H268067   3.819   2.386   6.713
22609WAT      O68068   7.063   4.949   2.615
22609WAT     H168069   7.034   4.914   2.526
22609WAT     H268070   7.150   4.906   2.641
22610WAT      O68071   6.307   0.306   0.570
22610WAT     H168072   6.210   0.323   0.554
22610WAT     H268073   6.346   0.383   0.620
22611WAT      O68074   5.724   3.618   0.581
22611WAT     H168075   5.692   3.606   0.487
22611WAT     H268076   5.777   3.537   0.608
22612WAT      O68077   8.680   7.471   9.794
22612WAT     H168078   8.732   7.555   9.805
22612WAT     H268079   8.589   7.482   9.833
22613WAT      O68080   5.568   5.948   9.159
22613WAT     H168081   5.482   5.908   9.127
22613WAT     H268082   5.644   5.887   9.134
22614WAT      O68083   3.570   3.647   9.646
22614WAT     H168084   3.596   3.701   9.726
22614WAT     H268085   3.471   3.655   9.631
22615WAT      O68086   5.298   6.903   3.715
22615WAT     H168087   5.390   6.866   3.702
22615WAT     H268088   5.281   6.975   3.648
22616WAT      O68089   4.702   2.401   2.927
22616WAT     H168090   4.651   2.348   2.995
22616WAT     H268091   4.761   2.339   2.876
22617WAT      O68092   8.844   7.567   1.561
22617WAT     H168093   8.767   7.622   1.529
22617WAT     H268094   8.894   7.618   1.632
22618WAT      O68095   5.119   0.372   1.204
22618WAT     H168096   5.125   0.440   1.131
22618WAT     H268097   5.202   0.317   1.205
22619WAT      O68098   0.423   5.939   8.514
22619WAT     H168099   0.339   5.987   8.536
22619WAT     H268100   0.499   6.004   8.509
22620WAT      O68101   9.793   6.496   1.002
22620WAT     H168102   9.838   6.500   0.913
22620WAT     H268103   9.779   6.589   1.036
22621WAT      O68104   3.918   0.977   0.206
22621WAT     H168105   3.997   1.036   0.194
22621WAT     H268106   3.949   0.882   0.217
22622WAT      O68107   4.589   9.207   3.149
22622WAT     H168108   4.605   9.266   3.227
22622WAT     H268109   4.609   9.112   3.174
22623WAT      O68110   6.346   8.626   5.994
22623WAT     H168111   6.278   8.682   5.946
22623WAT     H268112   6.365   8.543   5.942
22624WAT      O68113   0.506   7.886   3.574
22624WAT     H168114   0.513   7.910   3.670
22624WAT     H268115   0.563   7.806   3.554
22625WAT      O68116   3.749   8.846   9.214
22625WAT     H168117   3.828   8.791   9.189
22625WAT     H268118   3.779   8.925   9.268
22626WAT      O68119   6.895   5.301   4.771
22626WAT     H168120   6.923   5.386   4.817
22626WAT     H268121   6.835   5.249   4.831
22627WAT      O68122   2.687   3.233   2.999
22627WAT     H168123   2.681   3.133   2.997
22627WAT     H268124   2.672   3.269   2.907
22628WAT      O68125   7.304   7.520   4.378
22628WAT     H168126   7.400   7.494   4.390
22628WAT     H268127   7.254   7.501   4.463
22629WAT      O68128   0.238   4.440   0.957
22629WAT     H168129   0.224   4.380   1.035
22629WAT     H268130   0.227   4.387   0.872
22630WAT      O68131   2.601   1.467   8.274
22630WAT     H168132   2.687   1.489   8.321
22630WAT     H268133   2.578   1.541   8.211
22631WAT      O68134   9.195   9.764   8.707
22631WAT     H168135   9.144   9.849   8.695
22631WAT     H268136   9.135   9.686   8.691
22632WAT      O68137   7.678   3.224   3.003
22632WAT     H168138   7.672   3.124   2.995
22632WAT     H268139   7.747   3.259   2.940
22633WAT      O68140   3.190   2.235   7.176
22633WAT     H168141   3.106   2.220   7.229
22633WAT     H268142   3.220   2.148   7.136
22634WAT      O68143   4.188   0.075   4.732
22634WAT     H168144   4.178   0.075   4.831
22634WAT     H268145   4.097   0.065   4.690
22635WAT      O68146   8.236   0.160   3.495
22635WAT     H168147   8.169   0.234   3.489
22635WAT     H268148   8.266   0.134   3.403
22636WAT      O68149   2.889   8.004   6.301
22636WAT     H168150   2.844   8.013   6.390
22636WAT     H268151   2.928   7.913   6.292
22637WAT      O68152   3.223   3.042   1.147
22637WAT     H168153   3.262   2.983   1.077
22637WAT     H268154   3.295   3.077   1.206
22638WAT      O68155   5.909   2.395   7.321
22638WAT     H168156   5.987   2.450   7.291
22638WAT     H268157   5.874   2.342   7.244
22639WAT      O68158   3.341   9.249   2.747
22639WAT     H168159   3.278   9.326   2.745
22639WAT     H268160   3.291   9.164   2.729
22640WAT      O68161   7.947   8.307   2.109
22640WAT     H168162   8.039   8.274   2.130
22640WAT     H268163   7.951   8.367   2.029
22641WAT      O68164   2.383   3.877   5.755
22641WAT     H168165   2.403   3.804   5.820
22641WAT     H268166   2.309   3.934   5.790
22642WAT      O68167   5.930   0.678   5.798
22642WAT     H168168   5.917   0.776   5.780
22642WAT     H268169   5.956   0.632   5.713
22643WAT      O68170   9.458   4.416   1.445
22643WAT     H168171   9.408   4.426   1.360
22643WAT     H268172   9.459   4.503   1.495
22644WAT      O68173   4.532   4.815   9.613
22644WAT     H168174   4.470   4.787   9.686
22644WAT     H268175   4.625   4.824   9.650
22645WAT      O68176   6.841   0.849   1.074
22645WAT     H168177   6.852   0.908   0.994
22645WAT     H268178   6.905   0.878   1.145
22646WAT      O68179   9.651   1.138   7.303
22646WAT     H168180   9.601   1.113   7.386
22646WAT     H268181   9.722   1.205   7.326
22647WAT      O68182   9.125   2.730   6.277
22647WAT     H168183   9.220   2.714   6.250
22647WAT     H268184   9.067   2.658   6.239
22648WAT      O68185   7.457   6.691   7.422
22648WAT     H168186   7.378   6.728   7.470
22648WAT     H268187   7.527   6.663   7.488
22649WAT      O68188   1.140   7.403   4.666
22649WAT     H168189   1.218   7.446   4.712
22649WAT     H268190   1.072   7.375   4.734
22650WAT      O68191   0.530   9.805   8.049
22650WAT     H168192   0.605   9.756   8.093
22650WAT     H268193   0.520   9.774   7.955
22651WAT      O68194   4.714   1.384   6.659
22651WAT     H168195   4.766   1.403   6.576
22651WAT     H268196   4.654   1.462   6.679
22652WAT      O68197   3.268   0.056   1.618
22652WAT     H168198   3.191   0.091   1.566
22652WAT     H268199   3.279  -0.042   1.601
22653WAT      O68200   2.956   1.721   9.270
22653WAT     H168201   2.880   1.716   9.335
22653WAT     H268202   3.004   1.633   9.268
22654WAT      O68203   8.212   5.864   6.798
22654WAT     H168204   8.306   5.896   6.805
22654WAT     H268205   8.209   5.781   6.744
22655WAT      O68206   7.817   1.009   4.825
22655WAT     H168207   7.802   1.090   4.881
22655WAT     H268208   7.729   0.974   4.794
22656WAT      O68209   0.094   5.360   7.924
22656WAT     H168210   0.012   5.306   7.909
22656WAT     H268211   0.111   5.419   7.845
22657WAT      O68212   8.463   0.156   8.166
22657WAT     H168213   8.514   0.241   8.176
22657WAT     H268214   8.384   0.157   8.227
22658WAT      O68215   9.451   1.733   9.076
22658WAT     H168216   9.375   1.673   9.098
22658WAT     H268217   9.428   1.788   8.996
22659WAT      O68218   8.625   1.142   6.219
22659WAT     H168219   8.551   1.114   6.158
22659WAT     H268220   8.637   1.072   6.290
22660WAT      O68221   3.663   3.562   6.778
22660WAT     H168222   3.644   3.606   6.690
22660WAT     H268223   3.641   3.464   6.771
22661WAT      O68224   1.606   3.327   8.794
22661WAT     H168225   1.636   3.235   8.820
22661WAT     H268226   1.571   3.375   8.875
22662WAT      O68227   7.807   4.596   1.067
22662WAT     H168228   7.828   4.652   1.148
22662WAT     H268229   7.733   4.533   1.088
22663WAT      O68230   4.591   6.546   0.257
22663WAT     H168231   4.500   6.551   0.216
22663WAT     H268232   4.643   6.629   0.232
22664WAT      O68233   4.976   5.227   8.748
22664WAT     H168234   4.904   5.237   8.816
22664WAT     H268235   4.979   5.131   8.717
22665WAT      O68236   3.583   0.476   0.536
22665WAT     H168237   3.527   0.466   0.617
22665WAT     H268238   3.544   0.422   0.461
22666WAT      O68239   4.730   9.524   9.106
22666WAT     H168240   4.647   9.527   9.161
22666WAT     H268241   4.714   9.570   9.019
22667WAT      O68242   8.716   4.730   8.058
22667WAT     H168243   8.674   4.735   8.149
22667WAT     H268244   8.645   4.727   7.988
22668WAT      O68245   9.495   6.292   1.351
22668WAT     H168246   9.562   6.262   1.418
22668WAT     H268247   9.535   6.287   1.259
22669WAT      O68248   6.254   6.292   5.206
22669WAT     H168249   6.277   6.320   5.112
22669WAT     H268250   6.334   6.250   5.248
22670WAT      O68251   6.745   9.004   4.702
22670WAT     H168252   6.777   8.994   4.608
22670WAT     H268253   6.803   8.949   4.763
22671WAT      O68254   5.928   4.312   1.610
22671WAT     H168255   5.835   4.347   1.619
22671WAT     H268256   5.973   4.357   1.533
22672WAT      O68257   0.635   9.284   2.192
22672WAT     H168258   0.579   9.240   2.262
22672WAT     H268259   0.706   9.220   2.161
22673WAT      O68260   1.782   9.157   8.995
22673WAT     H168261   1.739   9.081   9.044
22673WAT     H268262   1.879   9.137   8.983
22674WAT      O68263   0.935   1.923   3.450
22674WAT     H168264   0.864   1.878   3.503
22674WAT     H268265   1.022   1.919   3.499
22675WAT      O68266   8.386   5.832   2.898
22675WAT     H168267   8.324   5.767   2.854
22675WAT     H268268   8.350   5.857   2.988
22676WAT      O68269   4.555   3.663   2.718
22676WAT     H168270   4.626   3.658   2.648
22676WAT     H268271   4.553   3.578   2.770
22677WAT      O68272   6.040   5.889   4.289
22677WAT     H168273   5.949   5.886   4.249
22677WAT     H268274   6.078   5.796   4.293
22678WAT      O68275   0.651   5.735   4.112
22678WAT     H168276   0.575   5.781   4.158
22678WAT     H268277   0.705   5.803   4.061
22679WAT      O68278   6.764   7.016   4.492
22679WAT     H168279   6.842   6.985   4.437
22679WAT     H268280   6.789   7.014   4.589
22680WAT      O68281   0.949   8.264   3.209
22680WAT     H168282   0.941   8.278   3.110
22680WAT     H268283   0.877   8.316   3.256
22681WAT      O68284   0.263   5.726   5.520
22681WAT     H168285   0.180   5.702   5.469
22681WAT     H268286   0.339   5.670   5.488
22682WAT      O68287   4.971   9.272   7.971
22682WAT     H168288   5.061   9.229   7.967
22682WAT     H268289   4.975   9.363   7.931
22683WAT      O68290   7.393   5.031   2.660
22683WAT     H168291   7.366   5.092   2.734
22683WAT     H268292   7.356   5.066   2.573
22684WAT      O68293   2.274   8.810   1.734
22684WAT     H168294   2.372   8.816   1.716
22684WAT     H268295   2.259   8.800   1.833
22685WAT      O68296   4.026   6.741   5.026
22685WAT     H168297   3.994   6.819   4.972
22685WAT     H268298   4.103   6.697   4.979
22686WAT      O68299   8.016   1.431   9.733
22686WAT     H168300   7.921   1.464   9.735
22686WAT     H268301   8.078   1.508   9.726
22687WAT      O68302   0.383   9.743   3.864
22687WAT     H168303   0.380   9.804   3.785
22687WAT     H268304   0.476   9.708   3.874
22688WAT      O68305   7.408   9.691   8.555
22688WAT     H168306   7.332   9.754   8.574
22688WAT     H268307   7.393   9.605   8.603
22689WAT      O68308   4.229   1.578   4.961
22689WAT     H168309   4.177   1.657   4.994
22689WAT     H268310   4.171   1.521   4.903
22690WAT      O68311   9.305   3.589   0.328
22690WAT     H168312   9.260   3.654   0.390
22690WAT     H268313   9.237   3.528   0.288
22691WAT      O68314   4.690   3.539   6.028
22691WAT     H168315   4.619   3.494   6.082
22691WAT     H268316   4.774   3.547   6.083
22692WAT      O68317   8.631   9.491   1.838
22692WAT     H168318   8.545   9.483   1.887
22692WAT     H268319   8.700   9.531   1.898
22693WAT      O68320   2.840   2.352   0.193
22693WAT     H168321   2.754   2.402   0.186
22693WAT     H268322   2.861   2.333   0.289
22694WAT      O68323   1.674   4.043   0.847
22694WAT     H168324   1.710   4.091   0.927
22694WAT     H268325   1.583   4.077   0.825
22695WAT      O68326   6.807   8.126   8.656
22695WAT     H168327   6.834   8.033   8.632
22695WAT     H268328   6.722   8.149   8.609
22696WAT      O68329   5.189   7.372   8.890
22696WAT     H168330   5.166   7.454   8.942
22696WAT     H268331   5.196   7.294   8.951
22697WAT      O68332   1.102   4.237   2.438
22697WAT     H168333   1.065   4.326   2.411
22697WAT     H268334   1.193   4.250   2.478
22698WAT      O68335   4.844   1.118   1.671
22698WAT     H168336   4.821   1.180   1.596
22698WAT     H268337   4.760   1.081   1.711
22699WAT      O68338   4.896   0.745   0.617
22699WAT     H168339   4.923   0.803   0.694
22699WAT     H268340   4.960   0.758   0.541
22700WAT      O68341   4.230   4.703   0.331
22700WAT     H168342   4.311   4.667   0.377
22700WAT     H268343   4.258   4.757   0.252
22701WAT      O68344   9.846   0.546   8.050
22701WAT     H168345   9.772   0.481   8.066
22701WAT     H268346   9.824   0.604   7.971
22702WAT      O68347   5.205   0.801   2.857
22702WAT     H168348   5.159   0.750   2.785
22702WAT     H268349   5.169   0.894   2.860
22703WAT      O68350   7.895   0.733   3.471
22703WAT     H168351   7.901   0.717   3.570
22703WAT     H268352   7.874   0.829   3.454
22704WAT      O68353   5.436   3.651   8.157
22704WAT     H168354   5.500   3.576   8.174
22704WAT     H268355   5.455   3.726   8.221
22705WAT      O68356   1.805   2.998   9.159
22705WAT     H168357   1.845   3.012   9.250
22705WAT     H268358   1.821   3.079   9.103
22706WAT      O68359   3.939   3.808   9.404
22706WAT     H168360   4.004   3.736   9.379
22706WAT     H268361   3.847   3.780   9.376
22707WAT      O68362   5.500   2.257   8.775
22707WAT     H168363   5.523   2.336   8.831
22707WAT     H268364   5.401   2.252   8.761
22708WAT      O68365   6.252   5.672   5.545
22708WAT     H168366   6.204   5.760   5.543
22708WAT     H268367   6.260   5.640   5.639
22709WAT      O68368   6.440   6.748   0.957
22709WAT     H168369   6.411   6.719   1.048
22709WAT     H268370   6.407   6.683   0.889
22710WAT      O68371   9.501   4.591   0.458
22710WAT     H168372   9.461   4.669   0.408
22710WAT     H268373   9.460   4.586   0.549
22711WAT      O68374   9.200   9.135   7.876
22711WAT     H168375   9.232   9.066   7.810
22711WAT     H268376   9.165   9.088   7.958
22712WAT      O68377   5.089   6.652   8.021
22712WAT     H168378   5.048   6.723   8.079
22712WAT     H268379   5.024   6.626   7.950
22713WAT      O68380   7.040   7.140   7.016
22713WAT     H168381   7.107   7.192   7.069
22713WAT     H268382   7.087   7.079   6.953
22714WAT      O68383   0.471   8.531   0.163
22714WAT     H168384   0.385   8.503   0.121
22714WAT     H268385   0.536   8.455   0.161
22715WAT      O68386   7.579   4.224   2.287
22715WAT     H168387   7.515   4.294   2.319
22715WAT     H268388   7.540   4.178   2.207
22716WAT      O68389   1.947   9.142   8.525
22716WAT     H168390   2.025   9.205   8.535
22716WAT     H268391   1.980   9.053   8.493
22717WAT      O68392   4.689   6.139   6.204
22717WAT     H168393   4.631   6.066   6.168
22717WAT     H268394   4.637   6.224   6.208
22718WAT      O68395   9.638   1.520   7.118
22718WAT     H168396   9.652   1.425   7.090
22718WAT     H268397   9.577   1.565   7.053
22719WAT      O68398   2.930   5.981   7.751
22719WAT     H168399   2.868   5.922   7.804
22719WAT     H268400   2.990   5.924   7.695
22720WAT      O68401   9.860   4.058   3.367
22720WAT     H168402   9.809   3.998   3.428
22720WAT     H268403   9.838   4.034   3.272
22721WAT      O68404   7.337   8.704   4.797
22721WAT     H168405   7.430   8.668   4.810
22721WAT     H268406   7.304   8.743   4.883
22722WAT      O68407   2.767   7.556   1.660
22722WAT     H168408   2.737   7.470   1.618
22722WAT     H268409   2.746   7.632   1.599
22723WAT      O68410   5.292   5.088   1.136
22723WAT     H168411   5.322   5.151   1.208
22723WAT     H268412   5.309   5.129   1.046
22724WAT      O68413   2.370   5.494   3.113
22724WAT     H168414   2.394   5.466   3.206
22724WAT     H268415   2.419   5.579   3.091
22725WAT      O68416   9.435   0.266   5.553
22725WAT     H168417   9.341   0.299   5.550
22725WAT     H268418   9.480   0.301   5.634
22726WAT      O68419   6.223   4.054   6.458
22726WAT     H168420   6.135   4.103   6.453
22726WAT     H268421   6.224   3.995   6.539
22727WAT      O68422   7.679   1.079   2.396
22727WAT     H168423   7.771   1.111   2.375
22727WAT     H268424   7.623   1.085   2.313
22728WAT      O68425   1.184   2.561   9.313
22728WAT     H168426   1.105   2.580   9.371
22728WAT     H268427   1.158   2.495   9.243
22729WAT      O68428   0.865   2.986   6.775
22729WAT     H168429   0.805   2.990   6.695
22729WAT     H268430   0.843   3.061   6.837
22730WAT      O68431   2.020   2.854   6.872
22730WAT     H168432   2.085   2.918   6.830
22730WAT     H268433   2.068   2.795   6.937
22731WAT      O68434   1.841   2.321   1.817
22731WAT     H168435   1.859   2.237   1.766
22731WAT     H268436   1.887   2.398   1.773
22732WAT      O68437   5.173   2.139   3.867
22732WAT     H168438   5.227   2.167   3.946
22732WAT     H268439   5.104   2.208   3.846
22733WAT      O68440   0.388   8.710   9.791
22733WAT     H168441   0.392   8.634   9.856
22733WAT     H268442   0.449   8.691   9.714
22734WAT      O68443   3.718   4.166   8.892
22734WAT     H168444   3.739   4.076   8.853
22734WAT     H268445   3.642   4.207   8.840
22735WAT      O68446   0.144   8.938   3.349
22735WAT     H168447   0.103   8.876   3.282
22735WAT     H268448   0.071   8.985   3.399
22736WAT      O68449   5.044   1.999   7.002
22736WAT     H168450   4.972   2.066   7.019
22736WAT     H268451   5.131   2.046   6.986
22737WAT      O68452   0.801   7.304   7.250
22737WAT     H168453   0.739   7.270   7.180
22737WAT     H268454   0.895   7.279   7.226
22738WAT      O68455   2.697   3.370   5.905
22738WAT     H168456   2.676   3.392   6.000
22738WAT     H268457   2.794   3.389   5.886
22739WAT      O68458   5.234   2.437   8.040
22739WAT     H168459   5.261   2.522   7.995
22739WAT     H268460   5.207   2.370   7.971
22740WAT      O68461   2.868   9.538   4.166
22740WAT     H168462   2.886   9.440   4.166
22740WAT     H268463   2.936   9.584   4.109
22741WAT      O68464   6.002   5.017   9.200
22741WAT     H168465   5.918   4.964   9.204
22741WAT     H268466   6.080   4.958   9.222
22742WAT      O68467   4.119   6.949   2.843
22742WAT     H168468   4.155   7.042   2.847
22742WAT     H268469   4.187   6.886   2.881
22743WAT      O68470   5.319   3.420   0.666
22743WAT     H168471   5.379   3.406   0.744
22743WAT     H268472   5.274   3.509   0.674
22744WAT      O68473   4.918   2.478   4.355
22744WAT     H168474   4.976   2.547   4.399
22744WAT     H268475   4.829   2.520   4.332
22745WAT      O68476   0.810   1.567   0.843
22745WAT     H168477   0.713   1.593   0.834
22745WAT     H268478   0.858   1.638   0.894
22746WAT      O68479   9.112   7.172   5.083
22746WAT     H168480   9.183   7.103   5.095
22746WAT     H268481   9.150   7.250   5.033
22747WAT      O68482   8.788   5.733   5.257
22747WAT     H168483   8.880   5.730   5.296
22747WAT     H268484   8.735   5.805   5.301
22748WAT      O68485   8.913   0.975   3.673
22748WAT     H168486   8.900   0.893   3.616
22748WAT     H268487   8.872   0.959   3.763
22749WAT      O68488   8.204   9.271   4.080
22749WAT     H168489   8.296   9.310   4.084
22749WAT     H268490   8.193   9.219   3.995
22750WAT      O68491   0.094   1.717   3.866
22750WAT     H168492   0.096   1.638   3.804
22750WAT     H268493   0.062   1.798   3.817
22751WAT      O68494   6.977   4.966   4.078
22751WAT     H168495   6.949   5.050   4.031
22751WAT     H268496   7.050   4.922   4.026
22752WAT      O68497   4.564   9.264   0.799
22752WAT     H168498   4.592   9.169   0.782
22752WAT     H268499   4.509   9.297   0.723
22753WAT      O68500   4.354   7.106   9.488
22753WAT     H168501   4.299   7.029   9.455
22753WAT     H268502   4.300   7.190   9.484
22754WAT      O68503   1.217   2.161   0.991
22754WAT     H168504   1.262   2.192   0.908
22754WAT     H268505   1.119   2.182   0.986
22755WAT      O68506   9.776   3.302   9.486
22755WAT     H168507   9.844   3.345   9.545
22755WAT     H268508   9.809   3.212   9.457
22756WAT      O68509   9.737   7.132   7.340
22756WAT     H168510   9.767   7.045   7.302
22756WAT     H268511   9.800   7.160   7.412
22757WAT      O68512   4.893   6.550   5.820
22757WAT     H168513   4.811   6.502   5.851
22757WAT     H268514   4.974   6.509   5.862
22758WAT      O68515   0.385   4.458   2.319
22758WAT     H168516   0.300   4.471   2.370
22758WAT     H268517   0.382   4.370   2.272
22759WAT      O68518   3.643   5.065   1.534
22759WAT     H168519   3.586   5.138   1.499
22759WAT     H268520   3.718   5.103   1.587
22760WAT      O68521   4.478   7.379   2.650
22760WAT     H168522   4.495   7.476   2.669
22760WAT     H268523   4.420   7.341   2.723
22761WAT      O68524   5.122   2.936   0.251
22761WAT     H168525   5.085   3.020   0.291
22761WAT     H268526   5.089   2.857   0.303
22762WAT      O68527   7.958   6.473   1.090
22762WAT     H168528   7.869   6.517   1.083
22762WAT     H268529   8.009   6.487   1.005
22763WAT      O68530   3.727   3.485   3.262
22763WAT     H168531   3.667   3.419   3.215
22763WAT     H268532   3.798   3.435   3.312
22764WAT      O68533   5.240   7.786   9.212
22764WAT     H168534   5.160   7.771   9.270
22764WAT     H268535   5.230   7.872   9.163
22765WAT      O68536   8.546   6.424   2.460
22765WAT     H168537   8.558   6.423   2.361
22765WAT     H268538   8.516   6.333   2.490
22766WAT      O68539   7.095   7.624   0.737
22766WAT     H168540   7.009   7.614   0.688
22766WAT     H268541   7.138   7.711   0.711
22767WAT      O68542   5.020   2.828   2.538
22767WAT     H168543   4.937   2.845   2.485
22767WAT     H268544   5.091   2.792   2.477
22768WAT      O68545   9.242   7.637   9.423
22768WAT     H168546   9.197   7.564   9.372
22768WAT     H268547   9.341   7.630   9.411
22769WAT      O68548   0.614   4.935   8.571
22769WAT     H168549   0.612   4.879   8.489
22769WAT     H268550   0.522   4.971   8.588
22770WAT      O68551   8.698   6.458   0.852
22770WAT     H168552   8.625   6.417   0.798
22770WAT     H268553   8.664   6.481   0.943
22771WAT      O68554   1.538   4.355   7.557
22771WAT     H168555   1.542   4.439   7.502
22771WAT     H268556   1.450   4.310   7.543
22772WAT      O68557   0.391   9.216   3.502
22772WAT     H168558   0.390   9.117   3.491
22772WAT     H268559   0.300   9.253   3.485
22773WAT      O68560   2.795   5.397   7.374
22773WAT     H168561   2.723   5.407   7.442
22773WAT     H268562   2.873   5.349   7.415
22774WAT      O68563   1.075   2.296   0.782
22774WAT     H168564   1.116   2.326   0.696
22774WAT     H268565   1.091   2.198   0.795
22775WAT      O68566   1.407   5.194   2.657
22775WAT     H168567   1.335   5.257   2.685
22775WAT     H268568   1.492   5.245   2.643
22776WAT      O68569   8.951   8.167   1.569
22776WAT     H168570   8.892   8.228   1.515
22776WAT     H268571   8.984   8.093   1.510
22777WAT      O68572   5.771   9.617   8.735
22777WAT     H168573   5.810   9.532   8.699
22777WAT     H268574   5.792   9.623   8.833
22778WAT      O68575   0.844   0.529   0.378
22778WAT     H168576   0.860   0.529   0.477
22778WAT     H268577   0.754   0.490   0.359
22779WAT      O68578   4.497   9.418   0.277
22779WAT     H168579   4.458   9.387   0.190
22779WAT     H268580   4.475   9.515   0.290
22780WAT      O68581   4.868   3.240   2.524
22780WAT     H168582   4.828   3.167   2.579
22780WAT     H268583   4.851   3.222   2.427
22781WAT      O68584   1.807   7.225   1.952
22781WAT     H168585   1.810   7.238   2.051
22781WAT     H268586   1.717   7.252   1.917
22782WAT      O68587   7.594   1.179   0.721
22782WAT     H168588   7.551   1.165   0.631
22782WAT     H268589   7.524   1.173   0.792
22783WAT      O68590   2.768   9.230   4.068
22783WAT     H168591   2.738   9.287   3.991
22783WAT     H268592   2.691   9.178   4.103
22784WAT      O68593   4.167   8.615   8.286
22784WAT     H168594   4.264   8.596   8.301
22784WAT     H268595   4.122   8.627   8.375
22785WAT      O68596   5.242   0.906   6.661
22785WAT     H168597   5.278   0.895   6.753
22785WAT     H268598   5.146   0.935   6.666
22786WAT      O68599   3.126   3.764   2.905
22786WAT     H168600   3.161   3.687   2.852
22786WAT     H268601   3.033   3.743   2.937
22787WAT      O68602   5.558   2.294   6.669
22787WAT     H168603   5.494   2.217   6.670
22787WAT     H268604   5.629   2.279   6.738
22788WAT      O68605   1.734   2.574   1.267
22788WAT     H168606   1.779   2.591   1.355
22788WAT     H268607   1.797   2.523   1.207
22789WAT      O68608   0.080   5.780   4.072
22789WAT     H168609   0.111   5.685   4.076
22789WAT     H268610   0.082   5.812   3.977
22790WAT      O68611   3.993   3.121   0.098
22790WAT     H168612   3.934   3.048   0.132
22790WAT     H268613   3.971   3.141   0.003
22791WAT      O68614   2.818   0.170   0.557
22791WAT     H168615   2.791   0.157   0.653
22791WAT     H268616   2.918   0.179   0.552
22792WAT      O68617   0.573   9.695   7.541
22792WAT     H168618   0.613   9.690   7.449
22792WAT     H268619   0.575   9.604   7.582
22793WAT      O68620   6.895   0.707   1.425
22793WAT     H168621   6.904   0.616   1.463
22793WAT     H268622   6.847   0.766   1.490
22794WAT      O68623   2.594   1.010   7.613
22794WAT     H168624   2.686   1.039   7.638
22794WAT     H268625   2.581   0.915   7.642
22795WAT      O68626   5.917   4.586   7.723
22795WAT     H168627   5.847   4.543   7.667
22795WAT     H268628   5.985   4.519   7.750
22796WAT      O68629   2.749   0.409   1.826
22796WAT     H168630   2.755   0.310   1.842
22796WAT     H268631   2.784   0.431   1.735
22797WAT      O68632   6.572   1.396   2.874
22797WAT     H168633   6.573   1.327   2.801
22797WAT     H268634   6.626   1.363   2.951
22798WAT      O68635   4.134   8.208   0.250
22798WAT     H168636   4.126   8.264   0.167
22798WAT     H268637   4.083   8.124   0.239
22799WAT      O68638   2.518   7.510   0.438
22799WAT     H168639   2.438   7.569   0.450
22799WAT     H268640   2.499   7.420   0.478
22800WAT      O68641   8.148   5.812   5.960
22800WAT     H168642   8.079   5.849   6.023
22800WAT     H268643   8.104   5.782   5.876
22801WAT      O68644   6.485   4.561   7.375
22801WAT     H168645   6.519   4.474   7.411
22801WAT     H268646   6.401   4.545   7.323
22802WAT      O68647   7.107   5.732   5.044
22802WAT     H168648   7.161   5.776   4.973
22802WAT     H268649   7.168   5.689   5.111
22803WAT      O68650   2.503   5.963   2.040
22803WAT     H168651   2.404   5.976   2.041
22803WAT     H268652   2.548   6.044   2.004
22804WAT      O68653   5.544   2.182   6.258
22804WAT     H168654   5.463   2.194   6.315
22804WAT     H268655   5.518   2.185   6.162
22805WAT      O68656   7.159   6.391   9.372
22805WAT     H168657   7.230   6.445   9.327
22805WAT     H268658   7.201   6.318   9.426
22806WAT      O68659   9.256   8.848   2.636
22806WAT     H168660   9.314   8.775   2.673
22806WAT     H268661   9.218   8.901   2.712
22807WAT      O68662   8.188   6.377   5.929
22807WAT     H168663   8.147   6.414   5.845
22807WAT     H268664   8.168   6.437   6.006
22808WAT      O68665   7.284   0.475   3.077
22808WAT     H168666   7.252   0.409   3.145
22808WAT     H268667   7.268   0.438   2.986
22809WAT      O68668   3.694   9.190   5.782
22809WAT     H168669   3.619   9.190   5.848
22809WAT     H268670   3.694   9.275   5.731
22810WAT      O68671   7.485   3.100   6.836
22810WAT     H168672   7.400   3.114   6.784
22810WAT     H268673   7.517   3.188   6.871
22811WAT      O68674   6.692   7.259   5.006
22811WAT     H168675   6.774   7.288   4.956
22811WAT     H268676   6.621   7.234   4.941
22812WAT      O68677   5.669   1.866   3.192
22812WAT     H168678   5.731   1.920   3.250
22812WAT     H268679   5.651   1.778   3.236
22813WAT      O68680   3.869   2.055   3.573
22813WAT     H168681   3.960   2.072   3.536
22813WAT     H268682   3.809   2.134   3.555
22814WAT      O68683   1.382   5.312   0.188
22814WAT     H168684   1.454   5.379   0.169
22814WAT     H268685   1.339   5.285   0.101
22815WAT      O68686   2.162   9.559   3.699
22815WAT     H168687   2.128   9.480   3.750
22815WAT     H268688   2.219   9.529   3.623
22816WAT      O68689   2.165   8.378   1.951
22816WAT     H168690   2.105   8.300   1.933
22816WAT     H268691   2.223   8.394   1.872
22817WAT      O68692   1.799   9.680   9.393
22817WAT     H168693   1.718   9.711   9.344
22817WAT     H268694   1.777   9.668   9.490
22818WAT      O68695   0.067   1.203   0.152
22818WAT     H168696   0.165   1.207   0.172
22818WAT     H268697   0.015   1.220   0.236
22819WAT      O68698   2.663   2.009   0.287
22819WAT     H168699   2.689   2.058   0.370
22819WAT     H268700   2.591   2.060   0.239
22820WAT      O68701   2.648   3.656   8.572
22820WAT     H168702   2.572   3.703   8.619
22820WAT     H268703   2.733   3.674   8.621
22821WAT      O68704   2.956   2.207   8.195
22821WAT     H168705   2.997   2.212   8.287
22821WAT     H268706   2.948   2.111   8.168
22822WAT      O68707   2.526   7.072   7.941
22822WAT     H168708   2.535   7.011   8.019
22822WAT     H268709   2.569   7.031   7.860
22823WAT      O68710   2.130   4.525   5.588
22823WAT     H168711   2.078   4.610   5.592
22823WAT     H268712   2.220   4.544   5.548
22824WAT      O68713   8.215   1.763   8.873
22824WAT     H168714   8.264   1.850   8.870
22824WAT     H268715   8.117   1.781   8.879
22825WAT      O68716   7.635   4.996   0.202
22825WAT     H168717   7.648   5.048   0.286
22825WAT     H268718   7.685   5.038   0.127
22826WAT      O68719   0.860   0.901   0.907
22826WAT     H168720   0.774   0.950   0.892
22826WAT     H268721   0.914   0.949   0.976
22827WAT      O68722   7.823   7.567   3.437
22827WAT     H168723   7.792   7.531   3.524
22827WAT     H268724   7.850   7.662   3.448
22828WAT      O68725   1.566   7.966   5.567
22828WAT     H168726   1.608   7.939   5.481
22828WAT     H268727   1.637   7.980   5.636
22829WAT      O68728   9.320   5.776   7.192
22829WAT     H168729   9.358   5.694   7.151
22829WAT     H268730   9.239   5.806   7.141
22830WAT      O68731   4.211   0.671   4.061
22830WAT     H168732   4.253   0.584   4.034
22830WAT     H268733   4.256   0.746   4.013
22831WAT      O68734   1.266   9.601   7.216
22831WAT     H168735   1.234   9.536   7.147
22831WAT     H268736   1.251   9.695   7.183
22832WAT      O68737   9.183   6.013   3.080
22832WAT     H168738   9.247   6.085   3.107
22832WAT     H268739   9.224   5.924   3.098
22833WAT      O68740   1.267   9.760   7.895
22833WAT     H168741   1.252   9.694   7.822
22833WAT     H268742   1.362   9.790   7.894
22834WAT      O68743   8.617   7.509   9.489
22834WAT     H168744   8.559   7.466   9.420
22834WAT     H268745   8.624   7.449   9.569
22835WAT      O68746   6.209   7.996   4.478
22835WAT     H168747   6.162   7.964   4.395
22835WAT     H268748   6.163   7.958   4.558
22836WAT      O68749   6.739   9.799   4.800
22836WAT     H168750   6.766   9.887   4.839
22836WAT     H268751   6.819   9.740   4.789
22837WAT      O68752   2.257   5.097   0.147
22837WAT     H168753   2.214   5.017   0.187
22837WAT     H268754   2.343   5.071   0.103
22838WAT      O68755   1.246   8.864   6.026
22838WAT     H168756   1.336   8.822   6.010
22838WAT     H268757   1.235   8.943   5.966
22839WAT      O68758   9.362   7.830   0.066
22839WAT     H168759   9.361   7.761  -0.006
22839WAT     H268760   9.406   7.792   0.147
22840WAT      O68761   0.244   9.838   0.141
22840WAT     H168762   0.147   9.849   0.119
22840WAT     H268763   0.285   9.771   0.080
22841WAT      O68764   6.830   5.141   3.112
22841WAT     H168765   6.766   5.082   3.063
22841WAT     H268766   6.792   5.233   3.120
22842WAT      O68767   5.783   6.961   4.115
22842WAT     H168768   5.794   7.014   4.031
22842WAT     H268769   5.750   7.021   4.188
22843WAT      O68770   1.235   4.876   8.745
22843WAT     H168771   1.320   4.864   8.693
22843WAT     H268772   1.256   4.904   8.838
22844WAT      O68773   8.029   3.707   8.785
22844WAT     H168774   7.985   3.796   8.798
22844WAT     H268775   8.017   3.651   8.867
22845WAT      O68776   9.019   8.649   7.434
22845WAT     H168777   9.013   8.577   7.365
22845WAT     H268778   8.931   8.695   7.442
22846WAT      O68779   8.774   8.387   6.602
22846WAT     H168780   8.824   8.303   6.621
22846WAT     H268781   8.749   8.390   6.505
22847WAT      O68782   7.713   0.018   8.113
22847WAT     H168783   7.729   0.099   8.057
22847WAT     H268784   7.789   0.005   8.176
22848WAT      O68785   8.244   1.098   3.594
22848WAT     H168786   8.296   1.056   3.668
22848WAT     H268787   8.306   1.148   3.533
22849WAT      O68788   0.473   2.346   3.596
22849WAT     H168789   0.503   2.255   3.622
22849WAT     H268790   0.522   2.415   3.649
22850WAT      O68791   3.353   1.521   9.427
22850WAT     H168792   3.347   1.558   9.519
22850WAT     H268793   3.448   1.493   9.408
22851WAT      O68794   0.854   9.281   4.717
22851WAT     H168795   0.777   9.272   4.780
22851WAT     H268796   0.824   9.325   4.633
22852WAT      O68797   6.875   2.581   4.023
22852WAT     H168798   6.969   2.600   3.995
22852WAT     H268799   6.852   2.635   4.104
22853WAT      O68800   2.409   3.335   4.521
22853WAT     H168801   2.375   3.356   4.613
22853WAT     H268802   2.496   3.286   4.528
22854WAT      O68803   8.303   2.584   7.147
22854WAT     H168804   8.361   2.602   7.226
22854WAT     H268805   8.289   2.669   7.096
22855WAT      O68806   3.873   8.518   7.364
22855WAT     H168807   3.933   8.598   7.363
22855WAT     H268808   3.871   8.476   7.273
22856WAT      O68809   0.089   4.200   4.930
22856WAT     H168810   0.132   4.290   4.933
22856WAT     H268811  -0.009   4.208   4.945
22857WAT      O68812   9.043   4.702   4.423
22857WAT     H168813   9.124   4.699   4.481
22857WAT     H268814   8.971   4.754   4.468
22858WAT      O68815   7.686   0.904   9.100
22858WAT     H168816   7.774   0.857   9.106
22858WAT     H268817   7.664   0.946   9.188
22859WAT      O68818   2.501   3.521   1.928
22859WAT     H168819   2.428   3.584   1.951
22859WAT     H268820   2.487   3.486   1.835
22860WAT      O68821   7.313   6.676   1.040
22860WAT     H168822   7.296   6.763   0.994
22860WAT     H268823   7.239   6.612   1.018
22861WAT      O68824   4.063   9.470   2.293
22861WAT     H168825   4.116   9.475   2.209
22861WAT     H268826   4.122   9.492   2.371
22862WAT      O68827   3.268   8.661   7.992
22862WAT     H168828   3.178   8.643   7.953
22862WAT     H268829   3.339   8.633   7.926
22863WAT      O68830   8.325   1.993   1.294
22863WAT     H168831   8.417   2.000   1.332
22863WAT     H268832   8.285   1.904   1.318
22864WAT      O68833   6.344   0.773   3.174
22864WAT     H168834   6.337   0.822   3.087
22864WAT     H268835   6.297   0.685   3.166
22865WAT      O68836   2.450   2.359   2.292
22865WAT     H168837   2.533   2.410   2.316
22865WAT     H268838   2.476   2.271   2.254
22866WAT      O68839   7.570   6.486   6.534
22866WAT     H168840   7.614   6.397   6.528
22866WAT     H268841   7.550   6.507   6.630
22867WAT      O68842   5.514   6.215   3.115
22867WAT     H168843   5.613   6.210   3.109
22867WAT     H268844   5.486   6.306   3.146
22868WAT      O68845   5.565   7.199   9.078
22868WAT     H168846   5.651   7.245   9.099
22868WAT     H268847   5.517   7.249   9.005
22869WAT      O68848   3.960   9.343   4.406
22869WAT     H168849   3.978   9.255   4.450
22869WAT     H268850   3.907   9.328   4.323
22870WAT      O68851   9.605   3.734   5.456
22870WAT     H168852   9.532   3.802   5.465
22870WAT     H268853   9.689   3.779   5.427
22871WAT      O68854   3.596   0.221   3.676
22871WAT     H168855   3.561   0.238   3.769
22871WAT     H268856   3.548   0.142   3.637
22872WAT      O68857   6.432   0.521   8.806
22872WAT     H168858   6.513   0.469   8.831
22872WAT     H268859   6.395   0.567   8.887
22873WAT      O68860   3.268   9.203   7.450
22873WAT     H168861   3.185   9.209   7.394
22873WAT     H268862   3.344   9.171   7.393
22874WAT      O68863   6.594   4.058   4.117
22874WAT     H168864   6.573   4.148   4.080
22874WAT     H268865   6.643   4.004   4.048
22875WAT      O68866   5.580   7.327   5.777
22875WAT     H168867   5.575   7.335   5.678
22875WAT     H268868   5.669   7.360   5.809
22876WAT      O68869   6.032   5.871   1.617
22876WAT     H168870   6.070   5.938   1.554
22876WAT     H268871   5.934   5.886   1.627
22877WAT      O68872   9.185   3.923   4.725
22877WAT     H168873   9.248   4.000   4.710
22877WAT     H268874   9.175   3.907   4.823
22878WAT      O68875   1.751   6.776   8.292
22878WAT     H168876   1.776   6.865   8.254
22878WAT     H268877   1.833   6.719   8.299
22879WAT      O68878   0.957   1.926   2.397
22879WAT     H168879   1.013   1.983   2.456
22879WAT     H268880   0.896   1.984   2.343
22880WAT      O68881   8.537   8.363   7.962
22880WAT     H168882   8.562   8.369   7.866
22880WAT     H268883   8.534   8.267   7.990
22881WAT      O68884   1.944   2.856   4.235
22881WAT     H168885   1.939   2.784   4.304
22881WAT     H268886   1.867   2.918   4.246
22882WAT      O68887   3.986   1.070   5.861
22882WAT     H168888   4.028   1.158   5.882
22882WAT     H268889   4.057   1.000   5.851
22883WAT      O68890   7.146   8.125   9.378
22883WAT     H168891   7.202   8.160   9.302
22883WAT     H268892   7.052   8.112   9.347
22884WAT      O68893   8.574   7.958   0.104
22884WAT     H168894   8.516   8.016   0.161
22884WAT     H268895   8.521   7.927   0.025
22885WAT      O68896   7.899   4.220   8.908
22885WAT     H168897   7.930   4.291   8.971
22885WAT     H268898   7.864   4.263   8.825
22886WAT      O68899   0.364   2.773   6.985
22886WAT     H168900   0.446   2.716   6.992
22886WAT     H268901   0.370   2.829   6.903
22887WAT      O68902   1.165   9.653   3.393
22887WAT     H168903   1.120   9.586   3.452
22887WAT     H268904   1.255   9.620   3.368
22888WAT      O68905   3.587   7.993   1.378
22888WAT     H168906   3.683   7.985   1.404
22888WAT     H268907   3.569   8.086   1.345
22889WAT      O68908   1.550   6.044   1.134
22889WAT     H168909   1.529   6.029   1.037
22889WAT     H268910   1.608   5.969   1.167
22890WAT      O68911   1.856   3.881   1.888
22890WAT     H168912   1.789   3.955   1.884
22890WAT     H268913   1.810   3.794   1.867
22891WAT      O68914   3.168   4.802   7.820
22891WAT     H168915   3.217   4.758   7.745
22891WAT     H268916   3.232   4.821   7.895
22892WAT      O68917   0.566   0.863   5.164
22892WAT     H168918   0.496   0.795   5.187
22892WAT     H268919   0.606   0.841   5.075
22893WAT      O68920   0.098   0.565   1.441
22893WAT     H168921   0.055   0.499   1.503
22893WAT     H268922   0.036   0.587   1.366
22894WAT      O68923   4.113   7.950   4.504
22894WAT     H168924   4.036   7.969   4.565
22894WAT     H268925   4.156   7.863   4.529
22895WAT      O68926   6.316   3.585   4.745
22895WAT     H168927   6.242   3.533   4.789
22895WAT     H268928   6.288   3.680   4.733
22896WAT      O68929   3.522   5.113   0.036
22896WAT     H168930   3.553   5.089   0.128
22896WAT     H268931   3.571   5.194   0.005
22897WAT      O68932   9.073   6.807   9.061
22897WAT     H168933   9.123   6.849   8.986
22897WAT     H268934   9.082   6.707   9.055
22898WAT      O68935   5.563   9.138   3.337
22898WAT     H168936   5.490   9.131   3.404
22898WAT     H268937   5.629   9.208   3.366
22899WAT      O68938   0.919   6.203   1.423
22899WAT     H168939   0.869   6.150   1.355
22899WAT     H268940   1.014   6.215   1.394
22900WAT      O68941   1.116   8.604   5.885
22900WAT     H168942   1.071   8.567   5.803
22900WAT     H268943   1.101   8.703   5.888
22901WAT      O68944   4.694   4.061   8.942
22901WAT     H168945   4.594   4.066   8.947
22901WAT     H268946   4.725   3.971   8.974
22902WAT      O68947   5.907   4.254   0.912
22902WAT     H168948   5.959   4.251   0.826
22902WAT     H268949   5.927   4.340   0.960
22903WAT      O68950   0.886   6.029   8.457
22903WAT     H168951   0.855   5.940   8.423
22903WAT     H268952   0.854   6.041   8.551
22904WAT      O68953   0.832   3.489   1.538
22904WAT     H168954   0.750   3.479   1.481
22904WAT     H268955   0.805   3.509   1.632
22905WAT      O68956   2.805   5.638   8.472
22905WAT     H168957   2.722   5.636   8.415
22905WAT     H268958   2.784   5.682   8.559
22906WAT      O68959   4.169   3.219   1.943
22906WAT     H168960   4.228   3.222   2.024
22906WAT     H268961   4.165   3.125   1.909
22907WAT      O68962   2.361   6.026   0.160
22907WAT     H168963   2.328   5.932   0.158
22907WAT     H268964   2.311   6.076   0.232
22908WAT      O68965   0.461   6.998   3.276
22908WAT     H168966   0.560   6.987   3.287
22908WAT     H268967   0.440   7.017   3.180
22909WAT      O68968   7.185   3.952   6.235
22909WAT     H168969   7.086   3.966   6.247
22909WAT     H268970   7.216   4.003   6.156
22910WAT      O68971   1.574   0.817   0.717
22910WAT     H168972   1.629   0.872   0.779
22910WAT     H268973   1.498   0.871   0.682
22911WAT      O68974   4.243   0.403   8.673
22911WAT     H168975   4.273   0.497   8.654
22911WAT     H268976   4.149   0.391   8.640
22912WAT      O68977   7.694   4.225   1.917
22912WAT     H168978   7.659   4.289   1.849
22912WAT     H268979   7.788   4.200   1.894
22913WAT      O68980   6.006   8.828   0.051
22913WAT     H168981   5.982   8.840   0.148
22913WAT     H268982   5.972   8.739   0.020
22914WAT      O68983   5.032   0.772   5.429
22914WAT     H168984   5.068   0.863   5.406
22914WAT     H268985   5.097   0.724   5.487
22915WAT      O68986   3.447   8.994   0.661
22915WAT     H168987   3.438   8.981   0.562
22915WAT     H268988   3.514   9.066   0.680
22916WAT      O68989   4.670   7.404   4.278
22916WAT     H168990   4.726   7.372   4.202
22916WAT     H268991   4.719   7.389   4.364
22917WAT      O68992   4.062   7.525   0.328
22917WAT     H168993   4.113   7.610   0.321
22917WAT     H268994   4.027   7.499   0.238
22918WAT      O68995   7.522   7.833   8.214
22918WAT     H168996   7.532   7.741   8.178
22918WAT     H268997   7.590   7.893   8.171
22919WAT      O68998   9.654   8.517   7.622
22919WAT     H168999   9.591   8.495   7.547
22919WAT     H269000   9.685   8.611   7.613
22920WAT      O69001   6.473   0.067   6.221
22920WAT     H169002   6.544   0.135   6.202
22920WAT     H269003   6.393   0.112   6.260
22921WAT      O69004   7.922   0.280   8.470
22921WAT     H169005   7.994   0.349   8.471
22921WAT     H269006   7.900   0.253   8.563
22922WAT      O69007   7.908   0.710   8.839
22922WAT     H169008   7.993   0.681   8.796
22922WAT     H269009   7.918   0.709   8.939
22923WAT      O69010   0.218   4.963   3.125
22923WAT     H169011   0.276   4.895   3.080
22923WAT     H269012   0.274   5.016   3.189
22924WAT      O69013   8.170   4.357   8.282
22924WAT     H169014   8.258   4.312   8.292
22924WAT     H269015   8.182   4.456   8.285
22925WAT      O69016   2.144   9.230   5.797
22925WAT     H169017   2.051   9.253   5.825
22925WAT     H269018   2.141   9.155   5.731
22926WAT      O69019   7.176   9.282   5.663
22926WAT     H169020   7.183   9.288   5.563
22926WAT     H269021   7.194   9.372   5.703
22927WAT      O69022   9.503   0.122   0.384
22927WAT     H169023   9.415   0.168   0.396
22927WAT     H269024   9.500   0.032   0.428
22928WAT      O69025   7.570   1.971   4.387
22928WAT     H169026   7.474   1.947   4.372
22928WAT     H269027   7.593   2.054   4.336
22929WAT      O69028   9.505   9.217   4.785
22929WAT     H169029   9.536   9.312   4.783
22929WAT     H269030   9.415   9.213   4.829
22930WAT      O69031   7.434   2.961   2.314
22930WAT     H169032   7.365   2.999   2.376
22930WAT     H269033   7.388   2.911   2.240
22931WAT      O69034   6.644   6.832   0.804
22931WAT     H169035   6.565   6.804   0.858
22931WAT     H269036   6.728   6.800   0.849
22932WAT      O69037   6.834   3.491   6.087
22932WAT     H169038   6.784   3.430   6.149
22932WAT     H269039   6.932   3.487   6.108
22933WAT      O69040   4.723   4.020   2.014
22933WAT     H169041   4.805   4.063   1.976
22933WAT     H269042   4.750   3.957   2.086
22934WAT      O69043   6.619   1.715   3.621
22934WAT     H169044   6.702   1.662   3.601
22934WAT     H269045   6.624   1.750   3.715
22935WAT      O69046   4.709   3.966   3.881
22935WAT     H169047   4.641   3.928   3.944
22935WAT     H269048   4.759   3.891   3.838
22936WAT      O69049   6.359   7.837   1.490
22936WAT     H169050   6.407   7.868   1.408
22936WAT     H269051   6.308   7.914   1.529
22937WAT      O69052   2.410   1.191   3.648
22937WAT     H169053   2.348   1.243   3.706
22937WAT     H269054   2.398   1.220   3.552
22938WAT      O69055   3.201   0.811   5.635
22938WAT     H169056   3.169   0.802   5.541
22938WAT     H269057   3.142   0.875   5.684
22939WAT      O69058   3.565   9.184   5.101
22939WAT     H169059   3.661   9.180   5.075
22939WAT     H269060   3.512   9.123   5.042
22940WAT      O69061   7.944   4.169   1.798
22940WAT     H169062   7.891   4.148   1.715
22940WAT     H269063   8.018   4.102   1.807
22941WAT      O69064   7.152   6.195   5.612
22941WAT     H169065   7.067   6.150   5.584
22941WAT     H269066   7.169   6.274   5.552
22942WAT      O69067   9.443   0.535   5.697
22942WAT     H169068   9.459   0.546   5.796
22942WAT     H269069   9.353   0.496   5.682
22943WAT      O69070   9.413   1.082   5.319
22943WAT     H169071   9.360   1.086   5.404
22943WAT     H269072   9.368   1.018   5.256
22944WAT      O69073   7.526   3.898   8.178
22944WAT     H169074   7.502   3.877   8.084
22944WAT     H269075   7.448   3.878   8.238
22945WAT      O69076   7.077   8.296   7.779
22945WAT     H169077   7.001   8.292   7.715
22945WAT     H269078   7.109   8.391   7.787
22946WAT      O69079   5.263   1.950   4.400
22946WAT     H169080   5.164   1.964   4.408
22946WAT     H269081   5.310   2.038   4.406
22947WAT      O69082   5.502   0.233   7.156
22947WAT     H169083   5.421   0.175   7.153
22947WAT     H269084   5.574   0.187   7.208
22948WAT      O69085   6.960   1.349   8.977
22948WAT     H169086   7.009   1.347   8.890
22948WAT     H269087   7.008   1.291   9.043
22949WAT      O69088   6.748   0.328   4.391
22949WAT     H169089   6.680   0.377   4.446
22949WAT     H269090   6.751   0.232   4.420
22950WAT      O69091   7.011   4.429   4.968
22950WAT     H169092   6.971   4.341   4.945
22950WAT     H269093   6.939   4.499   4.972
22951WAT      O69094   5.688   8.728   5.553
22951WAT     H169095   5.735   8.706   5.639
22951WAT     H269096   5.754   8.767   5.489
22952WAT      O69097   9.655   5.020   2.832
22952WAT     H169098   9.577   5.082   2.845
22952WAT     H269099   9.719   5.030   2.908
22953WAT      O69100   1.742   5.476   4.170
22953WAT     H169101   1.779   5.386   4.191
22953WAT     H269102   1.740   5.489   4.071
22954WAT      O69103   2.402   7.379   5.898
22954WAT     H169104   2.394   7.422   5.808
22954WAT     H269105   2.367   7.286   5.894
22955WAT      O69106   9.483   7.843   1.873
22955WAT     H169107   9.396   7.807   1.905
22955WAT     H269108   9.504   7.927   1.922
22956WAT      O69109   9.179   0.753   8.000
22956WAT     H169110   9.269   0.786   7.970
22956WAT     H269111   9.128   0.828   8.042
22957WAT      O69112   0.013   0.267   2.589
22957WAT     H169113   0.078   0.284   2.662
22957WAT     H269114  -0.080   0.269   2.626
22958WAT      O69115   1.465   4.906   7.571
22958WAT     H169116   1.466   4.981   7.637
22958WAT     H269117   1.443   4.941   7.480
22959WAT      O69118   2.494   9.772   2.863
22959WAT     H169119   2.486   9.701   2.793
22959WAT     H269120   2.573   9.752   2.921
22960WAT      O69121   7.493   7.951   3.655
22960WAT     H169122   7.453   8.010   3.585
22960WAT     H269123   7.503   7.858   3.619
22961WAT      O69124   0.449   3.851   5.207
22961WAT     H169125   0.414   3.940   5.236
22961WAT     H269126   0.512   3.865   5.130
22962WAT      O69127   7.266   7.007   8.517
22962WAT     H169128   7.265   6.919   8.565
22962WAT     H269129   7.337   7.005   8.447
22963WAT      O69130   4.515   8.058   3.759
22963WAT     H169131   4.489   7.965   3.783
22963WAT     H269132   4.534   8.110   3.843
22964WAT      O69133   0.242   0.885   6.576
22964WAT     H169134   0.288   0.956   6.630
22964WAT     H269135   0.205   0.815   6.636
22965WAT      O69136   0.835   0.041   8.752
22965WAT     H169137   0.816  -0.037   8.811
22965WAT     H269138   0.773   0.040   8.674
22966WAT      O69139   4.547   6.954   0.717
22966WAT     H169140   4.522   6.959   0.620
22966WAT     H269141   4.532   6.861   0.751
22967WAT      O69142   5.833   1.311   2.964
22967WAT     H169143   5.774   1.237   2.997
22967WAT     H269144   5.797   1.399   2.994
22968WAT      O69145   4.059   0.221   4.258
22968WAT     H169146   4.021   0.137   4.297
22968WAT     H269147   4.132   0.255   4.318
22969WAT      O69148   7.256   1.832   5.845
22969WAT     H169149   7.198   1.914   5.839
22969WAT     H269150   7.352   1.859   5.850
22970WAT      O69151   3.602   5.084   7.608
22970WAT     H169152   3.540   5.087   7.529
22970WAT     H269153   3.572   5.013   7.671
22971WAT      O69154   3.684   2.207   0.009
22971WAT     H169155   3.713   2.112   0.019
22971WAT     H269156   3.765   2.265  -0.004
22972WAT      O69157   4.911   5.734   4.678
22972WAT     H169158   4.888   5.678   4.599
22972WAT     H269159   4.848   5.714   4.753
22973WAT      O69160   1.568   0.455   3.446
22973WAT     H169161   1.480   0.419   3.412
22973WAT     H269162   1.554   0.498   3.535
22974WAT      O69163   0.782   4.762   4.800
22974WAT     H169164   0.812   4.821   4.724
22974WAT     H269165   0.792   4.666   4.773
22975WAT      O69166   2.607   6.676   0.628
22975WAT     H169167   2.578   6.580   0.630
22975WAT     H269168   2.704   6.683   0.649
22976WAT      O69169   5.154   2.568   3.464
22976WAT     H169170   5.153   2.569   3.564
22976WAT     H269171   5.134   2.659   3.429
22977WAT      O69172   6.292   2.023   7.054
22977WAT     H169173   6.229   2.088   7.013
22977WAT     H269174   6.286   2.030   7.154
22978WAT      O69175   4.382   8.654   6.367
22978WAT     H169176   4.296   8.705   6.374
22978WAT     H269177   4.440   8.677   6.445
22979WAT      O69178   8.672   8.371   2.358
22979WAT     H169179   8.700   8.308   2.431
22979WAT     H269180   8.659   8.463   2.397
22980WAT      O69181   8.726   2.083   7.737
22980WAT     H169182   8.653   2.022   7.767
22980WAT     H269183   8.805   2.071   7.797
22981WAT      O69184   4.093   7.977   9.842
22981WAT     H169185   4.130   7.887   9.818
22981WAT     H269186   4.075   7.981   9.940
22982WAT      O69187   7.740   6.582   0.333
22982WAT     H169188   7.747   6.590   0.432
22982WAT     H269189   7.644   6.578   0.306
22983WAT      O69190   5.360   4.126   2.338
22983WAT     H169191   5.430   4.191   2.309
22983WAT     H269192   5.402   4.036   2.351
22984WAT      O69193   2.362   2.092   9.551
22984WAT     H169194   2.414   2.020   9.505
22984WAT     H269195   2.264   2.078   9.537
22985WAT      O69196   6.531   6.634   6.403
22985WAT     H169197   6.588   6.558   6.372
22985WAT     H269198   6.467   6.659   6.330
22986WAT      O69199   0.145   1.847   1.267
22986WAT     H169200   0.123   1.767   1.211
22986WAT     H269201   0.242   1.868   1.260
22987WAT      O69202   0.683   2.996   8.430
22987WAT     H169203   0.744   3.071   8.404
22987WAT     H269204   0.691   2.979   8.529
22988WAT      O69205   2.897   5.083   4.534
22988WAT     H169206   2.912   5.005   4.473
22988WAT     H269207   2.815   5.132   4.505
22989WAT      O69208   9.330   9.709   1.056
22989WAT     H169209   9.250   9.653   1.075
22989WAT     H269210   9.318   9.756   0.969
22990WAT      O69211   1.821   6.579   8.665
22990WAT     H169212   1.828   6.613   8.759
22990WAT     H269213   1.912   6.556   8.631
22991WAT      O69214   3.139   9.801   8.348
22991WAT     H169215   3.205   9.859   8.300
22991WAT     H269216   3.142   9.822   8.446
22992WAT      O69217   8.499   7.069   0.081
22992WAT     H169218   8.472   7.015   0.001
22992WAT     H269219   8.455   7.159   0.077
22993WAT      O69220   6.687   1.773   1.559
22993WAT     H169221   6.587   1.773   1.569
22993WAT     H269222   6.729   1.789   1.649
22994WAT      O69223   2.628   0.842   8.644
22994WAT     H169224   2.539   0.816   8.681
22994WAT     H269225   2.652   0.781   8.569
22995WAT      O69226   9.629   4.037   1.745
22995WAT     H169227   9.604   3.998   1.657
22995WAT     H269228   9.717   4.001   1.774
22996WAT      O69229   8.825   1.381   2.846
22996WAT     H169230   8.735   1.355   2.881
22996WAT     H269231   8.896   1.339   2.903
22997WAT      O69232   1.447   3.428   3.935
22997WAT     H169233   1.519   3.481   3.888
22997WAT     H269234   1.465   3.330   3.923
22998WAT      O69235   0.963   7.944   9.013
22998WAT     H169236   0.917   8.003   8.947
22998WAT     H269237   1.044   7.992   9.048
22999WAT      O69238   9.588   9.307   8.786
22999WAT     H169239   9.615   9.228   8.732
22999WAT     H269240   9.670   9.354   8.819
23000WAT      O69241   4.946   8.280   9.047
23000WAT     H169242   4.892   8.294   8.964
23000WAT     H269243   5.043   8.294   9.027
23001WAT      O69244   3.771   2.775   5.938
23001WAT     H169245   3.696   2.708   5.944
23001WAT     H269246   3.736   2.866   5.963
23002WAT      O69247   9.857   3.168   1.461
23002WAT     H169248   9.773   3.125   1.428
23002WAT     H269249   9.835   3.235   1.531
23003WAT      O69250   1.630   6.466   9.667
23003WAT     H169251   1.596   6.548   9.713
23003WAT     H269252   1.715   6.487   9.619
23004WAT      O69253   3.952   9.030   1.122
23004WAT     H169254   4.033   9.064   1.170
23004WAT     H269255   3.915   8.951   1.172
23005WAT      O69256   6.146   8.174   9.734
23005WAT     H169257   6.091   8.249   9.770
23005WAT     H269258   6.184   8.201   9.645
23006WAT      O69259   5.054   6.430   6.897
23006WAT     H169260   5.074   6.433   6.995
23006WAT     H269261   5.099   6.507   6.851
23007WAT      O69262   4.570   7.098   6.206
23007WAT     H169263   4.647   7.134   6.153
23007WAT     H269264   4.604   7.059   6.292
23008WAT      O69265   9.046   0.178   6.373
23008WAT     H169266   8.952   0.212   6.370
23008WAT     H269267   9.089   0.207   6.458
23009WAT      O69268   7.294   2.142   1.629
23009WAT     H169269   7.313   2.222   1.687
23009WAT     H269270   7.381   2.098   1.604
23010WAT      O69271   3.873   2.703   8.909
23010WAT     H169272   3.968   2.732   8.897
23010WAT     H269273   3.813   2.782   8.898
23011WAT      O69274   5.235   6.169   7.895
23011WAT     H169275   5.234   6.261   7.935
23011WAT     H269276   5.166   6.163   7.823
23012WAT      O69277   1.975   6.296   5.466
23012WAT     H169278   1.924   6.310   5.550
23012WAT     H269279   1.916   6.252   5.398
23013WAT      O69280   2.111   8.620   2.067
23013WAT     H169281   2.021   8.663   2.061
23013WAT     H269282   2.103   8.523   2.042
23014WAT      O69283   6.522   0.869   4.425
23014WAT     H169284   6.457   0.859   4.501
23014WAT     H269285   6.503   0.799   4.356
23015WAT      O69286   9.277   0.248   7.116
23015WAT     H169287   9.271   0.343   7.085
23015WAT     H269288   9.354   0.239   7.180
23016WAT      O69289   3.405   5.064   2.511
23016WAT     H169290   3.453   4.980   2.486
23016WAT     H269291   3.321   5.042   2.560
23017WAT      O69292   9.524   3.267   7.446
23017WAT     H169293   9.473   3.352   7.454
23017WAT     H269294   9.489   3.214   7.369
23018WAT      O69295   7.736   6.863   8.437
23018WAT     H169296   7.692   6.936   8.489
23018WAT     H269297   7.835   6.872   8.445
23019WAT      O69298   2.156   6.005   6.748
23019WAT     H169299   2.188   6.047   6.834
23019WAT     H269300   2.100   5.925   6.769
23020WAT      O69301   0.817   9.097   2.040
23020WAT     H169302   0.915   9.082   2.041
23020WAT     H269303   0.787   9.113   1.946
23021WAT      O69304   4.517   6.180   5.849
23021WAT     H169305   4.518   6.142   5.756
23021WAT     H269306   4.425   6.170   5.888
23022WAT      O69307   7.207   0.747   2.843
23022WAT     H169308   7.189   0.737   2.941
23022WAT     H269309   7.304   0.766   2.830
23023WAT      O69310   7.031   5.507   2.847
23023WAT     H169311   6.946   5.472   2.809
23023WAT     H269312   7.085   5.549   2.775
23024WAT      O69313   6.617   2.154   2.696
23024WAT     H169314   6.543   2.089   2.676
23024WAT     H269315   6.703   2.117   2.661
23025WAT      O69316   5.583   8.139   3.857
23025WAT     H169317   5.491   8.146   3.897
23025WAT     H269318   5.590   8.054   3.805
23026WAT      O69319   6.146   9.495   0.379
23026WAT     H169320   6.080   9.491   0.303
23026WAT     H269321   6.206   9.416   0.375
23027WAT      O69322   4.274   7.829   8.134
23027WAT     H169323   4.290   7.899   8.203
23027WAT     H269324   4.354   7.821   8.076
23028WAT      O69325   9.333   6.889   1.859
23028WAT     H169326   9.381   6.968   1.897
23028WAT     H269327   9.258   6.921   1.800
23029WAT      O69328   9.025   7.923   1.485
23029WAT     H169329   9.041   7.840   1.432
23029WAT     H269330   9.093   7.931   1.558
23030WAT      O69331   9.265   5.264   1.160
23030WAT     H169332   9.190   5.320   1.123
23030WAT     H269333   9.351   5.312   1.147
23031WAT      O69334   5.712   2.556   7.373
23031WAT     H169335   5.772   2.477   7.363
23031WAT     H269336   5.757   2.624   7.431
23032WAT      O69337   9.074   0.247   4.764
23032WAT     H169338   9.119   0.284   4.845
23032WAT     H269339   9.132   0.262   4.684
23033WAT      O69340   3.499   7.253   3.916
23033WAT     H169341   3.520   7.226   3.822
23033WAT     H269342   3.575   7.306   3.953
23034WAT      O69343   8.223   5.323   3.432
23034WAT     H169344   8.249   5.289   3.341
23034WAT     H269345   8.262   5.262   3.501
23035WAT      O69346   3.084   0.262   0.074
23035WAT     H169347   3.012   0.283   0.007
23035WAT     H269348   3.105   0.344   0.127
23036WAT      O69349   8.939   2.599   2.191
23036WAT     H169350   9.013   2.607   2.125
23036WAT     H269351   8.856   2.567   2.144
23037WAT      O69352   1.536   1.486   9.268
23037WAT     H169353   1.514   1.389   9.273
23037WAT     H269354   1.597   1.511   9.344
23038WAT      O69355   7.075   2.603   6.048
23038WAT     H169356   7.044   2.597   5.953
23038WAT     H269357   7.035   2.684   6.091
23039WAT      O69358   3.951   7.934   1.033
23039WAT     H169359   4.041   7.965   1.002
23039WAT     H269360   3.959   7.844   1.075
23040WAT      O69361   6.423   1.689   9.063
23040WAT     H169362   6.515   1.665   9.096
23040WAT     H269363   6.378   1.748   9.130
23041WAT      O69364   7.091   8.007   2.074
23041WAT     H169365   7.139   7.928   2.035
23041WAT     H269366   7.111   8.089   2.019
23042WAT      O69367   6.557   1.734   2.563
23042WAT     H169368   6.469   1.774   2.536
23042WAT     H269369   6.631   1.784   2.517
23043WAT      O69370   5.843   7.474   7.512
23043WAT     H169371   5.750   7.463   7.548
23043WAT     H269372   5.852   7.564   7.470
23044WAT      O69373   3.944   1.766   4.696
23044WAT     H169374   3.847   1.755   4.676
23044WAT     H269375   3.987   1.675   4.705
23045WAT      O69376   4.201   6.358   1.247
23045WAT     H169377   4.109   6.397   1.261
23045WAT     H269378   4.267   6.410   1.301
23046WAT      O69379   1.502   0.838   1.311
23046WAT     H169380   1.444   0.760   1.286
23046WAT     H269381   1.563   0.859   1.234
23047WAT      O69382   7.391   4.949   0.138
23047WAT     H169383   7.481   4.985   0.161
23047WAT     H269384   7.370   4.871   0.197
23048WAT      O69385   8.507   2.753   8.193
23048WAT     H169386   8.586   2.750   8.131
23048WAT     H269387   8.424   2.768   8.139
23049WAT      O69388   6.330   5.092   7.555
23049WAT     H169389   6.257   5.160   7.567
23049WAT     H269390   6.298   5.019   7.494
23050WAT      O69391   3.074   4.374   0.078
23050WAT     H169392   3.092   4.471   0.098
23050WAT     H269393   2.987   4.366   0.028
23051WAT      O69394   9.256   2.956   3.860
23051WAT     H169395   9.187   2.984   3.793
23051WAT     H269396   9.211   2.906   3.934
23052WAT      O69397   5.474   8.410   2.465
23052WAT     H169398   5.500   8.336   2.527
23052WAT     H269399   5.446   8.491   2.518
23053WAT      O69400   3.068   8.666   5.927
23053WAT     H169401   3.031   8.573   5.927
23053WAT     H269402   3.007   8.726   5.979
23054WAT      O69403   3.040   7.132   9.675
23054WAT     H169404   2.965   7.072   9.702
23054WAT     H269405   3.005   7.225   9.661
23055WAT      O69406   8.818   9.733   1.431
23055WAT     H169407   8.756   9.764   1.359
23055WAT     H269408   8.911   9.765   1.411
23056WAT      O69409   8.834   2.019   5.356
23056WAT     H169410   8.740   2.012   5.390
23056WAT     H269411   8.862   2.114   5.353
23057WAT      O69412   1.046   0.120   8.595
23057WAT     H169413   1.064   0.216   8.576
23057WAT     H269414   0.969   0.113   8.659
23058WAT      O69415   7.035   1.855   8.384
23058WAT     H169416   7.027   1.874   8.481
23058WAT     H269417   7.123   1.811   8.365
23059WAT      O69418   0.520   1.094   2.952
23059WAT     H169419   0.522   1.086   3.052
23059WAT     H269420   0.490   1.007   2.913
23060WAT      O69421   3.553   5.657   9.143
23060WAT     H169422   3.629   5.722   9.139
23060WAT     H269423   3.583   5.573   9.187
23061WAT      O69424   2.490   6.454   0.729
23061WAT     H169425   2.441   6.370   0.708
23061WAT     H269426   2.567   6.432   0.789
23062WAT      O69427   6.289   2.250   5.982
23062WAT     H169428   6.255   2.271   5.891
23062WAT     H269429   6.382   2.212   5.975
23063WAT      O69430   3.876   0.898   8.547
23063WAT     H169431   3.787   0.942   8.540
23063WAT     H269432   3.948   0.967   8.534
23064WAT      O69433   1.057   6.698   3.457
23064WAT     H169434   1.085   6.607   3.429
23064WAT     H269435   1.126   6.765   3.429
23065WAT      O69436   9.865   4.908   0.136
23065WAT     H169437   9.899   4.821   0.173
23065WAT     H269438   9.790   4.941   0.193
23066WAT      O69439   8.282   6.221   5.024
23066WAT     H169440   8.348   6.294   5.007
23066WAT     H269441   8.316   6.136   4.982
23067WAT      O69442   3.202   0.201   4.573
23067WAT     H169443   3.145   0.283   4.569
23067WAT     H269444   3.145   0.120   4.568
23068WAT      O69445   5.482   0.890   4.793
23068WAT     H169446   5.386   0.873   4.770
23068WAT     H269447   5.537   0.889   4.710
23069WAT      O69448   9.575   6.824   5.417
23069WAT     H169449   9.619   6.914   5.414
23069WAT     H269450   9.635   6.760   5.466
23070WAT      O69451   1.276   0.647   0.340
23070WAT     H169452   1.246   0.597   0.422
23070WAT     H269453   1.198   0.692   0.297
23071WAT      O69454   6.754   8.936   8.683
23071WAT     H169455   6.724   8.969   8.773
23071WAT     H269456   6.736   9.007   8.615
23072WAT      O69457   1.887   4.239   1.503
23072WAT     H169458   1.954   4.263   1.432
23072WAT     H269459   1.928   4.175   1.567
23073WAT      O69460   8.145   5.288   5.997
23073WAT     H169461   8.179   5.376   6.030
23073WAT     H269462   8.086   5.247   6.067
23074WAT      O69463   4.206   9.218   1.621
23074WAT     H169464   4.167   9.252   1.707
23074WAT     H269465   4.299   9.186   1.636
23075WAT      O69466   9.688   0.613   8.981
23075WAT     H169467   9.677   0.612   9.080
23075WAT     H269468   9.738   0.695   8.953
23076WAT      O69469   6.603   8.518   4.080
23076WAT     H169470   6.695   8.521   4.041
23076WAT     H269471   6.600   8.452   4.154
23077WAT      O69472   6.894   5.807   9.518
23077WAT     H169473   6.975   5.784   9.572
23077WAT     H269474   6.893   5.906   9.501
23078WAT      O69475   0.809   7.463   8.635
23078WAT     H169476   0.754   7.388   8.673
23078WAT     H269477   0.751   7.545   8.627
23079WAT      O69478   1.508   6.871   5.417
23079WAT     H169479   1.562   6.955   5.417
23079WAT     H269480   1.568   6.792   5.408
23080WAT      O69481   0.739   9.355   9.448
23080WAT     H169482   0.773   9.301   9.372
23080WAT     H269483   0.640   9.366   9.441
23081WAT      O69484   7.619   2.209   5.820
23081WAT     H169485   7.583   2.261   5.897
23081WAT     H269486   7.719   2.204   5.826
23082WAT      O69487   1.214   5.890   0.960
23082WAT     H169488   1.252   5.851   0.877
23082WAT     H269489   1.157   5.822   1.006
23083WAT      O69490   6.923   5.599   7.042
23083WAT     H169491   6.907   5.509   7.002
23083WAT     H269492   6.887   5.601   7.135
23084WAT      O69493   5.254   6.195   7.506
23084WAT     H169494   5.155   6.199   7.514
23084WAT     H269495   5.294   6.280   7.540
23085WAT      O69496   3.166   0.561   5.297
23085WAT     H169497   3.202   0.496   5.229
23085WAT     H269498   3.119   0.511   5.370
23086WAT      O69499   8.375   0.333   7.854
23086WAT     H169500   8.360   0.384   7.770
23086WAT     H269501   8.376   0.396   7.932
23087WAT      O69502   5.519   3.061   1.371
23087WAT     H169503   5.560   3.098   1.454
23087WAT     H269504   5.448   3.122   1.338
23088WAT      O69505   6.554   5.103   0.673
23088WAT     H169506   6.654   5.116   0.672
23088WAT     H269507   6.513   5.168   0.736
23089WAT      O69508   4.937   5.100   4.239
23089WAT     H169509   4.958   5.127   4.333
23089WAT     H269510   4.959   5.176   4.177
23090WAT      O69511   7.325   3.211   4.239
23090WAT     H169512   7.354   3.126   4.194
23090WAT     H269513   7.285   3.189   4.328
23091WAT      O69514   8.512   1.360   8.636
23091WAT     H169515   8.477   1.413   8.713
23091WAT     H269516   8.443   1.293   8.608
23092WAT      O69517   4.563   5.561   3.360
23092WAT     H169518   4.660   5.582   3.354
23092WAT     H269519   4.538   5.544   3.455
23093WAT      O69520   1.042   6.797   0.573
23093WAT     H169521   1.084   6.717   0.615
23093WAT     H269522   1.106   6.874   0.576
23094WAT      O69523   0.978   7.939   7.226
23094WAT     H169524   0.987   7.840   7.230
23094WAT     H269525   0.979   7.976   7.319
23095WAT      O69526   0.430   0.386   6.573
23095WAT     H169527   0.506   0.374   6.636
23095WAT     H269528   0.408   0.298   6.529
23096WAT      O69529   8.625   6.412   1.123
23096WAT     H169530   8.682   6.433   1.202
23096WAT     H269531   8.543   6.363   1.153
23097WAT      O69532   0.855   9.171   9.275
23097WAT     H169533   0.950   9.141   9.285
23097WAT     H269534   0.835   9.186   9.179
23098WAT      O69535   9.235   2.718   7.779
23098WAT     H169536   9.311   2.775   7.748
23098WAT     H269537   9.198   2.756   7.864
23099WAT      O69538   1.277   6.944   0.627
23099WAT     H169539   1.334   6.877   0.675
23099WAT     H269540   1.226   6.999   0.693
23100WAT      O69541   1.225   0.918   4.304
23100WAT     H169542   1.152   0.855   4.331
23100WAT     H269543   1.210   0.947   4.210
23101WAT      O69544   8.198   3.237   4.257
23101WAT     H169545   8.228   3.333   4.259
23101WAT     H269546   8.237   3.188   4.335
23102WAT      O69547   8.917   7.119   7.058
23102WAT     H169548   9.008   7.084   7.077
23102WAT     H269549   8.854   7.043   7.043
23103WAT      O69550   5.369   4.682   7.863
23103WAT     H169551   5.341   4.721   7.951
23103WAT     H269552   5.371   4.583   7.870
23104WAT      O69553   9.491   6.942   1.200
23104WAT     H169554   9.400   6.949   1.241
23104WAT     H269555   9.556   6.996   1.254
23105WAT      O69556   8.808   7.334   5.573
23105WAT     H169557   8.894   7.308   5.527
23105WAT     H269558   8.791   7.271   5.649
23106WAT      O69559   9.733   7.064   9.184
23106WAT     H169560   9.703   7.150   9.143
23106WAT     H269561   9.811   7.082   9.245
23107WAT      O69562   3.105   2.210   4.572
23107WAT     H169563   3.022   2.158   4.551
23107WAT     H269564   3.129   2.198   4.668
23108WAT      O69565   1.468   5.794   2.168
23108WAT     H169566   1.416   5.794   2.082
23108WAT     H269567   1.564   5.814   2.148
23109WAT      O69568   1.103   5.926   5.267
23109WAT     H169569   1.159   5.843   5.261
23109WAT     H269570   1.032   5.924   5.197
23110WAT      O69571   6.617   8.327   5.069
23110WAT     H169572   6.570   8.397   5.122
23110WAT     H269573   6.680   8.277   5.128
23111WAT      O69574   5.025   2.654   7.841
23111WAT     H169575   4.968   2.603   7.776
23111WAT     H269576   4.988   2.643   7.933
23112WAT      O69577   8.965   1.250   9.790
23112WAT     H169578   8.885   1.273   9.735
23112WAT     H269579   9.027   1.193   9.737
23113WAT      O69580   0.695   3.439   9.240
23113WAT     H169581   0.746   3.402   9.318
23113WAT     H269582   0.603   3.398   9.238
23114WAT      O69583   4.861   1.845   3.258
23114WAT     H169584   4.887   1.751   3.234
23114WAT     H269585   4.908   1.873   3.341
23115WAT      O69586   6.029   3.610   4.340
23115WAT     H169587   6.027   3.554   4.422
23115WAT     H269588   5.937   3.642   4.319
23116WAT      O69589   5.020   8.837   4.761
23116WAT     H169590   4.979   8.852   4.671
23116WAT     H269591   5.001   8.742   4.789
23117WAT      O69592   1.866   5.395   4.661
23117WAT     H169593   1.777   5.356   4.636
23117WAT     H269594   1.937   5.326   4.648
23118WAT      O69595   5.201   6.760   7.411
23118WAT     H169596   5.288   6.728   7.371
23118WAT     H269597   5.160   6.686   7.465
23119WAT      O69598   6.365   8.539   9.736
23119WAT     H169599   6.383   8.526   9.639
23119WAT     H269600   6.412   8.622   9.768
23120WAT      O69601   1.835   0.681   8.568
23120WAT     H169602   1.801   0.737   8.493
23120WAT     H269603   1.785   0.594   8.571
23121WAT      O69604   4.237   1.100   2.500
23121WAT     H169605   4.303   1.025   2.499
23121WAT     H269606   4.194   1.108   2.410
23122WAT      O69607   8.426   7.394   2.981
23122WAT     H169608   8.353   7.433   2.925
23122WAT     H269609   8.506   7.453   2.976
23123WAT      O69610   9.243   2.211   2.222
23123WAT     H169611   9.220   2.249   2.133
23123WAT     H269612   9.237   2.283   2.291
23124WAT      O69613   3.548   8.870   8.296
23124WAT     H169614   3.586   8.961   8.278
23124WAT     H269615   3.454   8.879   8.330
23125WAT      O69616   0.753   2.753   6.104
23125WAT     H169617   0.755   2.660   6.068
23125WAT     H269618   0.683   2.806   6.056
23126WAT      O69619   2.650   6.398   0.941
23126WAT     H169620   2.732   6.399   0.884
23126WAT     H269621   2.673   6.363   1.032
23127WAT      O69622   5.985   8.527   3.715
23127WAT     H169623   5.955   8.507   3.621
23127WAT     H269624   5.997   8.626   3.725
23128WAT      O69625   8.563   1.443   3.983
23128WAT     H169626   8.569   1.522   3.921
23128WAT     H269627   8.582   1.473   4.077
23129WAT      O69628   7.299   5.026   3.126
23129WAT     H169629   7.205   5.057   3.142
23129WAT     H269630   7.361   5.083   3.179
23130WAT      O69631   7.749   9.799   9.727
23130WAT     H169632   7.775   9.730   9.660
23130WAT     H269633   7.737   9.887   9.682
23131WAT      O69634   4.976   5.960   1.068
23131WAT     H169635   5.028   6.039   1.035
23131WAT     H269636   5.022   5.876   1.040
23132WAT      O69637   2.906   2.140   9.227
23132WAT     H169638   2.858   2.194   9.296
23132WAT     H269639   2.987   2.190   9.196
23133WAT      O69640   6.315   1.469   3.540
23133WAT     H169641   6.387   1.419   3.491
23133WAT     H269642   6.342   1.565   3.548
23134WAT      O69643   0.580   4.890   5.168
23134WAT     H169644   0.625   4.843   5.243
23134WAT     H269645   0.509   4.832   5.129
23135WAT      O69646   0.255   0.978   5.312
23135WAT     H169647   0.301   0.984   5.224
23135WAT     H269648   0.162   0.942   5.298
23136WAT      O69649   1.405   5.543   2.237
23136WAT     H169650   1.404   5.641   2.216
23136WAT     H269651   1.313   5.514   2.264
23137WAT      O69652   1.502   7.084   7.310
23137WAT     H169653   1.460   7.132   7.387
23137WAT     H269654   1.553   7.149   7.254
23138WAT      O69655   6.595   9.024   5.926
23138WAT     H169656   6.511   9.065   5.960
23138WAT     H269657   6.596   8.926   5.947
23139WAT      O69658   8.787   1.008   2.594
23139WAT     H169659   8.755   1.102   2.605
23139WAT     H269660   8.872   1.008   2.540
23140WAT      O69661   3.347   0.541   8.844
23140WAT     H169662   3.428   0.588   8.808
23140WAT     H269663   3.274   0.542   8.776
23141WAT      O69664   7.541   3.744   7.591
23141WAT     H169665   7.478   3.670   7.617
23141WAT     H269666   7.632   3.706   7.574
23142WAT      O69667   3.240   6.259   6.480
23142WAT     H169668   3.335   6.247   6.509
23142WAT     H269669   3.233   6.250   6.381
23143WAT      O69670   7.238   0.963   8.230
23143WAT     H169671   7.288   1.047   8.213
23143WAT     H269672   7.200   0.965   8.323
23144WAT      O69673   2.701   7.541   1.124
23144WAT     H169674   2.767   7.490   1.179
23144WAT     H269675   2.691   7.634   1.160
23145WAT      O69676   4.479   0.411   0.363
23145WAT     H169677   4.560   0.461   0.332
23145WAT     H269678   4.506   0.320   0.395
23146WAT      O69679   3.888   0.141   6.230
23146WAT     H169680   3.919   0.047   6.222
23146WAT     H269681   3.857   0.159   6.323
23147WAT      O69682   7.076   3.991   6.973
23147WAT     H169683   7.034   4.058   6.912
23147WAT     H269684   7.170   3.974   6.943
23148WAT      O69685   3.854   5.149   4.022
23148WAT     H169686   3.877   5.245   4.039
23148WAT     H269687   3.925   5.108   3.965
23149WAT      O69688   2.106   8.113   0.968
23149WAT     H169689   2.153   8.036   0.926
23149WAT     H269690   2.101   8.099   1.067
23150WAT      O69691   5.920   7.211   2.165
23150WAT     H169692   5.820   7.202   2.170
23150WAT     H269693   5.957   7.140   2.105
23151WAT      O69694   0.123   4.431   9.628
23151WAT     H169695   0.158   4.496   9.697
23151WAT     H269696   0.023   4.439   9.624
23152WAT      O69697   6.768   5.081   1.343
23152WAT     H169698   6.707   5.040   1.275
23152WAT     H269699   6.740   5.052   1.434
23153WAT      O69700   8.971   1.664   6.412
23153WAT     H169701   8.924   1.751   6.399
23153WAT     H269702   8.988   1.649   6.509
23154WAT      O69703   2.014   3.441   3.851
23154WAT     H169704   1.950   3.479   3.784
23154WAT     H269705   2.037   3.347   3.826
23155WAT      O69706   8.822   9.583   2.063
23155WAT     H169707   8.850   9.666   2.110
23155WAT     H269708   8.755   9.534   2.120
23156WAT      O69709   9.313   7.087   0.844
23156WAT     H169710   9.236   7.122   0.897
23156WAT     H269711   9.298   6.990   0.825
23157WAT      O69712   1.361   7.802   9.447
23157WAT     H169713   1.300   7.789   9.369
23157WAT     H269714   1.330   7.746   9.524
23158WAT      O69715   6.381   0.253   2.957
23158WAT     H169716   6.456   0.192   2.932
23158WAT     H269717   6.382   0.268   3.056
23159WAT      O69718   0.984   1.259   8.962
23159WAT     H169719   0.901   1.308   8.934
23159WAT     H269720   1.023   1.211   8.883
23160WAT      O69721   4.214   2.826   5.617
23160WAT     H169722   4.248   2.888   5.688
23160WAT     H269723   4.116   2.842   5.603
23161WAT      O69724   5.376   1.961   7.647
23161WAT     H169725   5.281   1.931   7.643
23161WAT     H269726   5.427   1.901   7.709
23162WAT      O69727   6.769   4.800   7.098
23162WAT     H169728   6.837   4.869   7.077
23162WAT     H269729   6.684   4.820   7.049
23163WAT      O69730   3.553   9.775   9.019
23163WAT     H169731   3.576   9.848   9.083
23163WAT     H269732   3.611   9.782   8.938
23164WAT      O69733   8.200   6.540   8.938
23164WAT     H169734   8.176   6.537   8.841
23164WAT     H269735   8.154   6.466   8.986
23165WAT      O69736   5.031   8.388   0.620
23165WAT     H169737   4.949   8.331   0.628
23165WAT     H269738   5.051   8.430   0.709
23166WAT      O69739   4.819   0.832   8.114
23166WAT     H169740   4.787   0.867   8.025
23166WAT     H269741   4.810   0.733   8.116
23167WAT      O69742   7.250   9.451   3.473
23167WAT     H169743   7.203   9.385   3.416
23167WAT     H269744   7.307   9.403   3.540
23168WAT      O69745   6.341   9.691   4.120
23168WAT     H169746   6.367   9.669   4.215
23168WAT     H269747   6.242   9.692   4.112
23169WAT      O69748   6.536   6.258   9.390
23169WAT     H169749   6.541   6.178   9.329
23169WAT     H269750   6.619   6.263   9.445
23170WAT      O69751   4.156   7.945   3.447
23170WAT     H169752   4.125   8.012   3.379
23170WAT     H269753   4.078   7.907   3.496
23171WAT      O69754   0.928   8.668   1.560
23171WAT     H169755   1.019   8.709   1.575
23171WAT     H269756   0.889   8.705   1.475
23172WAT      O69757   1.561   9.489   6.863
23172WAT     H169758   1.622   9.545   6.806
23172WAT     H269759   1.558   9.526   6.956
23173WAT      O69760   6.019   9.755   6.579
23173WAT     H169761   5.989   9.680   6.521
23173WAT     H269762   6.110   9.736   6.616
23174WAT      O69763   1.021   9.185   4.982
23174WAT     H169764   1.116   9.157   4.968
23174WAT     H269765   0.989   9.233   4.900
23175WAT      O69766   3.063   4.426   6.991
23175WAT     H169767   3.081   4.341   6.942
23175WAT     H269768   2.964   4.439   7.000
23176WAT      O69769   2.244   7.697   9.656
23176WAT     H169770   2.198   7.742   9.733
23176WAT     H269771   2.259   7.601   9.679
23177WAT      O69772   9.798   7.471   8.095
23177WAT     H169773   9.730   7.463   8.168
23177WAT     H269774   9.795   7.563   8.056
23178WAT      O69775   4.992   9.650   8.767
23178WAT     H169776   4.950   9.563   8.792
23178WAT     H269777   5.025   9.645   8.673
23179WAT      O69778   5.417   9.084   6.143
23179WAT     H169779   5.402   9.127   6.054
23179WAT     H269780   5.514   9.059   6.151
23180WAT      O69781   5.867   5.644   3.822
23180WAT     H169782   5.794   5.713   3.820
23180WAT     H269783   5.861   5.587   3.740
23181WAT      O69784   3.482   0.655   6.076
23181WAT     H169785   3.534   0.696   6.151
23181WAT     H269786   3.513   0.561   6.062
23182WAT      O69787   3.735   5.813   0.549
23182WAT     H169788   3.790   5.854   0.476
23182WAT     H269789   3.693   5.728   0.516
23183WAT      O69790   7.142   0.617   6.255
23183WAT     H169791   7.147   0.543   6.323
23183WAT     H269792   7.068   0.680   6.279
23184WAT      O69793   4.213   6.860   1.463
23184WAT     H169794   4.253   6.805   1.536
23184WAT     H269795   4.117   6.879   1.484
23185WAT      O69796   7.136   2.787   1.305
23185WAT     H169797   7.098   2.747   1.222
23185WAT     H269798   7.122   2.886   1.304
23186WAT      O69799   5.504   7.582   1.979
23186WAT     H169800   5.570   7.612   1.910
23186WAT     H269801   5.413   7.615   1.954
23187WAT      O69802   7.308   0.033   4.025
23187WAT     H169803   7.318  -0.002   4.118
23187WAT     H269804   7.308   0.133   4.026
23188WAT      O69805   1.584   5.442   5.940
23188WAT     H169806   1.566   5.344   5.950
23188WAT     H269807   1.679   5.461   5.963
23189WAT      O69808   3.976   9.242   8.733
23189WAT     H169809   3.972   9.177   8.809
23189WAT     H269810   3.946   9.197   8.649
23190WAT      O69811   5.896   4.973   3.687
23190WAT     H169812   5.971   4.912   3.710
23190WAT     H269813   5.927   5.068   3.690
23191WAT      O69814   0.199   8.267   7.373
23191WAT     H169815   0.151   8.217   7.445
23191WAT     H269816   0.136   8.285   7.297
23192WAT      O69817   5.146   1.076   7.623
23192WAT     H169818   5.077   1.145   7.643
23192WAT     H269819   5.235   1.120   7.609
23193WAT      O69820   3.825   8.665   9.860
23193WAT     H169821   3.827   8.667   9.960
23193WAT     H269822   3.745   8.614   9.829
23194WAT      O69823   3.614   3.944   3.666
23194WAT     H169824   3.709   3.913   3.675
23194WAT     H269825   3.585   3.933   3.571
23195WAT      O69826   0.268   6.821   8.510
23195WAT     H169827   0.306   6.850   8.422
23195WAT     H269828   0.225   6.732   8.500
23196WAT      O69829   5.505   7.874   7.435
23196WAT     H169830   5.585   7.899   7.489
23196WAT     H269831   5.469   7.956   7.390
23197WAT      O69832   6.332   9.473   8.261
23197WAT     H169833   6.265   9.420   8.209
23197WAT     H269834   6.423   9.462   8.221
23198WAT      O69835   3.943   9.360   6.302
23198WAT     H169836   4.009   9.374   6.376
23198WAT     H269837   3.965   9.274   6.255
23199WAT      O69838   1.398   1.444   6.864
23199WAT     H169839   1.447   1.493   6.936
23199WAT     H269840   1.331   1.505   6.822
23200WAT      O69841   3.045   3.418   6.861
23200WAT     H169842   2.990   3.397   6.780
23200WAT     H269843   2.989   3.466   6.928
23201WAT      O69844   4.605   6.023   7.286
23201WAT     H169845   4.600   6.123   7.284
23201WAT     H269846   4.626   5.993   7.380
23202WAT      O69847   3.537   3.013   2.139
23202WAT     H169848   3.496   3.048   2.223
23202WAT     H269849   3.620   2.961   2.161
23203WAT      O69850   0.015   4.791   1.748
23203WAT     H169851  -0.055   4.796   1.677
23203WAT     H269852   0.070   4.709   1.735
23204WAT      O69853   3.434   1.002   8.491
23204WAT     H169854   3.370   1.025   8.418
23204WAT     H269855   3.456   0.905   8.487
23205WAT      O69856   9.347   4.003   7.271
23205WAT     H169857   9.431   3.971   7.228
23205WAT     H269858   9.319   3.938   7.341
23206WAT      O69859   5.585   7.681   5.558
23206WAT     H169860   5.600   7.743   5.481
23206WAT     H269861   5.674   7.650   5.594
23207WAT      O69862   0.808   0.463   4.331
23207WAT     H169863   0.908   0.464   4.343
23207WAT     H269864   0.785   0.426   4.241
23208WAT      O69865   6.597   5.062   5.523
23208WAT     H169866   6.583   5.149   5.477
23208WAT     H269867   6.627   5.078   5.618
23209WAT      O69868   2.867   7.923   7.620
23209WAT     H169869   2.864   7.995   7.550
23209WAT     H269870   2.954   7.927   7.668
23210WAT      O69871   0.778   1.791   8.725
23210WAT     H169872   0.718   1.813   8.648
23210WAT     H269873   0.822   1.702   8.707
23211WAT      O69874   5.328   2.820   2.916
23211WAT     H169875   5.292   2.727   2.913
23211WAT     H269876   5.272   2.876   2.977
23212WAT      O69877   5.160   3.824   1.692
23212WAT     H169878   5.103   3.747   1.720
23212WAT     H269879   5.255   3.793   1.681
23213WAT      O69880   2.942   6.426   8.806
23213WAT     H169881   2.974   6.514   8.839
23213WAT     H269882   2.869   6.392   8.866
23214WAT      O69883   6.862   7.907   0.997
23214WAT     H169884   6.844   7.827   0.940
23214WAT     H269885   6.959   7.933   0.988
23215WAT      O69886   9.599   7.619   2.019
23215WAT     H169887   9.603   7.541   1.958
23215WAT     H269888   9.558   7.697   1.971
23216WAT      O69889   3.300   0.105   4.805
23216WAT     H169890   3.273   0.148   4.719
23216WAT     H269891   3.352   0.022   4.786
23217WAT      O69892   4.804   0.842   5.295
23217WAT     H169893   4.804   0.856   5.196
23217WAT     H269894   4.895   0.812   5.324
23218WAT      O69895   3.519   4.103   1.917
23218WAT     H169896   3.613   4.136   1.922
23218WAT     H269897   3.508   4.025   1.978
23219WAT      O69898   2.947   6.233   7.335
23219WAT     H169899   2.876   6.206   7.269
23219WAT     H269900   3.002   6.307   7.295
23220WAT      O69901   1.991   6.447   6.751
23220WAT     H169902   2.087   6.472   6.737
23220WAT     H269903   1.964   6.380   6.682
23221WAT      O69904   8.640   4.842   9.153
23221WAT     H169905   8.691   4.756   9.154
23221WAT     H269906   8.609   4.863   9.246
23222WAT      O69907   9.015   0.014   5.717
23222WAT     H169908   9.061   0.067   5.645
23222WAT     H269909   8.919   0.039   5.720
23223WAT      O69910   6.784   9.201   0.147
23223WAT     H169911   6.734   9.260   0.209
23223WAT     H269912   6.767   9.229   0.052
23224WAT      O69913   4.955   2.135   2.592
23224WAT     H169914   4.930   2.168   2.501
23224WAT     H269915   5.049   2.163   2.613
23225WAT      O69916   5.823   5.770   6.656
23225WAT     H169917   5.867   5.796   6.570
23225WAT     H269918   5.766   5.845   6.689
23226WAT      O69919   3.439   7.384   5.458
23226WAT     H169920   3.539   7.393   5.464
23226WAT     H269921   3.399   7.473   5.439
23227WAT      O69922   9.857   6.421   9.483
23227WAT     H169923   9.938   6.451   9.534
23227WAT     H269924   9.858   6.462   9.392
23228WAT      O69925   3.032   5.758   3.005
23228WAT     H169926   3.007   5.854   3.015
23228WAT     H269927   2.987   5.703   3.075
23229WAT      O69928   5.549   5.848   7.952
23229WAT     H169929   5.580   5.906   8.027
23229WAT     H269930   5.450   5.836   7.958
23230WAT      O69931   1.286   3.359   2.015
23230WAT     H169932   1.350   3.303   1.962
23230WAT     H269933   1.206   3.304   2.040
23231WAT      O69934   7.970   5.754   6.438
23231WAT     H169935   7.983   5.780   6.534
23231WAT     H269936   7.989   5.656   6.427
23232WAT      O69937   0.652   2.198   5.578
23232WAT     H169938   0.586   2.126   5.601
23232WAT     H269939   0.603   2.283   5.559
23233WAT      O69940   4.888   2.044   7.332
23233WAT     H169941   4.986   2.046   7.309
23233WAT     H269942   4.836   2.085   7.257
23234WAT      O69943   6.614   6.098   2.950
23234WAT     H169944   6.690   6.032   2.948
23234WAT     H269945   6.571   6.101   2.861
23235WAT      O69946   3.411   3.870   5.712
23235WAT     H169947   3.495   3.826   5.680
23235WAT     H269948   3.331   3.824   5.673
23236WAT      O69949   5.436   4.051   8.681
23236WAT     H169950   5.533   4.055   8.705
23236WAT     H269951   5.421   3.976   8.615
23237WAT      O69952   0.449   7.374   7.153
23237WAT     H169953   0.419   7.446   7.216
23237WAT     H269954   0.436   7.285   7.195
23238WAT      O69955   8.044   4.184   0.561
23238WAT     H169956   8.135   4.150   0.583
23238WAT     H269957   7.977   4.145   0.625
23239WAT      O69958   6.608   5.843   9.639
23239WAT     H169959   6.705   5.842   9.616
23239WAT     H269960   6.554   5.838   9.555
23240WAT      O69961   0.106   2.428   9.489
23240WAT     H169962   0.063   2.412   9.578
23240WAT     H269963   0.111   2.526   9.471
23241WAT      O69964   7.828   5.653   3.646
23241WAT     H169965   7.906   5.693   3.694
23241WAT     H269966   7.743   5.688   3.685
23242WAT      O69967   2.582   8.788   1.689
23242WAT     H169968   2.600   8.759   1.783
23242WAT     H269969   2.637   8.869   1.668
23243WAT      O69970   1.888   6.319   6.978
23243WAT     H169971   1.927   6.371   6.902
23243WAT     H269972   1.857   6.230   6.945
23244WAT      O69973   0.006   1.808   9.800
23244WAT     H169974  -0.032   1.821   9.708
23244WAT     H269975   0.052   1.891   9.829
23245WAT      O69976   6.119   8.365   1.616
23245WAT     H169977   6.198   8.353   1.676
23245WAT     H269978   6.048   8.415   1.665
23246WAT      O69979   2.774   2.334   9.415
23246WAT     H169980   2.852   2.345   9.477
23246WAT     H269981   2.689   2.331   9.468
23247WAT      O69982   8.512   1.885   1.668
23247WAT     H169983   8.466   1.907   1.582
23247WAT     H269984   8.467   1.807   1.712
23248WAT      O69985   6.389   8.114   6.954
23248WAT     H169986   6.436   8.195   6.920
23248WAT     H269987   6.453   8.060   7.009
23249WAT      O69988   9.522   0.538   3.426
23249WAT     H169989   9.509   0.507   3.520
23249WAT     H269990   9.539   0.637   3.426
23250WAT      O69991   9.669   4.764   1.561
23250WAT     H169992   9.690   4.700   1.487
23250WAT     H269993   9.572   4.757   1.584
23251WAT      O69994   3.269   6.310   4.740
23251WAT     H169995   3.259   6.283   4.645
23251WAT     H269996   3.191   6.277   4.793
23252WAT      O69997   6.143   3.057   5.609
23252WAT     H169998   6.082   3.065   5.530
23252WAT     H269999   6.161   2.961   5.627
23253WAT      O70000   2.419   6.560   7.546
23253WAT     H170001   2.341   6.511   7.586
23253WAT     H270002   2.496   6.497   7.534
23254WAT      O70003   4.867   1.519   4.287
23254WAT     H170004   4.795   1.455   4.259
23254WAT     H270005   4.938   1.469   4.336
23255WAT      O70006   2.140   0.442   5.488
23255WAT     H170007   2.152   0.358   5.540
23255WAT     H270008   2.101   0.421   5.398
23256WAT      O70009   5.315   2.773   0.084
23256WAT     H170010   5.274   2.817   0.163
23256WAT     H270011   5.358   2.842   0.025
23257WAT      O70012   7.634   0.468   5.706
23257WAT     H170013   7.722   0.506   5.733
23257WAT     H270014   7.561   0.532   5.728
23258WAT      O70015   6.412   2.158   4.055
23258WAT     H170016   6.420   2.095   4.133
23258WAT     H270017   6.458   2.118   3.976
23259WAT      O70018   2.796   2.423   8.572
23259WAT     H170019   2.875   2.384   8.523
23259WAT     H270020   2.765   2.505   8.524
23260WAT      O70021   4.941   4.716   8.348
23260WAT     H170022   4.893   4.689   8.265
23260WAT     H270023   4.875   4.741   8.419
23261WAT      O70024   2.747   6.572   7.102
23261WAT     H170025   2.674   6.638   7.124
23261WAT     H270026   2.828   6.621   7.070
23262WAT      O70027   2.434   5.780   1.850
23262WAT     H170028   2.358   5.720   1.874
23262WAT     H270029   2.450   5.845   1.925
23263WAT      O70030   9.407   8.468   8.062
23263WAT     H170031   9.432   8.371   8.064
23263WAT     H270032   9.375   8.493   7.971
23264WAT      O70033   8.680   8.109   4.499
23264WAT     H170034   8.652   8.148   4.412
23264WAT     H270035   8.600   8.105   4.560
23265WAT      O70036   5.097   4.570   3.285
23265WAT     H170037   5.141   4.578   3.196
23265WAT     H270038   5.166   4.546   3.354
23266WAT      O70039   0.480   9.404   9.463
23266WAT     H170040   0.435   9.348   9.532
23266WAT     H270041   0.440   9.496   9.464
23267WAT      O70042   2.376   6.927   2.049
23267WAT     H170043   2.322   7.009   2.030
23267WAT     H270044   2.450   6.920   1.983
23268WAT      O70045   4.703   6.205   3.576
23268WAT     H170046   4.640   6.191   3.500
23268WAT     H270047   4.739   6.117   3.606
23269WAT      O70048   7.121   3.359   2.998
23269WAT     H170049   7.121   3.269   2.955
23269WAT     H270050   7.102   3.350   3.096
23270WAT      O70051   2.430   2.893   3.747
23270WAT     H170052   2.364   2.923   3.678
23270WAT     H270053   2.417   2.796   3.765
23271WAT      O70054   5.317   7.598   5.605
23271WAT     H170055   5.270   7.611   5.692
23271WAT     H270056   5.413   7.622   5.615
23272WAT      O70057   4.062   1.576   0.057
23272WAT     H170058   4.099   1.577  -0.036
23272WAT     H270059   3.971   1.535   0.056
23273WAT      O70060   5.489   7.822   8.089
23273WAT     H170061   5.481   7.801   7.992
23273WAT     H270062   5.586   7.824   8.114
23274WAT      O70063   4.367   6.194   2.942
23274WAT     H170064   4.410   6.133   2.876
23274WAT     H270065   4.374   6.289   2.911
23275WAT      O70066   8.928   9.616   3.278
23275WAT     H170067   8.913   9.652   3.370
23275WAT     H270068   8.924   9.516   3.281
23276WAT      O70069   8.546   5.162   2.860
23276WAT     H170070   8.545   5.184   2.958
23276WAT     H270071   8.625   5.206   2.817
23277WAT      O70072   2.315   5.078   9.695
23277WAT     H170073   2.223   5.095   9.729
23277WAT     H270074   2.376   5.152   9.724
23278WAT      O70075   6.052   3.185   1.852
23278WAT     H170076   6.082   3.118   1.920
23278WAT     H270077   5.960   3.161   1.821
23279WAT      O70078   0.387   5.652   7.543
23279WAT     H170079   0.450   5.719   7.580
23279WAT     H270080   0.335   5.692   7.468
23280WAT      O70081   8.491   5.858   2.618
23280WAT     H170082   8.426   5.802   2.566
23280WAT     H270083   8.463   5.861   2.714
23281WAT      O70084   3.060   6.057   4.184
23281WAT     H170085   2.974   6.036   4.231
23281WAT     H270086   3.090   6.149   4.210
23282WAT      O70087   9.425   4.976   7.868
23282WAT     H170088   9.399   4.890   7.825
23282WAT     H270089   9.370   4.991   7.950
23283WAT      O70090   5.789   8.425   1.031
23283WAT     H170091   5.818   8.372   1.111
23283WAT     H270092   5.850   8.406   0.954
23284WAT      O70093   4.005   0.091   9.526
23284WAT     H170094   3.986   0.016   9.463
23284WAT     H270095   4.030   0.054   9.616
23285WAT      O70096   7.719   3.099   4.069
23285WAT     H170097   7.796   3.134   4.122
23285WAT     H270098   7.658   3.175   4.045
23286WAT      O70099   0.421   2.287   8.866
23286WAT     H170100   0.446   2.351   8.939
23286WAT     H270101   0.496   2.222   8.851
23287WAT      O70102   5.035   7.137   5.356
23287WAT     H170103   5.035   7.197   5.436
23287WAT     H270104   5.117   7.079   5.358
23288WAT      O70105   3.742   3.158   2.541
23288WAT     H170106   3.741   3.058   2.548
23288WAT     H270107   3.742   3.185   2.444
23289WAT      O70108   4.570   3.788   5.077
23289WAT     H170109   4.622   3.711   5.042
23289WAT     H270110   4.533   3.841   5.001
23290WAT      O70111   0.182   4.185   0.715
23290WAT     H170112   0.278   4.169   0.739
23290WAT     H270113   0.177   4.245   0.635
23291WAT      O70114   1.195   6.738   8.752
23291WAT     H170115   1.130   6.719   8.678
23291WAT     H270116   1.176   6.678   8.829
23292WAT      O70117   9.811   1.717   3.349
23292WAT     H170118   9.874   1.720   3.271
23292WAT     H270119   9.757   1.633   3.345
23293WAT      O70120   3.767   8.464   2.880
23293WAT     H170121   3.826   8.436   2.956
23293WAT     H270122   3.714   8.544   2.906
23294WAT      O70123   6.834   6.361   0.547
23294WAT     H170124   6.918   6.340   0.596
23294WAT     H270125   6.847   6.344   0.449
23295WAT      O70126   1.682   8.552   3.570
23295WAT     H170127   1.770   8.557   3.617
23295WAT     H270128   1.612   8.518   3.632
23296WAT      O70129   1.891   4.988   4.761
23296WAT     H170130   1.945   5.044   4.698
23296WAT     H270131   1.807   5.037   4.785
23297WAT      O70132   0.742   2.470   8.892
23297WAT     H170133   0.825   2.460   8.837
23297WAT     H270134   0.694   2.553   8.865
23298WAT      O70135   2.802   7.854   3.099
23298WAT     H170136   2.902   7.856   3.090
23298WAT     H270137   2.761   7.872   3.010
23299WAT      O70138   2.060   6.699   6.962
23299WAT     H170139   1.981   6.676   6.905
23299WAT     H270140   2.127   6.625   6.957
23300WAT      O70141   3.601   6.562   7.995
23300WAT     H170142   3.532   6.634   8.000
23300WAT     H270143   3.559   6.473   8.015
23301WAT      O70144   2.374   3.178   0.787
23301WAT     H170145   2.425   3.177   0.873
23301WAT     H270146   2.438   3.180   0.711
23302WAT      O70147   1.521   7.872   6.666
23302WAT     H170148   1.536   7.810   6.589
23302WAT     H270149   1.561   7.961   6.646
23303WAT      O70150   3.008   5.228   9.487
23303WAT     H170151   3.033   5.139   9.526
23303WAT     H270152   3.021   5.299   9.557
23304WAT      O70153   5.197   2.115   6.161
23304WAT     H170154   5.226   2.132   6.255
23304WAT     H270155   5.244   2.035   6.125
23305WAT      O70156   5.862   6.549   4.337
23305WAT     H170157   5.887   6.523   4.244
23305WAT     H270158   5.786   6.614   4.335
23306WAT      O70159   0.601   7.726   1.921
23306WAT     H170160   0.672   7.781   1.876
23306WAT     H270161   0.581   7.645   1.865
23307WAT      O70162   6.264   3.659   0.780
23307WAT     H170163   6.347   3.678   0.832
23307WAT     H270164   6.187   3.709   0.820
23308WAT      O70165   5.884   8.917   2.124
23308WAT     H170166   5.875   8.881   2.217
23308WAT     H270167   5.936   8.853   2.068
23309WAT      O70168   0.366   8.820   2.698
23309WAT     H170169   0.283   8.867   2.669
23309WAT     H270170   0.355   8.721   2.683
23310WAT      O70171   3.172   8.234   9.042
23310WAT     H170172   3.254   8.221   8.986
23310WAT     H270173   3.115   8.306   9.002
23311WAT      O70174   1.259   3.625   7.062
23311WAT     H170175   1.210   3.539   7.049
23311WAT     H270176   1.202   3.688   7.115
23312WAT      O70177   2.801   2.805   6.117
23312WAT     H170178   2.860   2.725   6.111
23312WAT     H270179   2.753   2.804   6.205
23313WAT      O70180   6.344   0.251   2.065
23313WAT     H170181   6.371   0.158   2.088
23313WAT     H270182   6.272   0.281   2.128
23314WAT      O70183   0.407   1.997   4.490
23314WAT     H170184   0.469   2.042   4.554
23314WAT     H270185   0.342   2.064   4.454
23315WAT      O70186   8.170   9.561   3.353
23315WAT     H170187   8.264   9.577   3.385
23315WAT     H270188   8.145   9.633   3.288
23316WAT      O70189   8.751   7.276   7.167
23316WAT     H170190   8.825   7.213   7.143
23316WAT     H270191   8.713   7.316   7.084
23317WAT      O70192   2.779   6.876   4.088
23317WAT     H170193   2.796   6.834   3.999
23317WAT     H270194   2.864   6.912   4.125
23318WAT      O70195   0.675   7.471   0.661
23318WAT     H170196   0.636   7.478   0.569
23318WAT     H270197   0.672   7.560   0.706
23319WAT      O70198   6.539   3.682   4.013
23319WAT     H170199   6.602   3.733   3.954
23319WAT     H270200   6.455   3.661   3.963
23320WAT      O70201   4.310   6.317   6.395
23320WAT     H170202   4.306   6.272   6.305
23320WAT     H270203   4.252   6.399   6.394
23321WAT      O70204   0.552   5.035   3.138
23321WAT     H170205   0.538   5.134   3.142
23321WAT     H270206   0.550   5.005   3.043
23322WAT      O70207   4.252   3.577   2.365
23322WAT     H170208   4.217   3.639   2.435
23322WAT     H270209   4.177   3.524   2.326
23323WAT      O70210   6.667   7.446   4.463
23323WAT     H170211   6.599   7.518   4.481
23323WAT     H270212   6.688   7.399   4.548
23324WAT      O70213   2.951   4.336   4.584
23324WAT     H170214   3.033   4.391   4.569
23324WAT     H270215   2.873   4.397   4.603
23325WAT      O70216   4.515   3.672   7.557
23325WAT     H170217   4.460   3.621   7.622
23325WAT     H270218   4.611   3.645   7.566
23326WAT      O70219   5.275   7.291   8.046
23326WAT     H170220   5.240   7.198   8.051
23326WAT     H270221   5.369   7.293   8.079
23327WAT      O70222   9.696   7.716   3.203
23327WAT     H170223   9.688   7.628   3.249
23327WAT     H270224   9.789   7.727   3.167
23328WAT      O70225   2.731   5.595   0.159
23328WAT     H170226   2.687   5.505   0.158
23328WAT     H270227   2.677   5.658   0.103
23329WAT      O70228   1.854   3.874   0.739
23329WAT     H170229   1.824   3.779   0.745
23329WAT     H270230   1.779   3.934   0.765
23330WAT      O70231   9.099   8.338   3.003
23330WAT     H170232   9.035   8.312   3.075
23330WAT     H270233   9.157   8.260   2.979
23331WAT      O70234   4.562   5.801   4.200
23331WAT     H170235   4.588   5.885   4.153
23331WAT     H270236   4.566   5.724   4.136
23332WAT      O70237   7.019   3.506   8.446
23332WAT     H170238   6.953   3.445   8.401
23332WAT     H270239   6.994   3.601   8.427
23333WAT      O70240   3.234   0.873   4.871
23333WAT     H170241   3.294   0.885   4.791
23333WAT     H270242   3.258   0.787   4.917
23334WAT      O70243   5.787   5.551   5.935
23334WAT     H170244   5.706   5.588   5.889
23334WAT     H270245   5.848   5.509   5.868
23335WAT      O70246   2.818   7.231   0.923
23335WAT     H170247   2.718   7.244   0.923
23335WAT     H270248   2.838   7.134   0.938
23336WAT      O70249   3.825   3.124   3.689
23336WAT     H170250   3.913   3.077   3.697
23336WAT     H270251   3.826   3.182   3.607
23337WAT      O70252   2.452   4.611   5.721
23337WAT     H170253   2.434   4.529   5.667
23337WAT     H270254   2.480   4.585   5.813
23338WAT      O70255   7.078   9.416   6.596
23338WAT     H170256   7.147   9.467   6.545
23338WAT     H270257   6.996   9.404   6.539
23339WAT      O70258   3.740   4.194   0.447
23339WAT     H170259   3.675   4.125   0.418
23339WAT     H270260   3.690   4.274   0.481
23340WAT      O70261   4.294   0.781   1.355
23340WAT     H170262   4.258   0.697   1.397
23340WAT     H270263   4.294   0.770   1.255
23341WAT      O70264   1.182   6.732   8.026
23341WAT     H170265   1.118   6.802   8.056
23341WAT     H270266   1.225   6.689   8.105
23342WAT      O70267   7.822   6.389   9.172
23342WAT     H170268   7.738   6.424   9.130
23342WAT     H270269   7.800   6.310   9.228
23343WAT      O70270   8.657   2.374   5.775
23343WAT     H170271   8.581   2.375   5.840
23343WAT     H270272   8.681   2.468   5.751
23344WAT      O70273   0.244   3.320   3.386
23344WAT     H170274   0.290   3.408   3.395
23344WAT     H270275   0.262   3.282   3.295
23345WAT      O70276   1.369   3.982   7.554
23345WAT     H170277   1.427   3.902   7.540
23345WAT     H270278   1.379   4.015   7.648
23346WAT      O70279   5.674   8.548   7.087
23346WAT     H170280   5.665   8.580   6.993
23346WAT     H270281   5.767   8.563   7.119
23347WAT      O70282   7.819   8.356   5.911
23347WAT     H170283   7.850   8.275   5.962
23347WAT     H270284   7.743   8.399   5.960
23348WAT      O70285   4.824   6.135   5.850
23348WAT     H170286   4.742   6.172   5.894
23348WAT     H270287   4.905   6.184   5.883
23349WAT      O70288   3.473   6.879   0.566
23349WAT     H170289   3.391   6.821   0.563
23349WAT     H270290   3.547   6.829   0.612
23350WAT      O70291   4.737   5.685   7.591
23350WAT     H170292   4.683   5.740   7.655
23350WAT     H270293   4.828   5.670   7.630
23351WAT      O70294   3.149   5.431   2.920
23351WAT     H170295   3.056   5.404   2.897
23351WAT     H270296   3.213   5.391   2.854
23352WAT      O70297   4.273   5.201   1.603
23352WAT     H170298   4.310   5.134   1.540
23352WAT     H270299   4.298   5.293   1.573
23353WAT      O70300   6.520   0.192   8.557
23353WAT     H170301   6.564   0.105   8.533
23353WAT     H270302   6.503   0.245   8.474
23354WAT      O70303   9.656   7.041   0.382
23354WAT     H170304   9.715   7.045   0.463
23354WAT     H270305   9.696   7.097   0.309
23355WAT      O70306   3.545   7.831   4.042
23355WAT     H170307   3.488   7.901   4.000
23355WAT     H270308   3.506   7.741   4.025
23356WAT      O70309   1.360   8.963   6.649
23356WAT     H170310   1.358   8.863   6.650
23356WAT     H270311   1.417   8.996   6.725
23357WAT      O70312   9.796   4.493   9.786
23357WAT     H170313   9.755   4.412   9.743
23357WAT     H270314   9.724   4.556   9.815
23358WAT      O70315   6.074   7.797   5.318
23358WAT     H170316   5.994   7.748   5.283
23358WAT     H270317   6.157   7.758   5.278
23359WAT      O70318   3.036   1.856   7.958
23359WAT     H170319   3.015   1.762   7.932
23359WAT     H270320   2.958   1.895   8.007
23360WAT      O70321   8.573   5.834   8.985
23360WAT     H170322   8.667   5.809   8.964
23360WAT     H270323   8.552   5.924   8.947
23361WAT      O70324   4.935   1.648   1.126
23361WAT     H170325   4.875   1.568   1.127
23361WAT     H270326   4.887   1.725   1.085
23362WAT      O70327   1.503   1.895   1.032
23362WAT     H170328   1.585   1.860   1.078
23362WAT     H270329   1.522   1.985   0.995
23363WAT      O70330   2.432   7.737   8.225
23363WAT     H170331   2.333   7.750   8.222
23363WAT     H270332   2.459   7.673   8.153
23364WAT      O70333   5.714   7.685   0.961
23364WAT     H170334   5.665   7.632   1.031
23364WAT     H270335   5.661   7.685   0.877
23365WAT      O70336   6.947   3.756   9.046
23365WAT     H170337   7.016   3.811   9.094
23365WAT     H270338   6.881   3.817   9.000
23366WAT      O70339   8.540   9.546   0.412
23366WAT     H170340   8.456   9.496   0.434
23366WAT     H270341   8.572   9.520   0.321
23367WAT      O70342   9.781   2.965   5.459
23367WAT     H170343   9.737   2.880   5.486
23367WAT     H270344   9.715   3.026   5.416
23368WAT      O70345   0.207   2.144   8.753
23368WAT     H170346   0.243   2.117   8.663
23368WAT     H270347   0.268   2.212   8.794
23369WAT      O70348   2.557   6.693   6.060
23369WAT     H170349   2.635   6.654   6.012
23369WAT     H270350   2.584   6.779   6.104
23370WAT      O70351   8.913   4.274   6.209
23370WAT     H170352   8.849   4.280   6.286
23370WAT     H270353   8.867   4.304   6.126
23371WAT      O70354   2.315   5.370   9.508
23371WAT     H170355   2.369   5.352   9.590
23371WAT     H270356   2.277   5.462   9.513
23372WAT      O70357   6.126   6.203   4.656
23372WAT     H170358   6.121   6.302   4.673
23372WAT     H270359   6.124   6.186   4.557
23373WAT      O70360   8.230   8.913   3.423
23373WAT     H170361   8.179   8.988   3.381
23373WAT     H270362   8.166   8.845   3.459
23374WAT      O70363   2.259   1.097   5.076
23374WAT     H170364   2.209   1.139   5.000
23374WAT     H270365   2.353   1.132   5.077
23375WAT      O70366   0.590   0.724   0.545
23375WAT     H170367   0.601   0.741   0.447
23375WAT     H270368   0.494   0.737   0.570
23376WAT      O70369   8.186   0.402   8.541
23376WAT     H170370   8.145   0.439   8.624
23376WAT     H270371   8.252   0.467   8.504
23377WAT      O70372   5.026   3.863   0.895
23377WAT     H170373   4.976   3.790   0.942
23377WAT     H270374   5.006   3.950   0.939
23378WAT      O70375   1.094   0.885   9.619
23378WAT     H170376   1.014   0.918   9.570
23378WAT     H270377   1.066   0.848   9.707
23379WAT      O70378   4.362   5.877   9.385
23379WAT     H170379   4.305   5.893   9.466
23379WAT     H270380   4.446   5.830   9.411
23380WAT      O70381   8.768   0.073   7.992
23380WAT     H170382   8.852   0.045   7.946
23380WAT     H270383   8.786   0.093   8.088
23381WAT      O70384   6.063   2.901   3.821
23381WAT     H170385   6.043   2.807   3.792
23381WAT     H270386   6.157   2.905   3.855
23382WAT      O70387   3.176   9.768   7.948
23382WAT     H170388   3.114   9.691   7.957
23382WAT     H270389   3.124   9.851   7.926
23383WAT      O70390   6.496   6.510   1.645
23383WAT     H170391   6.441   6.511   1.561
23383WAT     H270392   6.488   6.422   1.690
23384WAT      O70393   3.096   9.565   3.809
23384WAT     H170394   3.000   9.576   3.834
23384WAT     H270395   3.150   9.542   3.890
23385WAT      O70396   3.465   1.224   0.292
23385WAT     H170397   3.538   1.165   0.256
23385WAT     H270398   3.422   1.180   0.371
23386WAT      O70399   0.508   1.858   4.902
23386WAT     H170400   0.414   1.889   4.917
23386WAT     H270401   0.521   1.836   4.805
23387WAT      O70402   5.762   4.638   4.574
23387WAT     H170403   5.835   4.628   4.641
23387WAT     H270404   5.729   4.547   4.547
23388WAT      O70405   3.230   2.880   4.599
23388WAT     H170406   3.207   2.961   4.545
23388WAT     H270407   3.280   2.816   4.541
23389WAT      O70408   4.347   2.776   4.806
23389WAT     H170409   4.272   2.826   4.849
23389WAT     H270410   4.355   2.804   4.710
23390WAT      O70411   2.214   9.761   2.943
23390WAT     H170412   2.167   9.790   2.860
23390WAT     H270413   2.306   9.729   2.919
23391WAT      O70414   0.105   5.352   7.297
23391WAT     H170415   0.050   5.435   7.310
23391WAT     H270416   0.176   5.347   7.368
23392WAT      O70417   1.842   3.604   9.594
23392WAT     H170418   1.860   3.696   9.560
23392WAT     H270419   1.743   3.593   9.607
23393WAT      O70420   7.902   7.795   9.714
23393WAT     H170421   7.938   7.704   9.689
23393WAT     H270422   7.822   7.816   9.658
23394WAT      O70423   3.004   7.588   3.693
23394WAT     H170424   2.982   7.545   3.781
23394WAT     H270425   2.944   7.667   3.678
23395WAT      O70426   9.049   6.331   3.351
23395WAT     H170427   9.043   6.232   3.362
23395WAT     H270428   9.067   6.373   3.439
23396WAT      O70429   0.045   1.686   4.320
23396WAT     H170430   0.068   1.608   4.261
23396WAT     H270431  -0.019   1.656   4.391
23397WAT      O70432   3.642   6.331   6.394
23397WAT     H170433   3.628   6.335   6.295
23397WAT     H270434   3.586   6.401   6.439
23398WAT      O70435   3.236   7.351   6.930
23398WAT     H170436   3.316   7.312   6.977
23398WAT     H270437   3.164   7.282   6.925
23399WAT      O70438   2.076   2.037   2.361
23399WAT     H170439   2.164   1.989   2.363
23399WAT     H270440   2.019   2.003   2.436
23400WAT      O70441   8.022   7.081   0.160
23400WAT     H170442   7.943   7.026   0.185
23400WAT     H270443   8.106   7.034   0.188
23401WAT      O70444   8.545   1.664   9.303
23401WAT     H170445   8.502   1.754   9.299
23401WAT     H270446   8.497   1.601   9.242
23402WAT      O70447   4.100   9.642   4.275
23402WAT     H170448   4.152   9.588   4.341
23402WAT     H270449   4.009   9.662   4.311
23403WAT      O70450   1.021   7.528   0.604
23403WAT     H170451   1.013   7.455   0.672
23403WAT     H270452   0.989   7.614   0.642
23404WAT      O70453   1.371   2.039   3.676
23404WAT     H170454   1.462   2.081   3.675
23404WAT     H270455   1.304   2.108   3.701
23405WAT      O70456   8.333   7.502   5.364
23405WAT     H170457   8.369   7.421   5.318
23405WAT     H270458   8.259   7.475   5.426
23406WAT      O70459   4.187   0.465   8.185
23406WAT     H170460   4.108   0.514   8.223
23406WAT     H270461   4.260   0.463   8.253
23407WAT      O70462   1.765   0.601   9.601
23407WAT     H170463   1.847   0.628   9.650
23407WAT     H270464   1.749   0.665   9.525
23408WAT      O70465   7.691   6.709   4.801
23408WAT     H170466   7.659   6.619   4.774
23408WAT     H270467   7.790   6.715   4.787
23409WAT      O70468   3.500   0.437   0.782
23409WAT     H170469   3.567   0.501   0.819
23409WAT     H270470   3.471   0.374   0.854
23410WAT      O70471   4.279   0.222   8.443
23410WAT     H170472   4.323   0.312   8.434
23410WAT     H270473   4.180   0.234   8.453
23411WAT      O70474   9.856   8.643   4.752
23411WAT     H170475   9.780   8.600   4.800
23411WAT     H270476   9.858   8.609   4.657
23412WAT      O70477   0.301   3.087   0.671
23412WAT     H170478   0.328   3.182   0.657
23412WAT     H270479   0.246   3.056   0.594
23413WAT      O70480   5.184   4.986   0.603
23413WAT     H170481   5.283   4.974   0.590
23413WAT     H270482   5.137   4.902   0.577
23414WAT      O70483   0.903   6.771   7.173
23414WAT     H170484   0.966   6.782   7.250
23414WAT     H270485   0.818   6.821   7.192
23415WAT      O70486   7.588   5.877   7.180
23415WAT     H170487   7.667   5.927   7.144
23415WAT     H270488   7.513   5.882   7.114
23416WAT      O70489   0.426   5.961   5.372
23416WAT     H170490   0.421   5.954   5.272
23416WAT     H270491   0.395   5.875   5.412
23417WAT      O70492   5.412   0.877   8.796
23417WAT     H170493   5.379   0.886   8.890
23417WAT     H270494   5.427   0.780   8.776
23418WAT      O70495   6.210   5.132   4.651
23418WAT     H170496   6.150   5.212   4.658
23418WAT     H270497   6.285   5.140   4.716
23419WAT      O70498   6.951   7.274   7.417
23419WAT     H170499   6.928   7.217   7.496
23419WAT     H270500   6.957   7.370   7.446
23420WAT      O70501   4.233   1.641   1.248
23420WAT     H170502   4.263   1.723   1.199
23420WAT     H270503   4.313   1.586   1.272
23421WAT      O70504   6.294   9.025   8.852
23421WAT     H170505   6.298   8.987   8.759
23421WAT     H270506   6.341   9.113   8.853
23422WAT      O70507   7.069   2.928   3.883
23422WAT     H170508   7.100   2.879   3.964
23422WAT     H270509   7.090   3.025   3.893
23423WAT      O70510   0.179   3.720   1.596
23423WAT     H170511   0.189   3.694   1.500
23423WAT     H270512   0.246   3.791   1.619
23424WAT      O70513   7.166   4.393   4.028
23424WAT     H170514   7.104   4.318   4.006
23424WAT     H270515   7.177   4.451   3.948
23425WAT      O70516   6.219   8.840   1.691
23425WAT     H170517   6.209   8.835   1.592
23425WAT     H270518   6.204   8.934   1.721
23426WAT      O70519   9.841   3.698   3.357
23426WAT     H170520   9.816   3.765   3.427
23426WAT     H270521   9.762   3.678   3.299
23427WAT      O70522   6.816   0.876   1.617
23427WAT     H170523   6.908   0.858   1.651
23427WAT     H270524   6.791   0.971   1.634
23428WAT      O70525   6.599   7.884   5.560
23428WAT     H170526   6.558   7.816   5.621
23428WAT     H270527   6.698   7.885   5.573
23429WAT      O70528   7.316   7.676   6.297
23429WAT     H170529   7.352   7.608   6.362
23429WAT     H270530   7.366   7.762   6.307
23430WAT      O70531   1.643   1.974   8.747
23430WAT     H170532   1.618   1.907   8.816
23430WAT     H270533   1.639   1.932   8.656
23431WAT      O70534   4.633   7.411   8.153
23431WAT     H170535   4.728   7.417   8.123
23431WAT     H270536   4.629   7.416   8.253
23432WAT      O70537   6.724   6.747   7.540
23432WAT     H170538   6.692   6.792   7.623
23432WAT     H270539   6.646   6.720   7.484
23433WAT      O70540   7.127   5.368   2.103
23433WAT     H170541   7.073   5.425   2.041
23433WAT     H270542   7.172   5.296   2.050
23434WAT      O70543   5.699   6.739   8.868
23434WAT     H170544   5.780   6.680   8.862
23434WAT     H270545   5.717   6.814   8.931
23435WAT      O70546   9.282   8.797   0.298
23435WAT     H170547   9.184   8.794   0.277
23435WAT     H270548   9.296   8.833   0.390
23436WAT      O70549   4.041   0.659   7.913
23436WAT     H170550   4.046   0.722   7.990
23436WAT     H270551   3.969   0.592   7.929
23437WAT      O70552   6.687   3.297   5.077
23437WAT     H170553   6.639   3.318   5.162
23437WAT     H270554   6.622   3.255   5.013
23438WAT      O70555   1.617   0.921   7.250
23438WAT     H170556   1.545   0.964   7.196
23438WAT     H270557   1.693   0.895   7.190
23439WAT      O70558   0.727   1.016   8.311
23439WAT     H170559   0.798   1.032   8.379
23439WAT     H270560   0.736   0.924   8.273
23440WAT      O70561   5.439   9.380   7.319
23440WAT     H170562   5.438   9.409   7.224
23440WAT     H270563   5.345   9.378   7.355
23441WAT      O70564   8.992   9.720   0.734
23441WAT     H170565   8.920   9.651   0.726
23441WAT     H270566   9.081   9.675   0.740
23442WAT      O70567   9.396   5.051   5.060
23442WAT     H170568   9.431   5.051   5.154
23442WAT     H270569   9.409   5.141   5.020
23443WAT      O70570   0.952   5.511   3.541
23443WAT     H170571   0.999   5.465   3.466
23443WAT     H270572   0.975   5.467   3.628
23444WAT      O70573   4.686   7.713   6.822
23444WAT     H170574   4.744   7.793   6.833
23444WAT     H270575   4.721   7.656   6.747
23445WAT      O70576   5.389   9.135   5.490
23445WAT     H170577   5.452   9.212   5.481
23445WAT     H270578   5.431   9.065   5.548
23446WAT      O70579   3.526   3.162   7.759
23446WAT     H170580   3.566   3.175   7.849
23446WAT     H270581   3.548   3.241   7.701
23447WAT      O70582   1.966   5.546   1.489
23447WAT     H170583   2.064   5.540   1.508
23447WAT     H270584   1.952   5.576   1.395
23448WAT      O70585   1.265   9.196   0.427
23448WAT     H170586   1.316   9.155   0.350
23448WAT     H270587   1.248   9.126   0.496
23449WAT      O70588   4.745   8.255   4.433
23449WAT     H170589   4.719   8.318   4.506
23449WAT     H270590   4.667   8.243   4.370
23450WAT      O70591   0.290   3.693   9.118
23450WAT     H170592   0.218   3.712   9.185
23450WAT     H270593   0.336   3.779   9.093
23451WAT      O70594   6.456   2.062   8.194
23451WAT     H170595   6.419   1.990   8.136
23451WAT     H270596   6.381   2.119   8.227
23452WAT      O70597   9.589   1.682   4.372
23452WAT     H170598   9.590   1.775   4.408
23452WAT     H270599   9.673   1.635   4.401
23453WAT      O70600   5.561   6.724   3.340
23453WAT     H170601   5.587   6.687   3.429
23453WAT     H270602   5.613   6.678   3.268
23454WAT      O70603   1.363   4.845   3.215
23454WAT     H170604   1.359   4.864   3.313
23454WAT     H270605   1.392   4.928   3.166
23455WAT      O70606   2.408   1.276   6.621
23455WAT     H170607   2.411   1.270   6.522
23455WAT     H270608   2.464   1.203   6.661
23456WAT      O70609   3.044   0.714   7.055
23456WAT     H170610   3.003   0.626   7.030
23456WAT     H270611   2.973   0.785   7.053
23457WAT      O70612   6.166   7.622   1.380
23457WAT     H170613   6.210   7.704   1.416
23457WAT     H270614   6.124   7.570   1.455
23458WAT      O70615   1.710   9.718   4.565
23458WAT     H170616   1.727   9.724   4.467
23458WAT     H270617   1.702   9.621   4.591
23459WAT      O70618   6.024   3.459   1.921
23459WAT     H170619   6.054   3.514   1.843
23459WAT     H270620   6.028   3.362   1.897
23460WAT      O70621   5.237   0.574   6.601
23460WAT     H170622   5.240   0.583   6.501
23460WAT     H270623   5.238   0.664   6.643
23461WAT      O70624   2.193   5.691   6.140
23461WAT     H170625   2.230   5.778   6.173
23461WAT     H270626   2.205   5.621   6.210
23462WAT      O70627   6.854   0.196   2.965
23462WAT     H170628   6.932   0.213   2.905
23462WAT     H270629   6.883   0.141   3.043
23463WAT      O70630   6.232   3.616   8.414
23463WAT     H170631   6.240   3.689   8.481
23463WAT     H270632   6.196   3.534   8.458
23464WAT      O70633   0.920   9.700   1.705
23464WAT     H170634   0.834   9.747   1.722
23464WAT     H270635   0.931   9.684   1.607
23465WAT      O70636   2.521   8.009   8.192
23465WAT     H170637   2.456   8.051   8.256
23465WAT     H270638   2.529   7.911   8.213
23466WAT      O70639   5.140   1.063   8.522
23466WAT     H170640   5.214   1.126   8.546
23466WAT     H270641   5.132   0.992   8.592
23467WAT      O70642   2.065   6.844   7.211
23467WAT     H170643   2.059   6.786   7.130
23467WAT     H270644   2.127   6.802   7.277
23468WAT      O70645   2.713   5.032   2.523
23468WAT     H170646   2.638   5.050   2.585
23468WAT     H270647   2.797   5.073   2.559
23469WAT      O70648   7.662   6.489   9.866
23469WAT     H170649   7.579   6.503   9.811
23469WAT     H270650   7.672   6.391   9.886
23470WAT      O70651   5.720   0.624   0.508
23470WAT     H170652   5.661   0.675   0.446
23470WAT     H270653   5.677   0.536   0.531
23471WAT      O70654   3.190   1.851   6.492
23471WAT     H170655   3.201   1.863   6.394
23471WAT     H270656   3.280   1.841   6.535
23472WAT      O70657   7.906   9.684   8.946
23472WAT     H170658   7.965   9.746   8.997
23472WAT     H270659   7.945   9.592   8.947
23473WAT      O70660   0.986   4.094   7.321
23473WAT     H170661   0.934   4.010   7.301
23473WAT     H270662   0.926   4.173   7.310
23474WAT      O70663   1.661   3.728   5.738
23474WAT     H170664   1.685   3.632   5.738
23474WAT     H270665   1.743   3.784   5.727
23475WAT      O70666   6.646   3.263   9.369
23475WAT     H170667   6.673   3.286   9.463
23475WAT     H270668   6.600   3.342   9.328
23476WAT      O70669   6.813   9.606   4.105
23476WAT     H170670   6.817   9.672   4.030
23476WAT     H270671   6.878   9.633   4.175
23477WAT      O70672   0.824   5.649   1.458
23477WAT     H170673   0.740   5.686   1.417
23477WAT     H270674   0.815   5.550   1.467
23478WAT      O70675   9.107   5.543   8.352
23478WAT     H170676   9.100   5.468   8.418
23478WAT     H270677   9.198   5.543   8.311
23479WAT      O70678   1.201   1.011   7.462
23479WAT     H170679   1.166   1.013   7.556
23479WAT     H270680   1.300   0.997   7.464
23480WAT      O70681   0.788   6.084   9.138
23480WAT     H170682   0.757   5.990   9.146
23480WAT     H270683   0.780   6.115   9.043
23481WAT      O70684   3.770   3.735   1.105
23481WAT     H170685   3.764   3.638   1.080
23481WAT     H270686   3.688   3.783   1.075
23482WAT      O70687   1.599   1.891   2.560
23482WAT     H170688   1.596   1.803   2.608
23482WAT     H270689   1.513   1.905   2.511
23483WAT      O70690   6.596   7.444   6.952
23483WAT     H170691   6.530   7.397   7.011
23483WAT     H270692   6.673   7.384   6.933
23484WAT      O70693   8.279   2.523   5.490
23484WAT     H170694   8.270   2.446   5.426
23484WAT     H270695   8.192   2.572   5.494
23485WAT      O70696   2.613   5.320   0.158
23485WAT     H170697   2.592   5.222   0.166
23485WAT     H270698   2.529   5.373   0.167
23486WAT      O70699   5.123   2.122   6.541
23486WAT     H170700   5.080   2.068   6.469
23486WAT     H270701   5.054   2.179   6.586
23487WAT      O70702   6.058   2.859   7.111
23487WAT     H170703   6.008   2.945   7.106
23487WAT     H270704   6.111   2.855   7.196
23488WAT      O70705   5.275   5.768   4.946
23488WAT     H170706   5.183   5.761   4.986
23488WAT     H270707   5.269   5.752   4.847
23489WAT      O70708   5.761   3.759   2.592
23489WAT     H170709   5.847   3.718   2.620
23489WAT     H270710   5.776   3.821   2.515
23490WAT      O70711   2.815   1.696   8.600
23490WAT     H170712   2.739   1.725   8.658
23490WAT     H270713   2.884   1.648   8.655
23491WAT      O70714   2.261   4.866   2.669
23491WAT     H170715   2.293   4.846   2.577
23491WAT     H270716   2.264   4.782   2.724
23492WAT      O70717   2.699   9.607   1.575
23492WAT     H170718   2.772   9.548   1.541
23492WAT     H270719   2.738   9.680   1.631
23493WAT      O70720   8.506   4.744   5.223
23493WAT     H170721   8.594   4.698   5.229
23493WAT     H270722   8.454   4.706   5.146
23494WAT      O70723   4.173   9.417   2.748
23494WAT     H170724   4.190   9.443   2.653
23494WAT     H270725   4.095   9.468   2.784
23495WAT      O70726   8.759   9.763   5.453
23495WAT     H170727   8.682   9.803   5.502
23495WAT     H270728   8.736   9.750   5.357
23496WAT      O70729   1.878   0.215   3.408
23496WAT     H170730   1.948   0.220   3.479
23496WAT     H270731   1.789   0.203   3.451
23497WAT      O70732   2.208   2.284   5.914
23497WAT     H170733   2.208   2.374   5.871
23497WAT     H270734   2.140   2.226   5.870
23498WAT      O70735   0.715   6.686   1.039
23498WAT     H170736   0.652   6.763   1.030
23498WAT     H270737   0.802   6.708   0.994
23499WAT      O70738   3.122   0.531   0.166
23499WAT     H170739   3.064   0.526   0.247
23499WAT     H270740   3.071   0.574   0.091
23500WAT      O70741   9.588   7.053   3.631
23500WAT     H170742   9.650   7.080   3.705
23500WAT     H270743   9.494   7.054   3.664
23501WAT      O70744   2.265   9.193   7.386
23501WAT     H170745   2.353   9.241   7.385
23501WAT     H270746   2.267   9.117   7.321
23502WAT      O70747   3.145   8.214   8.313
23502WAT     H170748   3.127   8.140   8.379
23502WAT     H270749   3.199   8.285   8.357
23503WAT      O70750   5.850   1.711   7.977
23503WAT     H170751   5.810   1.657   8.051
23503WAT     H270752   5.863   1.805   8.008
23504WAT      O70753   0.775   1.842   1.468
23504WAT     H170754   0.842   1.771   1.449
23504WAT     H270755   0.683   1.803   1.463
23505WAT      O70756   6.520   4.053   1.693
23505WAT     H170757   6.521   3.967   1.743
23505WAT     H270758   6.426   4.086   1.686
23506WAT      O70759   3.804   0.303   8.797
23506WAT     H170760   3.809   0.205   8.780
23506WAT     H270761   3.775   0.319   8.891
23507WAT      O70762   2.602   3.397   8.766
23507WAT     H170763   2.603   3.344   8.682
23507WAT     H270764   2.636   3.340   8.841
23508WAT      O70765   5.807   4.731   6.939
23508WAT     H170766   5.801   4.802   7.010
23508WAT     H270767   5.718   4.685   6.931
23509WAT      O70768   3.735   1.296   5.662
23509WAT     H170769   3.730   1.293   5.762
23509WAT     H270770   3.644   1.317   5.625
23510WAT      O70771   9.354   4.811   2.445
23510WAT     H170772   9.387   4.787   2.354
23510WAT     H270773   9.358   4.911   2.456
23511WAT      O70774   1.250   0.008   2.845
23511WAT     H170775   1.294   0.013   2.755
23511WAT     H270776   1.245   0.100   2.884
23512WAT      O70777   2.908   5.940   3.493
23512WAT     H170778   2.892   5.966   3.588
23512WAT     H270779   2.917   5.841   3.486
23513WAT      O70780   5.899   3.475   6.312
23513WAT     H170781   5.903   3.574   6.323
23513WAT     H270782   5.806   3.448   6.290
23514WAT      O70783   3.762   6.545   1.965
23514WAT     H170784   3.813   6.479   1.910
23514WAT     H270785   3.693   6.496   2.020
23515WAT      O70786   0.675   2.411   4.369
23515WAT     H170787   0.704   2.426   4.463
23515WAT     H270788   0.675   2.312   4.350
23516WAT      O70789   3.585   7.418   6.876
23516WAT     H170790   3.641   7.396   6.956
23516WAT     H270791   3.562   7.515   6.877
23517WAT      O70792   0.715   2.122   7.048
23517WAT     H170793   0.725   2.081   6.958
23517WAT     H270794   0.662   2.207   7.040
23518WAT      O70795   3.119   8.152   6.208
23518WAT     H170796   3.039   8.153   6.268
23518WAT     H270797   3.197   8.113   6.256
23519WAT      O70798   5.541   8.182   6.082
23519WAT     H170799   5.633   8.190   6.044
23519WAT     H270800   5.484   8.128   6.020
23520WAT      O70801   8.627   7.397   4.707
23520WAT     H170802   8.632   7.406   4.806
23520WAT     H270803   8.644   7.302   4.681
23521WAT      O70804   4.912   5.708   9.221
23521WAT     H170805   4.967   5.751   9.293
23521WAT     H270806   4.954   5.622   9.195
23522WAT      O70807   0.747   1.697   6.274
23522WAT     H170808   0.816   1.683   6.203
23522WAT     H270809   0.791   1.722   6.360
23523WAT      O70810   2.278   4.418   4.753
23523WAT     H170811   2.216   4.377   4.686
23523WAT     H270812   2.225   4.458   4.828
23524WAT      O70813   1.511   9.052   6.882
23524WAT     H170814   1.581   9.122   6.869
23524WAT     H270815   1.468   9.064   6.972
23525WAT      O70816   4.487   8.988   6.019
23525WAT     H170817   4.479   8.893   5.988
23525WAT     H270818   4.567   9.030   5.976
23526WAT      O70819   6.353   2.044   2.725
23526WAT     H170820   6.323   1.984   2.799
23526WAT     H270821   6.339   1.999   2.637
23527WAT      O70822   0.854   2.836   4.098
23527WAT     H170823   0.820   2.892   4.175
23527WAT     H270824   0.822   2.742   4.109
23528WAT      O70825   1.010   2.798   5.763
23528WAT     H170826   0.916   2.825   5.745
23528WAT     H270827   1.073   2.864   5.721
23529WAT      O70828   8.565   3.550   7.562
23529WAT     H170829   8.501   3.480   7.529
23529WAT     H270830   8.517   3.611   7.625
23530WAT      O70831   8.876   6.203   9.505
23530WAT     H170832   8.844   6.150   9.583
23530WAT     H270833   8.918   6.143   9.437
23531WAT      O70834   0.415   5.376   4.420
23531WAT     H170835   0.450   5.398   4.512
23531WAT     H270836   0.480   5.408   4.352
23532WAT      O70837   1.215   0.193   5.088
23532WAT     H170838   1.205   0.226   5.182
23532WAT     H270839   1.310   0.165   5.072
23533WAT      O70840   3.854   7.840   9.705
23533WAT     H170841   3.948   7.874   9.710
23533WAT     H270842   3.794   7.901   9.757
23534WAT      O70843   2.192   7.924   5.354
23534WAT     H170844   2.280   7.878   5.364
23534WAT     H270845   2.121   7.857   5.335
23535WAT      O70846   4.991   7.712   6.422
23535WAT     H170847   5.005   7.618   6.390
23535WAT     H270848   4.946   7.765   6.351
23536WAT      O70849   9.636   4.577   5.285
23536WAT     H170850   9.614   4.483   5.259
23536WAT     H270851   9.699   4.617   5.219
23537WAT      O70852   1.019   9.507   0.890
23537WAT     H170853   1.086   9.505   0.965
23537WAT     H270854   1.059   9.465   0.809
23538WAT      O70855   3.033   6.442   4.556
23538WAT     H170856   3.089   6.462   4.636
23538WAT     H270857   3.076   6.369   4.503
23539WAT      O70858   8.165   1.753   0.182
23539WAT     H170859   8.089   1.719   0.127
23539WAT     H270860   8.130   1.816   0.251
23540WAT      O70861   7.065   3.342   0.700
23540WAT     H170862   7.067   3.442   0.699
23540WAT     H270863   7.051   3.310   0.793
23541WAT      O70864   5.318   2.970   0.695
23541WAT     H170865   5.365   3.030   0.630
23541WAT     H270866   5.356   2.983   0.787
23542WAT      O70867   2.819   6.158   7.560
23542WAT     H170868   2.868   6.107   7.631
23542WAT     H270869   2.879   6.170   7.481
23543WAT      O70870   4.904   8.627   1.240
23543WAT     H170871   4.885   8.584   1.328
23543WAT     H270872   4.986   8.683   1.247
23544WAT      O70873   4.785   6.040   7.085
23544WAT     H170874   4.723   6.024   7.162
23544WAT     H270875   4.745   6.109   7.025
23545WAT      O70876   3.039   0.579   5.912
23545WAT     H170877   2.988   0.637   5.849
23545WAT     H270878   3.114   0.535   5.862
23546WAT      O70879   2.154   5.206   1.263
23546WAT     H170880   2.211   5.277   1.222
23546WAT     H270881   2.068   5.247   1.295
23547WAT      O70882   2.693   7.845   2.811
23547WAT     H170883   2.639   7.776   2.859
23547WAT     H270884   2.710   7.816   2.717
23548WAT      O70885   3.423   7.552   4.037
23548WAT     H170886   3.372   7.481   3.990
23548WAT     H270887   3.361   7.624   4.068
23549WAT      O70888   9.606   3.462   9.034
23549WAT     H170889   9.568   3.514   9.111
23549WAT     H270890   9.541   3.462   8.958
23550WAT      O70891   2.069   4.150   0.301
23550WAT     H170892   2.083   4.240   0.260
23550WAT     H270893   2.002   4.156   0.374
23551WAT      O70894   7.977   2.598   4.773
23551WAT     H170895   7.936   2.510   4.797
23551WAT     H270896   8.017   2.592   4.682
23552WAT      O70897   6.497   2.479   7.840
23552WAT     H170898   6.561   2.407   7.866
23552WAT     H270899   6.404   2.450   7.862
23553WAT      O70900   7.409   0.050   3.518
23553WAT     H170901   7.497   0.076   3.479
23553WAT     H270902   7.413   0.057   3.618
23554WAT      O70903   3.187   7.091   7.024
23554WAT     H170904   3.182   7.130   7.115
23554WAT     H270905   3.267   7.031   7.018
23555WAT      O70906   7.971   4.837   5.286
23555WAT     H170907   8.035   4.901   5.242
23555WAT     H270908   7.981   4.746   5.244
23556WAT      O70909   0.188   4.194   8.513
23556WAT     H170910   0.233   4.246   8.585
23556WAT     H270911   0.185   4.249   8.429
23557WAT      O70912   2.555   8.280   3.969
23557WAT     H170913   2.621   8.272   4.043
23557WAT     H270914   2.505   8.366   3.978
23558WAT      O70915   3.358   7.310   2.054
23558WAT     H170916   3.325   7.222   2.088
23558WAT     H270917   3.325   7.324   1.961
23559WAT      O70918   0.307   2.063   3.252
23559WAT     H170919   0.393   2.015   3.272
23559WAT     H270920   0.271   2.102   3.337
23560WAT      O70921   6.435   5.034   6.247
23560WAT     H170922   6.406   5.121   6.288
23560WAT     H270923   6.354   4.981   6.221
23561WAT      O70924   0.376   1.476   2.386
23561WAT     H170925   0.324   1.406   2.435
23561WAT     H270926   0.449   1.433   2.334
23562WAT      O70927   3.945   3.031   4.544
23562WAT     H170928   3.867   3.093   4.533
23562WAT     H270929   4.013   3.074   4.604
23563WAT      O70930   8.727   1.811   2.085
23563WAT     H170931   8.736   1.712   2.071
23563WAT     H270932   8.807   1.844   2.136
23564WAT      O70933   7.173   0.266   3.447
23564WAT     H170934   7.273   0.256   3.452
23564WAT     H270935   7.130   0.185   3.487
23565WAT      O70936   2.942   9.202   6.164
23565WAT     H170937   2.847   9.170   6.164
23565WAT     H270938   2.978   9.200   6.071
23566WAT      O70939   2.460   7.391   7.293
23566WAT     H170940   2.466   7.353   7.385
23566WAT     H270941   2.445   7.318   7.227
23567WAT      O70942   5.543   7.068   0.255
23567WAT     H170943   5.467   7.086   0.317
23567WAT     H270944   5.603   7.147   0.252
23568WAT      O70945   2.896   6.314   0.190
23568WAT     H170946   2.942   6.397   0.159
23568WAT     H270947   2.958   6.263   0.250
23569WAT      O70948   0.458   4.023   3.996
23569WAT     H170949   0.407   4.032   3.910
23569WAT     H270950   0.401   4.050   4.073
23570WAT      O70951   8.068   7.511   7.697
23570WAT     H170952   8.156   7.547   7.726
23570WAT     H270953   8.079   7.417   7.664
23571WAT      O70954   9.406   4.964   1.556
23571WAT     H170955   9.464   5.012   1.490
23571WAT     H270956   9.458   4.946   1.639
23572WAT      O70957   4.500   5.072   7.696
23572WAT     H170958   4.512   5.089   7.598
23572WAT     H270959   4.404   5.084   7.720
23573WAT      O70960   3.803   9.498   4.556
23573WAT     H170961   3.725   9.436   4.570
23573WAT     H270962   3.875   9.449   4.507
23574WAT      O70963   6.607   1.520   5.932
23574WAT     H170964   6.705   1.534   5.950
23574WAT     H270965   6.592   1.424   5.907
23575WAT      O70966   4.971   6.268   3.858
23575WAT     H170967   4.891   6.212   3.881
23575WAT     H270968   4.954   6.317   3.773
23576WAT      O70969   0.419   2.723   8.417
23576WAT     H170970   0.378   2.799   8.366
23576WAT     H270971   0.387   2.636   8.378
23577WAT      O70972   7.540   2.688   0.534
23577WAT     H170973   7.615   2.754   0.518
23577WAT     H270974   7.453   2.737   0.534
23578WAT      O70975   9.440   3.687   4.132
23578WAT     H170976   9.346   3.684   4.099
23578WAT     H270977   9.442   3.669   4.230
23579WAT      O70978   2.290   2.479   0.868
23579WAT     H170979   2.294   2.416   0.791
23579WAT     H270980   2.374   2.471   0.922
23580WAT      O70981   6.353   6.678   1.202
23580WAT     H170982   6.261   6.716   1.214
23580WAT     H270983   6.352   6.580   1.223
23581WAT      O70984   7.672   8.324   9.685
23581WAT     H170985   7.705   8.259   9.754
23581WAT     H270986   7.745   8.389   9.663
23582WAT      O70987   3.090   1.508   0.117
23582WAT     H170988   3.136   1.419   0.121
23582WAT     H270989   3.040   1.523   0.202
23583WAT      O70990   0.518   2.314   7.042
23583WAT     H170991   0.560   2.405   7.047
23583WAT     H270992   0.435   2.320   6.985
23584WAT      O70993   6.459   1.913   2.262
23584WAT     H170994   6.461   1.820   2.226
23584WAT     H270995   6.420   1.975   2.194
23585WAT      O70996   8.114   2.737   4.984
23585WAT     H170997   8.203   2.700   5.011
23585WAT     H270998   8.081   2.689   4.903
23586WAT      O70999   2.302   1.029   0.545
23586WAT     H171000   2.324   1.002   0.452
23586WAT     H271001   2.251   1.116   0.543
23587WAT      O71002   0.723   4.522   9.427
23587WAT     H171003   0.745   4.502   9.331
23587WAT     H271004   0.640   4.578   9.431
23588WAT      O71005   5.452   6.710   1.191
23588WAT     H171006   5.532   6.767   1.210
23588WAT     H271007   5.418   6.729   1.099
23589WAT      O71008   5.122   7.251   8.653
23589WAT     H171009   5.141   7.310   8.731
23589WAT     H271010   5.034   7.206   8.665
23590WAT      O71011   0.994   5.411   9.400
23590WAT     H171012   0.989   5.501   9.356
23590WAT     H271013   1.046   5.349   9.342
23591WAT      O71014   8.162   1.325   6.391
23591WAT     H171015   8.064   1.347   6.382
23591WAT     H271016   8.174   1.226   6.388
23592WAT      O71017   7.955   2.307   3.828
23592WAT     H171018   7.885   2.353   3.772
23592WAT     H271019   8.004   2.240   3.773
23593WAT      O71020   5.126   8.117   7.501
23593WAT     H171021   5.170   8.053   7.437
23593WAT     H271022   5.168   8.109   7.591
23594WAT      O71023   9.124   8.966   8.331
23594WAT     H171024   9.112   8.920   8.419
23594WAT     H271025   9.201   9.029   8.336
23595WAT      O71026   6.228   5.876   8.799
23595WAT     H171027   6.236   5.973   8.780
23595WAT     H271028   6.158   5.835   8.740
23596WAT      O71029   5.311   9.019   0.622
23596WAT     H171030   5.231   9.059   0.577
23596WAT     H271031   5.295   9.017   0.721
23597WAT      O71032   7.860   8.279   6.266
23597WAT     H171033   7.891   8.219   6.192
23597WAT     H271034   7.826   8.224   6.342
23598WAT      O71035   1.396   3.680   9.271
23598WAT     H171036   1.309   3.632   9.261
23598WAT     H271037   1.380   3.773   9.303
23599WAT      O71038   7.185   1.932   4.499
23599WAT     H171039   7.245   1.926   4.420
23599WAT     H271040   7.218   1.870   4.571
23600WAT      O71041   7.313   1.810   4.006
23600WAT     H171042   7.225   1.793   3.961
23600WAT     H271043   7.359   1.887   3.961
23601WAT      O71044   9.432   8.506   9.144
23601WAT     H171045   9.488   8.587   9.164
23601WAT     H271046   9.476   8.425   9.182
23602WAT      O71047   0.796   5.196   6.885
23602WAT     H171048   0.821   5.284   6.844
23602WAT     H271049   0.823   5.195   6.981
23603WAT      O71050   9.495   6.065   8.790
23603WAT     H171051   9.451   5.994   8.844
23603WAT     H271052   9.426   6.130   8.758
23604WAT      O71053   1.726   3.485   3.425
23604WAT     H171054   1.767   3.394   3.414
23604WAT     H271055   1.630   3.475   3.452
23605WAT      O71056   3.058   0.050   9.160
23605WAT     H171057   2.965   0.014   9.162
23605WAT     H271058   3.116  -0.004   9.221
23606WAT      O71059   7.875   9.413   0.051
23606WAT     H171060   7.885   9.365   0.138
23606WAT     H271061   7.813   9.491   0.063
23607WAT      O71062   6.099   7.709   0.405
23607WAT     H171063   6.117   7.652   0.325
23607WAT     H271064   6.163   7.785   0.406
23608WAT      O71065   8.180   5.865   2.366
23608WAT     H171066   8.225   5.809   2.296
23608WAT     H271067   8.210   5.834   2.456
23609WAT      O71068   5.073   9.126   0.551
23609WAT     H171069   5.061   9.218   0.589
23609WAT     H271070   4.993   9.071   0.572
23610WAT      O71071   1.985   7.370   6.226
23610WAT     H171072   2.070   7.364   6.173
23610WAT     H271073   1.973   7.286   6.278
23611WAT      O71074   0.195   2.505   5.646
23611WAT     H171075   0.185   2.514   5.745
23611WAT     H271076   0.248   2.582   5.610
23612WAT      O71077   5.615   3.563   3.344
23612WAT     H171078   5.692   3.596   3.290
23612WAT     H271079   5.621   3.599   3.437
23613WAT      O71080   5.111   4.781   6.580
23613WAT     H171081   5.024   4.829   6.590
23613WAT     H271082   5.176   4.840   6.532
23614WAT      O71083   1.152   2.961   7.616
23614WAT     H171084   1.243   2.965   7.655
23614WAT     H271085   1.116   3.054   7.605
23615WAT      O71086   9.442   1.375   6.072
23615WAT     H171087   9.404   1.295   6.027
23615WAT     H271088   9.539   1.361   6.091
23616WAT      O71089   6.855   0.534   6.154
23616WAT     H171090   6.759   0.542   6.127
23616WAT     H271091   6.908   0.606   6.110
23617WAT      O71092   1.867   7.606   8.123
23617WAT     H171093   1.886   7.554   8.040
23617WAT     H271094   1.826   7.545   8.192
23618WAT      O71095   1.039   2.764   1.481
23618WAT     H171096   1.027   2.666   1.496
23618WAT     H271097   0.960   2.813   1.517
23619WAT      O71098   2.167   9.448   6.530
23619WAT     H171099   2.237   9.472   6.463
23619WAT     H271100   2.180   9.502   6.613
23620WAT      O71101   4.775   2.696   8.330
23620WAT     H171102   4.681   2.707   8.362
23620WAT     H271103   4.836   2.687   8.408
23621WAT      O71104   8.038   7.560   1.755
23621WAT     H171105   7.978   7.526   1.683
23621WAT     H271106   8.089   7.639   1.723
23622WAT      O71107   4.538   6.274   3.132
23622WAT     H171108   4.490   6.348   3.181
23622WAT     H271109   4.481   6.242   3.056
23623WAT      O71110   0.836   0.391   7.378
23623WAT     H171111   0.791   0.472   7.414
23623WAT     H271112   0.825   0.315   7.442
23624WAT      O71113   3.431   4.619   0.138
23624WAT     H171114   3.476   4.533   0.116
23624WAT     H271115   3.493   4.676   0.192
23625WAT      O71116   7.701   0.665   4.776
23625WAT     H171117   7.635   0.740   4.764
23625WAT     H271118   7.748   0.677   4.864
23626WAT      O71119   6.464   6.482   3.104
23626WAT     H171120   6.491   6.572   3.138
23626WAT     H271121   6.393   6.492   3.035
23627WAT      O71122   7.440   9.634   6.128
23627WAT     H171123   7.430   9.733   6.114
23627WAT     H271124   7.416   9.586   6.043
23628WAT      O71125   2.554   2.721   1.916
23628WAT     H171126   2.509   2.800   1.959
23628WAT     H271127   2.493   2.642   1.919
23629WAT      O71128   2.956   0.642   1.791
23629WAT     H171129   2.938   0.570   1.724
23629WAT     H271130   2.898   0.628   1.872
23630WAT      O71131   5.859   7.928   9.202
23630WAT     H171132   5.766   7.928   9.164
23630WAT     H271133   5.854   7.919   9.302
23631WAT      O71134   0.062   0.779   6.202
23631WAT     H171135   0.104   0.730   6.126
23631WAT     H271136  -0.004   0.845   6.168
23632WAT      O71137   6.389   8.074   1.901
23632WAT     H171138   6.468   8.107   1.953
23632WAT     H271139   6.413   7.989   1.854
23633WAT      O71140   3.783   5.199   1.719
23633WAT     H171141   3.860   5.139   1.739
23633WAT     H271142   3.816   5.286   1.683
23634WAT      O71143   1.212   0.557   3.383
23634WAT     H171144   1.157   0.580   3.464
23634WAT     H271145   1.221   0.639   3.325
23635WAT      O71146   0.241   8.877   0.652
23635WAT     H171147   0.335   8.848   0.636
23635WAT     H271148   0.184   8.797   0.668
23636WAT      O71149   2.439   3.971   6.997
23636WAT     H171150   2.501   3.957   7.075
23636WAT     H271151   2.349   3.997   7.031
23637WAT      O71152   6.422   4.750   4.481
23637WAT     H171153   6.475   4.829   4.512
23637WAT     H271154   6.408   4.756   4.382
23638WAT      O71155   3.867   2.237   8.950
23638WAT     H171156   3.841   2.143   8.927
23638WAT     H271157   3.965   2.248   8.938
23639WAT      O71158   6.685   6.291   3.540
23639WAT     H171159   6.683   6.218   3.472
23639WAT     H271160   6.591   6.321   3.559
23640WAT      O71161   3.890   1.715   9.762
23640WAT     H171162   3.989   1.721   9.752
23640WAT     H271163   3.867   1.631   9.811
23641WAT      O71164   9.459   9.077   6.448
23641WAT     H171165   9.383   9.142   6.442
23641WAT     H271166   9.544   9.121   6.419
23642WAT      O71167   0.332   9.784   2.090
23642WAT     H171168   0.369   9.877   2.091
23642WAT     H271169   0.272   9.773   2.010
23643WAT      O71170   8.890   8.058   6.293
23643WAT     H171171   8.987   8.062   6.269
23643WAT     H271172   8.847   7.980   6.248
23644WAT      O71173   2.009   7.995   2.590
23644WAT     H171174   2.092   8.004   2.644
23644WAT     H271175   2.004   8.071   2.524
23645WAT      O71176   0.079   0.697   2.258
23645WAT     H171177   0.141   0.723   2.332
23645WAT     H271178   0.044   0.605   2.275
23646WAT      O71179   2.228   4.837   5.884
23646WAT     H171180   2.211   4.818   5.787
23646WAT     H271181   2.185   4.767   5.940
23647WAT      O71182   2.218   5.710   8.860
23647WAT     H171183   2.162   5.777   8.811
23647WAT     H271184   2.254   5.644   8.794
23648WAT      O71185   0.125   6.650   1.536
23648WAT     H171186   0.084   6.730   1.579
23648WAT     H271187   0.053   6.589   1.503
23649WAT      O71188   8.219   1.440   0.878
23649WAT     H171189   8.202   1.342   0.869
23649WAT     H271190   8.305   1.463   0.832
23650WAT      O71191   4.707   2.227   5.309
23650WAT     H171192   4.642   2.288   5.263
23650WAT     H271193   4.764   2.181   5.240
23651WAT      O71194   6.807   1.564   3.495
23651WAT     H171195   6.763   1.621   3.425
23651WAT     H271196   6.891   1.524   3.458
23652WAT      O71197   6.885   7.153   6.209
23652WAT     H171198   6.954   7.080   6.204
23652WAT     H271199   6.931   7.242   6.205
23653WAT      O71200   3.546   5.467   2.583
23653WAT     H171201   3.607   5.523   2.526
23653WAT     H271202   3.459   5.454   2.536
23654WAT      O71203   3.642   6.665   6.364
23654WAT     H171204   3.575   6.603   6.406
23654WAT     H271205   3.612   6.760   6.377
23655WAT      O71206   1.318   3.669   5.912
23655WAT     H171207   1.249   3.645   5.843
23655WAT     H271208   1.357   3.758   5.890
23656WAT      O71209   3.786   1.871   3.756
23656WAT     H171210   3.746   1.789   3.715
23656WAT     H271211   3.796   1.942   3.686
23657WAT      O71212   2.654   3.815   2.255
23657WAT     H171213   2.642   3.906   2.295
23657WAT     H271214   2.750   3.788   2.264
23658WAT      O71215   8.688   1.245   5.139
23658WAT     H171216   8.695   1.233   5.238
23658WAT     H271217   8.596   1.275   5.116
23659WAT      O71218   3.913   4.142   2.165
23659WAT     H171219   3.945   4.053   2.198
23659WAT     H271220   3.983   4.184   2.107
23660WAT      O71221   5.363   5.188   2.020
23660WAT     H171222   5.362   5.192   1.920
23660WAT     H271223   5.433   5.125   2.051
23661WAT      O71224   0.737   1.239   8.162
23661WAT     H171225   0.721   1.194   8.074
23661WAT     H271226   0.742   1.170   8.234
23662WAT      O71227   4.445   0.582   5.952
23662WAT     H171228   4.519   0.521   5.980
23662WAT     H271229   4.409   0.630   6.032
23663WAT      O71230   5.145   9.717   4.367
23663WAT     H171231   5.057   9.765   4.359
23663WAT     H271232   5.128   9.622   4.391
23664WAT      O71233   6.882   5.357   7.298
23664WAT     H171234   6.846   5.280   7.351
23664WAT     H271235   6.978   5.341   7.277
23665WAT      O71236   2.395   3.747   2.271
23665WAT     H171237   2.480   3.800   2.272
23665WAT     H271238   2.396   3.681   2.346
23666WAT      O71239   8.175   3.055   9.435
23666WAT     H171240   8.114   3.093   9.505
23666WAT     H271241   8.191   2.958   9.456
23667WAT      O71242   2.365   7.792   4.644
23667WAT     H171243   2.275   7.749   4.646
23667WAT     H271244   2.433   7.725   4.613
23668WAT      O71245   8.019   9.431   8.900
23668WAT     H171246   8.076   9.455   8.821
23668WAT     H271247   7.955   9.358   8.874
23669WAT      O71248   0.229   0.237   4.783
23669WAT     H171249   0.150   0.178   4.770
23669WAT     H271250   0.271   0.258   4.695
23670WAT      O71251   5.993   6.757   3.343
23670WAT     H171252   5.912   6.769   3.401
23670WAT     H271253   6.017   6.660   3.340
23671WAT      O71254   4.266   9.630   3.419
23671WAT     H171255   4.207   9.609   3.497
23671WAT     H271256   4.210   9.660   3.342
23672WAT      O71257   6.934   0.662   5.151
23672WAT     H171258   6.942   0.576   5.202
23672WAT     H271259   6.838   0.679   5.129
23673WAT      O71260   8.887   2.168   6.488
23673WAT     H171261   8.855   2.261   6.469
23673WAT     H271262   8.882   2.114   6.404
23674WAT      O71263   5.788   8.053   7.156
23674WAT     H171264   5.733   8.136   7.157
23674WAT     H271265   5.884   8.076   7.148
23675WAT      O71266   8.182   5.527   5.679
23675WAT     H171267   8.280   5.534   5.657
23675WAT     H271268   8.158   5.431   5.694
23676WAT      O71269   6.369   1.109   4.574
23676WAT     H171270   6.395   1.130   4.480
23676WAT     H271271   6.345   1.012   4.580
23677WAT      O71272   1.001   6.771   4.199
23677WAT     H171273   1.027   6.717   4.279
23677WAT     H271274   0.912   6.738   4.165
23678WAT      O71275   2.699   0.889   0.238
23678WAT     H171276   2.773   0.854   0.295
23678WAT     H271277   2.631   0.817   0.224
23679WAT      O71278   7.586   3.590   7.249
23679WAT     H171279   7.597   3.648   7.330
23679WAT     H271280   7.491   3.594   7.218
23680WAT      O71281   9.013   3.144   5.026
23680WAT     H171282   8.931   3.089   5.019
23680WAT     H271283   9.093   3.085   5.036
23681WAT      O71284   1.072   3.674   2.885
23681WAT     H171285   1.137   3.747   2.904
23681WAT     H271286   1.008   3.705   2.814
23682WAT      O71287   0.264   5.579   7.112
23682WAT     H171288   0.196   5.526   7.062
23682WAT     H271289   0.230   5.599   7.203
23683WAT      O71290   3.238   7.717   4.105
23683WAT     H171291   3.205   7.708   4.199
23683WAT     H271292   3.179   7.780   4.054
23684WAT      O71293   3.912   4.493   4.806
23684WAT     H171294   3.964   4.574   4.835
23684WAT     H271295   3.959   4.447   4.731
23685WAT      O71296   2.986   9.452   1.735
23685WAT     H171297   3.043   9.381   1.774
23685WAT     H271298   2.992   9.535   1.790
23686WAT      O71299   1.136   4.410   7.742
23686WAT     H171300   1.143   4.323   7.694
23686WAT     H271301   1.096   4.479   7.681
23687WAT      O71302   9.810   1.509   9.115
23687WAT     H171303   9.720   1.538   9.148
23687WAT     H271304   9.879   1.578   9.141
23688WAT      O71305   9.126   4.238   9.527
23688WAT     H171306   9.070   4.164   9.565
23688WAT     H271307   9.093   4.262   9.436
23689WAT      O71308   4.740   7.101   7.013
23689WAT     H171309   4.732   7.102   6.914
23689WAT     H271310   4.817   7.159   7.041
23690WAT      O71311   4.035   3.753   4.949
23690WAT     H171312   4.094   3.831   4.970
23690WAT     H271313   4.070   3.706   4.868
23691WAT      O71314   5.367   0.746   1.925
23691WAT     H171315   5.407   0.838   1.916
23691WAT     H271316   5.317   0.740   2.011
23692WAT      O71317   5.419   6.314   8.155
23692WAT     H171318   5.350   6.369   8.107
23692WAT     H271319   5.509   6.357   8.144
23693WAT      O71320   8.971   4.115   4.724
23693WAT     H171321   8.981   4.172   4.805
23693WAT     H271322   9.008   4.024   4.742
23694WAT      O71323   0.176   3.232   7.707
23694WAT     H171324   0.103   3.172   7.739
23694WAT     H271325   0.199   3.210   7.612
23695WAT      O71326   1.579   9.712   8.674
23695WAT     H171327   1.581   9.740   8.578
23695WAT     H271328   1.552   9.616   8.679
23696WAT      O71329   0.292   3.984   1.866
23696WAT     H171330   0.359   3.920   1.903
23696WAT     H271331   0.313   4.002   1.770
23697WAT      O71332   4.957   5.714   3.981
23697WAT     H171333   4.875   5.745   3.931
23697WAT     H271334   4.929   5.659   4.060
23698WAT      O71335   3.844   8.802   1.314
23698WAT     H171336   3.917   8.766   1.372
23698WAT     H271337   3.776   8.848   1.371
23699WAT      O71338   6.195   2.079   1.372
23699WAT     H171339   6.138   2.015   1.423
23699WAT     H271340   6.142   2.161   1.351
23700WAT      O71341   0.098   1.265   2.781
23700WAT     H171342   0.099   1.355   2.826
23700WAT     H271343   0.006   1.227   2.787
23701WAT      O71344   7.591   4.770   3.330
23701WAT     H171345   7.643   4.708   3.389
23701WAT     H271346   7.501   4.730   3.311
23702WAT      O71347   4.580   4.448   8.181
23702WAT     H171348   4.495   4.409   8.145
23702WAT     H271349   4.590   4.421   8.276
23703WAT      O71350   4.823   7.059   0.206
23703WAT     H171351   4.900   7.020   0.156
23703WAT     H271352   4.857   7.124   0.274
23704WAT      O71353   7.165   1.439   9.428
23704WAT     H171354   7.249   1.450   9.376
23704WAT     H271355   7.153   1.342   9.452
23705WAT      O71356   3.423   5.756   4.347
23705WAT     H171357   3.469   5.735   4.433
23705WAT     H271358   3.338   5.703   4.341
23706WAT      O71359   4.883   6.162   0.318
23706WAT     H171360   4.876   6.248   0.268
23706WAT     H271361   4.972   6.155   0.362
23707WAT      O71362   7.447   0.117   0.700
23707WAT     H171363   7.378   0.074   0.642
23707WAT     H271364   7.411   0.129   0.792
23708WAT      O71365   5.140   6.870   9.202
23708WAT     H171366   5.043   6.884   9.218
23708WAT     H271367   5.154   6.783   9.155
23709WAT      O71368   4.197   0.446   3.138
23709WAT     H171369   4.099   0.438   3.158
23709WAT     H271370   4.233   0.355   3.115
23710WAT      O71371   8.467   4.306   6.934
23710WAT     H171372   8.391   4.333   6.875
23710WAT     H271373   8.463   4.208   6.953
23711WAT      O71374   2.357   1.403   6.379
23711WAT     H171375   2.336   1.445   6.290
23711WAT     H271376   2.380   1.474   6.445
23712WAT      O71377   1.896   4.137   6.003
23712WAT     H171378   1.875   4.233   6.017
23712WAT     H271379   1.928   4.123   5.909
23713WAT      O71380   4.963   7.971   9.099
23713WAT     H171381   4.915   7.921   9.172
23713WAT     H271382   4.904   7.974   9.018
23714WAT      O71383   8.184   9.510   8.689
23714WAT     H171384   8.131   9.498   8.606
23714WAT     H271385   8.276   9.473   8.677
23715WAT      O71386   9.419   3.234   6.719
23715WAT     H171387   9.360   3.306   6.753
23715WAT     H271388   9.364   3.161   6.678
23716WAT      O71389   2.494   8.372   8.828
23716WAT     H171390   2.548   8.300   8.874
23716WAT     H271391   2.551   8.416   8.759
23717WAT      O71392   6.842   7.578   4.805
23717WAT     H171393   6.829   7.647   4.875
23717WAT     H271394   6.906   7.508   4.838
23718WAT      O71395   9.710   2.946   1.779
23718WAT     H171396   9.793   2.897   1.756
23718WAT     H271397   9.631   2.887   1.765
23719WAT      O71398   8.493   9.022   8.028
23719WAT     H171399   8.582   8.975   8.028
23719WAT     H271400   8.423   8.959   8.061
23720WAT      O71401   8.179   7.610   3.036
23720WAT     H171402   8.090   7.655   3.047
23720WAT     H271403   8.247   7.657   3.092
23721WAT      O71404   5.517   2.777   0.668
23721WAT     H171405   5.548   2.703   0.727
23721WAT     H271406   5.419   2.791   0.681
23722WAT      O71407   9.202   7.226   2.716
23722WAT     H171408   9.173   7.272   2.633
23722WAT     H271409   9.137   7.153   2.738
23723WAT      O71410   2.995   6.877   2.085
23723WAT     H171411   3.079   6.885   2.031
23723WAT     H271412   2.930   6.819   2.036
23724WAT      O71413   8.228   1.871   6.569
23724WAT     H171414   8.262   1.960   6.539
23724WAT     H271415   8.287   1.799   6.533
23725WAT      O71416   5.223   4.794   1.327
23725WAT     H171417   5.129   4.769   1.347
23725WAT     H271418   5.233   4.812   1.229
23726WAT      O71419   4.963   6.266   0.830
23726WAT     H171420   4.957   6.356   0.787
23726WAT     H271421   4.913   6.199   0.774
23727WAT      O71422   8.427   6.221   6.372
23727WAT     H171423   8.433   6.137   6.424
23727WAT     H271424   8.383   6.292   6.427
23728WAT      O71425   3.303   5.457   1.290
23728WAT     H171426   3.239   5.396   1.337
23728WAT     H271427   3.373   5.403   1.244
23729WAT      O71428   9.603   0.278   2.070
23729WAT     H171429   9.562   0.344   2.007
23729WAT     H271430   9.536   0.208   2.094
23730WAT      O71431   6.420   4.244   5.972
23730WAT     H171432   6.480   4.168   5.952
23730WAT     H271433   6.462   4.302   6.043
23731WAT      O71434   8.916   6.259   0.982
23731WAT     H171435   8.840   6.201   0.952
23731WAT     H271436   8.880   6.340   1.029
23732WAT      O71437   3.676   1.657   6.928
23732WAT     H171438   3.620   1.713   6.867
23732WAT     H271439   3.750   1.713   6.966
23733WAT      O71440   3.003   5.865   2.346
23733WAT     H171441   2.942   5.787   2.356
23733WAT     H271442   3.006   5.916   2.433
23734WAT      O71443   0.458   3.527   4.881
23734WAT     H171444   0.501   3.617   4.872
23734WAT     H271445   0.522   3.456   4.851
23735WAT      O71446   5.498   9.363   7.860
23735WAT     H171447   5.560   9.386   7.784
23735WAT     H271448   5.550   9.363   7.946
23736WAT      O71449   0.019   3.403   6.217
23736WAT     H171450   0.077   3.434   6.142
23736WAT     H271451  -0.077   3.408   6.190
23737WAT      O71452   3.109   3.644   6.713
23737WAT     H171453   3.011   3.637   6.732
23737WAT     H271454   3.123   3.695   6.628
23738WAT      O71455   7.515   6.521   2.172
23738WAT     H171456   7.606   6.552   2.146
23738WAT     H271457   7.449   6.595   2.159
23739WAT      O71458   0.143   2.138   5.784
23739WAT     H171459   0.189   2.049   5.785
23739WAT     H271460   0.143   2.175   5.691
23740WAT      O71461   8.874   2.740   5.372
23740WAT     H171462   8.948   2.763   5.437
23740WAT     H271463   8.790   2.787   5.400
23741WAT      O71464   7.510   4.071   6.495
23741WAT     H171465   7.506   3.994   6.558
23741WAT     H271466   7.566   4.047   6.416
23742WAT      O71467   8.381   3.051   5.371
23742WAT     H171468   8.434   2.966   5.372
23742WAT     H271469   8.396   3.101   5.456
23743WAT      O71470   6.198   7.430   2.933
23743WAT     H171471   6.119   7.452   2.990
23743WAT     H271472   6.197   7.489   2.851
23744WAT      O71473   7.911   9.384   7.210
23744WAT     H171474   7.928   9.424   7.120
23744WAT     H271475   7.998   9.354   7.250
23745WAT      O71476   4.827   1.208   0.310
23745WAT     H171477   4.913   1.228   0.357
23745WAT     H271478   4.806   1.281   0.245
23746WAT      O71479   8.796   8.752   7.245
23746WAT     H171480   8.767   8.845   7.224
23746WAT     H271481   8.856   8.719   7.171
23747WAT      O71482   7.861   5.398   5.611
23747WAT     H171483   7.955   5.383   5.643
23747WAT     H271484   7.809   5.314   5.618
23748WAT      O71485   8.784   1.752   1.578
23748WAT     H171486   8.798   1.795   1.667
23748WAT     H271487   8.857   1.782   1.516
23749WAT      O71488   9.495   7.753   7.205
23749WAT     H171489   9.533   7.672   7.161
23749WAT     H271490   9.395   7.748   7.205
23750WAT      O71491   0.025   5.667   8.271
23750WAT     H171492   0.117   5.677   8.232
23750WAT     H271493   0.015   5.726   8.350
23751WAT      O71494   0.133   6.822   5.664
23751WAT     H171495   0.054   6.780   5.708
23751WAT     H271496   0.108   6.853   5.573
23752WAT      O71497   1.472   5.149   7.710
23752WAT     H171498   1.410   5.228   7.717
23752WAT     H271499   1.566   5.180   7.699
23753WAT      O71500   0.382   7.405   0.899
23753WAT     H171501   0.336   7.426   0.985
23753WAT     H271502   0.317   7.361   0.837
23754WAT      O71503   1.730   2.104   7.891
23754WAT     H171504   1.812   2.107   7.949
23754WAT     H271505   1.755   2.071   7.800
23755WAT      O71506   9.629   0.076   9.239
23755WAT     H171507   9.557   0.082   9.308
23755WAT     H271508   9.606   0.137   9.163
23756WAT      O71509   3.142   9.633   3.391
23756WAT     H171510   3.172   9.719   3.350
23756WAT     H271511   3.091   9.580   3.323
23757WAT      O71512   2.164   8.737   8.781
23757WAT     H171513   2.227   8.784   8.719
23757WAT     H271514   2.164   8.782   8.870
23758WAT      O71515   6.300   7.521   7.349
23758WAT     H171516   6.353   7.439   7.329
23758WAT     H271517   6.299   7.536   7.448
23759WAT      O71518   4.740   6.736   6.227
23759WAT     H171519   4.836   6.739   6.254
23759WAT     H271520   4.703   6.829   6.229
23760WAT      O71521   4.937   4.325   8.405
23760WAT     H171522   4.889   4.376   8.334
23760WAT     H271523   4.944   4.229   8.377
23761WAT      O71524   2.080   4.571   9.211
23761WAT     H171525   2.011   4.598   9.143
23761WAT     H271526   2.169   4.606   9.184
23762WAT      O71527   1.315   6.790   9.803
23762WAT     H171528   1.408   6.757   9.791
23762WAT     H271529   1.251   6.712   9.800
23763WAT      O71530   1.170   2.958   5.599
23763WAT     H171531   1.263   2.994   5.611
23763WAT     H271532   1.148   2.955   5.502
23764WAT      O71533   8.234   4.788   0.502
23764WAT     H171534   8.215   4.799   0.404
23764WAT     H271535   8.319   4.736   0.513
23765WAT      O71536   5.773   1.811   6.897
23765WAT     H171537   5.791   1.863   6.981
23765WAT     H271538   5.695   1.850   6.849
23766WAT      O71539   3.816   0.173   5.725
23766WAT     H171540   3.849   0.265   5.703
23766WAT     H271541   3.751   0.179   5.801
23767WAT      O71542   8.949   7.608   7.062
23767WAT     H171543   8.983   7.533   7.006
23767WAT     H271544   9.003   7.614   7.146
23768WAT      O71545   7.428   3.012   3.824
23768WAT     H171546   7.407   2.925   3.781
23768WAT     H271547   7.521   3.040   3.800
23769WAT      O71548   8.614   8.572   3.153
23769WAT     H171549   8.620   8.580   3.253
23769WAT     H271550   8.593   8.478   3.128
23770WAT      O71551   9.209   5.365   5.580
23770WAT     H171552   9.116   5.401   5.586
23770WAT     H271553   9.257   5.383   5.666
23771WAT      O71554   7.671   4.666   2.050
23771WAT     H171555   7.661   4.765   2.037
23771WAT     H271556   7.709   4.625   1.967
23772WAT      O71557   5.659   3.531   5.506
23772WAT     H171558   5.635   3.548   5.601
23772WAT     H271559   5.673   3.618   5.458
23773WAT      O71560   0.621   6.971   0.269
23773WAT     H171561   0.586   6.918   0.346
23773WAT     H271562   0.696   7.029   0.301
23774WAT      O71563   3.159   8.719   0.217
23774WAT     H171564   3.231   8.787   0.207
23774WAT     H271565   3.099   8.720   0.137
23775WAT      O71566   9.040   0.915   0.055
23775WAT     H171567   9.063   0.830   0.008
23775WAT     H271568   9.096   0.989   0.017
23776WAT      O71569   1.692   4.776   6.057
23776WAT     H171570   1.607   4.806   6.013
23776WAT     H271571   1.698   4.676   6.053
23777WAT      O71572   7.452   8.356   1.950
23777WAT     H171573   7.393   8.429   1.914
23777WAT     H271574   7.451   8.358   2.050
23778WAT      O71575   1.113   7.876   4.556
23778WAT     H171576   1.054   7.894   4.478
23778WAT     H271577   1.065   7.817   4.621
23779WAT      O71578   5.985   2.547   4.003
23779WAT     H171579   6.066   2.493   3.978
23779WAT     H271580   5.970   2.540   4.101
23780WAT      O71581   2.000   3.642   9.043
23780WAT     H171582   1.954   3.622   8.957
23780WAT     H271583   1.979   3.736   9.070
23781WAT      O71584   2.042   6.186   3.562
23781WAT     H171585   2.017   6.282   3.550
23781WAT     H271586   1.963   6.136   3.597
23782WAT      O71587   6.014   4.385   2.413
23782WAT     H171588   6.045   4.396   2.318
23782WAT     H271589   6.050   4.461   2.468
23783WAT      O71590   6.566   6.582   8.058
23783WAT     H171591   6.625   6.640   8.114
23783WAT     H271592   6.623   6.527   7.996
23784WAT      O71593   9.735   3.422   2.301
23784WAT     H171594   9.766   3.376   2.217
23784WAT     H271595   9.789   3.389   2.378
23785WAT      O71596   4.660   8.713   2.424
23785WAT     H171597   4.600   8.682   2.350
23785WAT     H271598   4.608   8.717   2.510
23786WAT      O71599   6.696   3.730   7.075
23786WAT     H171600   6.635   3.800   7.038
23786WAT     H271601   6.694   3.732   7.175
23787WAT      O71602   2.242   8.567   8.142
23787WAT     H171603   2.307   8.520   8.081
23787WAT     H271604   2.191   8.499   8.195
23788WAT      O71605   1.390   0.844   2.658
23788WAT     H171606   1.340   0.903   2.722
23788WAT     H271607   1.423   0.899   2.582
23789WAT      O71608   3.086   9.745   4.081
23789WAT     H171609   3.160   9.677   4.087
23789WAT     H271610   3.093   9.793   3.994
23790WAT      O71611   8.005   8.210   1.624
23790WAT     H171612   8.087   8.229   1.569
23790WAT     H271613   8.023   8.231   1.720
23791WAT      O71614   1.529   1.737   0.827
23791WAT     H171615   1.507   1.788   0.910
23791WAT     H271616   1.444   1.702   0.786
23792WAT      O71617   7.126   7.633   8.110
23792WAT     H171618   7.184   7.583   8.174
23792WAT     H271619   7.183   7.684   8.045
23793WAT      O71620   0.445   2.986   4.080
23793WAT     H171621   0.451   3.081   4.049
23793WAT     H271622   0.507   2.972   4.158
23794WAT      O71623   0.553   6.477   1.043
23794WAT     H171624   0.577   6.420   1.121
23794WAT     H271625   0.613   6.557   1.040
23795WAT      O71626   4.223   1.479   1.026
23795WAT     H171627   4.230   1.513   1.120
23795WAT     H271628   4.127   1.478   0.998
23796WAT      O71629   9.482   7.528   2.651
23796WAT     H171630   9.520   7.469   2.722
23796WAT     H271631   9.550   7.596   2.623
23797WAT      O71632   3.516   1.162   7.470
23797WAT     H171633   3.526   1.068   7.504
23797WAT     H271634   3.559   1.170   7.381
23798WAT      O71635   1.934   6.574   5.896
23798WAT     H171636   1.868   6.600   5.967
23798WAT     H271637   1.908   6.486   5.858
23799WAT      O71638   9.114   5.264   9.735
23799WAT     H171639   9.059   5.184   9.760
23799WAT     H271640   9.054   5.342   9.719
23800WAT      O71641   0.848   9.820   5.353
23800WAT     H171642   0.783   9.896   5.352
23800WAT     H271643   0.806   9.740   5.310
23801WAT      O71644   3.528   6.976   1.958
23801WAT     H171645   3.580   6.890   1.952
23801WAT     H271646   3.581   7.050   1.916
23802WAT      O71647   6.116   2.017   5.788
23802WAT     H171648   6.112   2.025   5.688
23802WAT     H271649   6.212   2.010   5.817
23803WAT      O71650   9.029   5.838   0.575
23803WAT     H171651   9.123   5.805   0.571
23803WAT     H271652   9.020   5.921   0.519
23804WAT      O71653   9.530   0.252   8.674
23804WAT     H171654   9.430   0.257   8.669
23804WAT     H271655   9.561   0.302   8.755
23805WAT      O71656   5.397   7.118   1.126
23805WAT     H171657   5.439   7.154   1.043
23805WAT     H271658   5.340   7.039   1.103
23806WAT      O71659   3.161   5.265   4.526
23806WAT     H171660   3.171   5.314   4.612
23806WAT     H271661   3.074   5.216   4.524
23807WAT      O71662   5.030   4.435   0.325
23807WAT     H171663   5.117   4.406   0.284
23807WAT     H271664   5.049   4.495   0.403
23808WAT      O71665   1.363   8.583   2.241
23808WAT     H171666   1.327   8.674   2.263
23808WAT     H271667   1.456   8.592   2.205
23809WAT      O71668   3.083   3.936   3.621
23809WAT     H171669   3.166   3.991   3.607
23809WAT     H271670   3.073   3.914   3.718
23810WAT      O71671   0.194   1.092   3.807
23810WAT     H171672   0.110   1.145   3.810
23810WAT     H271673   0.266   1.140   3.857
23811WAT      O71674   7.446   9.691   1.161
23811WAT     H171675   7.434   9.745   1.077
23811WAT     H271676   7.407   9.741   1.238
23812WAT      O71677   0.388   2.247   0.407
23812WAT     H171678   0.450   2.282   0.337
23812WAT     H271679   0.294   2.263   0.379
23813WAT      O71680   4.371   9.027   5.648
23813WAT     H171681   4.354   8.941   5.601
23813WAT     H271682   4.457   9.066   5.616
23814WAT      O71683   5.597   6.584   1.681
23814WAT     H171684   5.695   6.563   1.675
23814WAT     H271685   5.559   6.593   1.590
23815WAT      O71686   1.093   3.609   5.744
23815WAT     H171687   1.025   3.677   5.774
23815WAT     H271688   1.076   3.522   5.791
23816WAT      O71689   1.811   2.418   5.566
23816WAT     H171690   1.877   2.470   5.513
23816WAT     H271691   1.724   2.413   5.516
23817WAT      O71692   8.838   7.644   9.545
23817WAT     H171693   8.746   7.614   9.519
23817WAT     H271694   8.889   7.672   9.464
23818WAT      O71695   8.026   4.784   2.009
23818WAT     H171696   8.100   4.828   2.059
23818WAT     H271697   7.984   4.713   2.066
23819WAT      O71698   4.317   4.971   9.525
23819WAT     H171699   4.337   5.062   9.489
23819WAT     H271700   4.400   4.934   9.567
23820WAT      O71701   9.728   3.789   9.344
23820WAT     H171702   9.685   3.707   9.306
23820WAT     H271703   9.701   3.868   9.290
23821WAT      O71704   3.289   9.458   8.295
23821WAT     H171705   3.305   9.436   8.199
23821WAT     H271706   3.237   9.543   8.301
23822WAT      O71707   8.068   9.767   2.420
23822WAT     H171708   7.982   9.811   2.396
23822WAT     H271709   8.077   9.761   2.519
23823WAT      O71710   9.018   2.798   1.801
23823WAT     H171711   9.025   2.837   1.709
23823WAT     H271712   8.944   2.843   1.850
23824WAT      O71713   7.789   0.934   2.871
23824WAT     H171714   7.804   0.838   2.894
23824WAT     H271715   7.691   0.954   2.871
23825WAT      O71716   5.832   5.738   2.855
23825WAT     H171717   5.916   5.684   2.849
23825WAT     H271718   5.753   5.677   2.849
23826WAT      O71719   4.108   1.603   7.537
23826WAT     H171720   4.132   1.579   7.631
23826WAT     H271721   4.128   1.526   7.477
23827WAT      O71722   0.178   1.286   1.975
23827WAT     H171723   0.170   1.190   1.949
23827WAT     H271724   0.092   1.334   1.956
23828WAT      O71725   2.446   1.277   1.135
23828WAT     H171726   2.407   1.322   1.215
23828WAT     H271727   2.372   1.234   1.082
23829WAT      O71728   2.670   8.480   8.622
23829WAT     H171729   2.702   8.556   8.679
23829WAT     H271730   2.748   8.440   8.574
23830WAT      O71731   6.138   3.689   8.150
23830WAT     H171732   6.193   3.632   8.090
23830WAT     H271733   6.172   3.683   8.244
23831WAT      O71734   2.983   0.158   7.855
23831WAT     H171735   2.941   0.142   7.944
23831WAT     H271736   2.924   0.122   7.783
23832WAT      O71737   5.319   3.111   3.494
23832WAT     H171738   5.309   3.037   3.561
23832WAT     H271739   5.389   3.087   3.428
23833WAT      O71740   0.414   4.911   8.927
23833WAT     H171741   0.397   4.996   8.876
23833WAT     H271742   0.331   4.856   8.929
23834WAT      O71743   1.642   7.464   2.663
23834WAT     H171744   1.728   7.505   2.634
23834WAT     H271745   1.568   7.532   2.654
23835WAT      O71746   8.028   0.041   8.344
23835WAT     H171747   7.972  -0.041   8.359
23835WAT     H271748   7.974   0.122   8.366
23836WAT      O71749   6.781   5.275   1.963
23836WAT     H171750   6.845   5.238   1.895
23836WAT     H271751   6.729   5.199   2.004
23837WAT      O71752   7.278   4.967   1.574
23837WAT     H171753   7.345   4.938   1.505
23837WAT     H271754   7.199   5.008   1.528
23838WAT      O71755   7.902   4.217   7.981
23838WAT     H171756   7.837   4.273   7.930
23838WAT     H271757   7.993   4.257   7.975
23839WAT      O71758   7.259   5.915   0.318
23839WAT     H171759   7.254   5.954   0.410
23839WAT     H271760   7.175   5.937   0.268
23840WAT      O71761   7.644   5.895   9.808
23840WAT     H171762   7.630   5.943   9.895
23840WAT     H271763   7.558   5.854   9.778
23841WAT      O71764   0.511   7.545   8.829
23841WAT     H171765   0.541   7.592   8.911
23841WAT     H271766   0.548   7.592   8.748
23842WAT      O71767   8.921   8.977   6.340
23842WAT     H171768   8.932   9.076   6.347
23842WAT     H271769   8.827   8.956   6.314
23843WAT      O71770   4.399   8.176   2.173
23843WAT     H171771   4.346   8.172   2.258
23843WAT     H271772   4.482   8.123   2.182
23844WAT      O71773   2.831   7.898   0.739
23844WAT     H171774   2.737   7.873   0.714
23844WAT     H271775   2.877   7.937   0.660
23845WAT      O71776   8.910   2.440   3.509
23845WAT     H171777   8.909   2.530   3.552
23845WAT     H271778   8.831   2.431   3.448
23846WAT      O71779   9.849   7.325   6.113
23846WAT     H171780   9.832   7.248   6.052
23846WAT     H271781   9.843   7.294   6.208
23847WAT      O71782   8.470   6.040   9.398
23847WAT     H171783   8.492   5.943   9.394
23847WAT     H271784   8.470   6.071   9.493
23848WAT      O71785   4.705   3.297   0.681
23848WAT     H171786   4.651   3.375   0.712
23848WAT     H271787   4.713   3.300   0.581
23849WAT      O71788   6.950   0.222   5.486
23849WAT     H171789   6.979   0.128   5.504
23849WAT     H271790   6.879   0.248   5.552
23850WAT      O71791   4.947   1.502   1.780
23850WAT     H171792   4.997   1.587   1.797
23850WAT     H271793   4.876   1.490   1.849
23851WAT      O71794   7.060   6.288   0.689
23851WAT     H171795   7.111   6.227   0.628
23851WAT     H271796   7.024   6.235   0.767
23852WAT      O71797   2.141   7.328   6.480
23852WAT     H171798   2.192   7.244   6.461
23852WAT     H271799   2.112   7.370   6.394
23853WAT      O71800   0.081   7.024   9.789
23853WAT     H171801   0.066   7.101   9.727
23853WAT     H271802   0.027   6.945   9.758
23854WAT      O71803   1.026   4.864   7.832
23854WAT     H171804   1.103   4.829   7.779
23854WAT     H271805   0.981   4.937   7.780
23855WAT      O71806   0.320   0.627   2.042
23855WAT     H171807   0.333   0.665   1.950
23855WAT     H271808   0.235   0.662   2.081
23856WAT      O71809   8.542   6.137   9.646
23856WAT     H171810   8.573   6.232   9.649
23856WAT     H271811   8.622   6.077   9.636
23857WAT      O71812   7.318   5.165   2.435
23857WAT     H171813   7.265   5.249   2.420
23857WAT     H271814   7.415   5.183   2.418
23858WAT      O71815   2.715   8.959   0.732
23858WAT     H171816   2.747   8.904   0.655
23858WAT     H271817   2.781   8.953   0.807
23859WAT      O71818   1.997   7.706   5.303
23859WAT     H171819   2.039   7.618   5.281
23859WAT     H271820   1.941   7.735   5.225
23860WAT      O71821   0.540   8.160   8.352
23860WAT     H171822   0.526   8.069   8.313
23860WAT     H271823   0.515   8.229   8.284
23861WAT      O71824   2.933   2.954   3.557
23861WAT     H171825   2.955   2.986   3.464
23861WAT     H271826   2.868   3.018   3.599
23862WAT      O71827   1.117   3.686   6.511
23862WAT     H171828   1.138   3.774   6.553
23862WAT     H271829   1.029   3.652   6.546
23863WAT      O71830   1.219   3.841   5.163
23863WAT     H171831   1.163   3.774   5.212
23863WAT     H271832   1.265   3.901   5.229
23864WAT      O71833   5.558   4.933   3.041
23864WAT     H171834   5.626   4.919   3.113
23864WAT     H271835   5.474   4.884   3.065
23865WAT      O71836   3.554   8.931   4.839
23865WAT     H171837   3.539   8.833   4.834
23865WAT     H271838   3.610   8.960   4.761
23866WAT      O71839   3.437   5.180   0.647
23866WAT     H171840   3.452   5.103   0.709
23866WAT     H271841   3.358   5.160   0.589
23867WAT      O71842   0.875   4.036   9.136
23867WAT     H171843   0.959   3.990   9.108
23867WAT     H271844   0.798   3.998   9.084
23868WAT      O71845   8.958   3.775   8.549
23868WAT     H171846   9.044   3.800   8.505
23868WAT     H271847   8.908   3.857   8.573
23869WAT      O71848   4.660   7.159   1.947
23869WAT     H171849   4.595   7.212   1.891
23869WAT     H271850   4.623   7.148   2.039
23870WAT      O71851   8.536   6.357   6.175
23870WAT     H171852   8.625   6.315   6.154
23870WAT     H271853   8.490   6.304   6.246
23871WAT      O71854   9.727   4.846   7.582
23871WAT     H171855   9.821   4.818   7.563
23871WAT     H271856   9.670   4.766   7.600
23872WAT      O71857   5.760   9.778   4.218
23872WAT     H171858   5.769   9.777   4.318
23872WAT     H271859   5.696   9.850   4.191
23873WAT      O71860   3.406   4.915   6.838
23873WAT     H171861   3.502   4.942   6.840
23873WAT     H271862   3.386   4.868   6.752
23874WAT      O71863   9.147   7.012   9.761
23874WAT     H171864   9.196   7.094   9.730
23874WAT     H271865   9.053   7.036   9.784
23875WAT      O71866   2.428   0.536   3.597
23875WAT     H171867   2.423   0.508   3.693
23875WAT     H271868   2.493   0.478   3.548
23876WAT      O71869   8.534   5.081   4.900
23876WAT     H171870   8.553   5.154   4.834
23876WAT     H271871   8.616   5.063   4.954
23877WAT      O71872   5.715   7.360   2.935
23877WAT     H171873   5.787   7.376   3.003
23877WAT     H271874   5.757   7.344   2.846
23878WAT      O71875   8.866   3.409   2.198
23878WAT     H171876   8.853   3.392   2.100
23878WAT     H271877   8.780   3.439   2.238
23879WAT      O71878   8.221   8.952   2.005
23879WAT     H171879   8.155   8.887   1.968
23879WAT     H271880   8.205   9.042   1.964
23880WAT      O71881   3.260   3.436   7.249
23880WAT     H171882   3.248   3.358   7.188
23880WAT     H271883   3.171   3.472   7.276
23881WAT      O71884   9.852   7.432   1.283
23881WAT     H171885   9.843   7.500   1.356
23881WAT     H271886   9.871   7.343   1.324
23882WAT      O71887   4.208   2.942   9.127
23882WAT     H171888   4.130   2.888   9.160
23882WAT     H271889   4.267   2.883   9.071
23883WAT      O71890   6.746   1.866   8.068
23883WAT     H171891   6.716   1.904   8.156
23883WAT     H271892   6.742   1.766   8.072
23884WAT      O71893   8.538   9.547   5.069
23884WAT     H171894   8.482   9.488   5.127
23884WAT     H271895   8.578   9.494   4.995
23885WAT      O71896   7.936   0.120   1.677
23885WAT     H171897   7.913   0.211   1.643
23885WAT     H271898   7.949   0.124   1.776
23886WAT      O71899   2.359   8.641   1.032
23886WAT     H171900   2.280   8.625   0.972
23886WAT     H271901   2.332   8.699   1.108
23887WAT      O71902   4.605   5.594   4.628
23887WAT     H171903   4.653   5.508   4.644
23887WAT     H271904   4.655   5.647   4.559
23888WAT      O71905   2.961   5.141   1.546
23888WAT     H171906   2.927   5.219   1.598
23888WAT     H271907   2.938   5.056   1.594
23889WAT      O71908   8.698   4.530   0.629
23889WAT     H171909   8.747   4.546   0.714
23889WAT     H271910   8.757   4.480   0.565
23890WAT      O71911   6.905   0.502   8.318
23890WAT     H171912   6.863   0.431   8.375
23890WAT     H271913   6.998   0.519   8.348
23891WAT      O71914   2.317   1.425   4.029
23891WAT     H171915   2.414   1.437   4.050
23891WAT     H271916   2.263   1.439   4.112
23892WAT      O71917   7.374   4.255   9.177
23892WAT     H171918   7.348   4.238   9.082
23892WAT     H271919   7.378   4.354   9.193
23893WAT      O71920   5.972   3.638   2.731
23893WAT     H171921   6.066   3.651   2.761
23893WAT     H271922   5.911   3.636   2.810
23894WAT      O71923   2.052   5.410   5.642
23894WAT     H171924   2.088   5.504   5.643
23894WAT     H271925   2.064   5.369   5.732
23895WAT      O71926   0.516   4.882   4.837
23895WAT     H171927   0.462   4.839   4.910
23895WAT     H271928   0.602   4.832   4.825
23896WAT      O71929   7.641   0.284   5.235
23896WAT     H171930   7.672   0.292   5.140
23896WAT     H271931   7.541   0.285   5.237
23897WAT      O71932   3.565   2.911   0.289
23897WAT     H171933   3.560   2.831   0.230
23897WAT     H271934   3.475   2.954   0.295
23898WAT      O71935   7.583   1.805   1.742
23898WAT     H171936   7.572   1.716   1.786
23898WAT     H271937   7.672   1.844   1.768
23899WAT      O71938   0.650   0.010   1.614
23899WAT     H171939   0.616  -0.077   1.577
23899WAT     H271940   0.615   0.023   1.706
23900WAT      O71941   8.125   2.002   6.209
23900WAT     H171942   8.128   1.929   6.141
23900WAT     H271943   8.189   2.074   6.183
23901WAT      O71944   7.900   5.002   2.976
23901WAT     H171945   7.964   4.950   2.918
23901WAT     H271946   7.829   4.941   3.010
23902WAT      O71947   2.351   3.553   4.320
23902WAT     H171948   2.382   3.498   4.397
23902WAT     H271949   2.375   3.507   4.234
23903WAT      O71950   0.995   2.166   7.055
23903WAT     H171951   0.923   2.195   6.992
23903WAT     H271952   0.972   2.076   7.092
23904WAT      O71953   6.931   7.688   1.882
23904WAT     H171954   7.020   7.682   1.928
23904WAT     H271955   6.927   7.771   1.827
23905WAT      O71956   5.546   2.640   9.154
23905WAT     H171957   5.515   2.733   9.133
23905WAT     H271958   5.525   2.619   9.250
23906WAT      O71959   4.392   9.510   7.469
23906WAT     H171960   4.374   9.416   7.497
23906WAT     H271961   4.375   9.571   7.546
23907WAT      O71962   2.150   4.854   0.247
23907WAT     H171963   2.075   4.831   0.185
23907WAT     H271964   2.116   4.856   0.341
23908WAT      O71965   4.053   7.937   0.206
23908WAT     H171966   3.962   7.933   0.246
23908WAT     H271967   4.107   7.860   0.240
23909WAT      O71968   6.388   8.283   0.725
23909WAT     H171969   6.355   8.354   0.787
23909WAT     H271970   6.313   8.254   0.665
23910WAT      O71971   1.672   2.240   3.391
23910WAT     H171972   1.619   2.178   3.333
23910WAT     H271973   1.656   2.334   3.363
23911WAT      O71974   4.775   1.295   9.157
23911WAT     H171975   4.825   1.380   9.171
23911WAT     H271976   4.758   1.282   9.060
23912WAT      O71977   3.024   1.599   7.053
23912WAT     H171978   3.104   1.584   7.111
23912WAT     H271979   3.028   1.539   6.973
23913WAT      O71980   0.592   7.400   6.932
23913WAT     H171981   0.542   7.402   7.018
23913WAT     H271982   0.651   7.319   6.930
23914WAT      O71983   0.323   0.205   3.428
23914WAT     H171984   0.369   0.285   3.467
23914WAT     H271985   0.329   0.209   3.328
23915WAT      O71986   7.615   1.659   0.802
23915WAT     H171987   7.592   1.634   0.896
23915WAT     H271988   7.630   1.577   0.747
23916WAT      O71989   4.997   0.273   0.491
23916WAT     H171990   4.997   0.330   0.409
23916WAT     H271991   4.990   0.330   0.572
23917WAT      O71992   6.351   7.973   7.280
23917WAT     H171993   6.359   7.903   7.210
23917WAT     H271994   6.430   8.035   7.274
23918WAT      O71995   2.067   3.664   1.719
23918WAT     H171996   2.015   3.700   1.796
23918WAT     H271997   2.004   3.645   1.643
23919WAT      O71998   8.152   3.649   9.103
23919WAT     H171999   8.068   3.602   9.075
23919WAT     H272000   8.188   3.605   9.186
23920WAT      O72001   6.456   6.404   2.482
23920WAT     H172002   6.411   6.375   2.567
23920WAT     H272003   6.555   6.395   2.492
23921WAT      O72004   2.021   4.772   2.781
23921WAT     H172005   2.084   4.817   2.718
23921WAT     H272006   1.927   4.798   2.759
23922WAT      O72007   9.800   7.674   4.395
23922WAT     H172008   9.892   7.709   4.382
23922WAT     H272009   9.743   7.701   4.317
23923WAT      O72010   1.659   3.152   6.550
23923WAT     H172011   1.729   3.085   6.526
23923WAT     H272012   1.668   3.233   6.492
23924WAT      O72013   1.165   2.496   1.261
23924WAT     H172014   1.069   2.492   1.233
23924WAT     H272015   1.211   2.410   1.239
23925WAT      O72016   1.543   9.210   8.605
23925WAT     H172017   1.516   9.283   8.668
23925WAT     H272018   1.508   9.123   8.637
23926WAT      O72019   8.978   4.654   1.370
23926WAT     H172020   8.988   4.600   1.286
23926WAT     H272021   8.882   4.655   1.398
23927WAT      O72022   3.773   2.633   7.663
23927WAT     H172023   3.711   2.562   7.696
23927WAT     H272024   3.726   2.721   7.663
23928WAT      O72025   5.007   7.394   0.036
23928WAT     H172026   5.032   7.314   0.090
23928WAT     H272027   5.006   7.370  -0.061
23929WAT      O72028   8.347   3.304   1.893
23929WAT     H172029   8.250   3.326   1.888
23929WAT     H272030   8.367   3.224   1.837
23930WAT      O72031   3.957   1.821   5.457
23930WAT     H172032   3.988   1.738   5.411
23930WAT     H272033   3.954   1.896   5.391
23931WAT      O72034   0.267   6.907   1.920
23931WAT     H172035   0.325   6.934   1.843
23931WAT     H272036   0.304   6.947   2.004
23932WAT      O72037   0.338   2.948   0.055
23932WAT     H172038   0.266   2.956   0.124
23932WAT     H272039   0.312   3.002  -0.026
23933WAT      O72040   0.338   8.764   5.510
23933WAT     H172041   0.433   8.752   5.538
23933WAT     H272042   0.277   8.720   5.576
23934WAT      O72043   2.306   6.494   1.202
23934WAT     H172044   2.285   6.399   1.179
23934WAT     H272045   2.380   6.527   1.144
23935WAT      O72046   9.044   1.820   9.263
23935WAT     H172047   9.032   1.754   9.189
23935WAT     H272048   9.128   1.871   9.249
23936WAT      O72049   6.578   3.037   8.061
23936WAT     H172050   6.481   3.021   8.041
23936WAT     H272051   6.629   2.952   8.053
23937WAT      O72052   0.176   4.342   3.995
23937WAT     H172053   0.169   4.348   3.895
23937WAT     H272054   0.272   4.352   4.022
23938WAT      O72055   3.853   0.208   2.536
23938WAT     H172056   3.918   0.181   2.607
23938WAT     H272057   3.899   0.264   2.467
23939WAT      O72058   9.561   5.317   1.707
23939WAT     H172059   9.589   5.226   1.736
23939WAT     H272060   9.499   5.356   1.776
23940WAT      O72061   3.899   6.075   2.043
23940WAT     H172062   3.834   6.053   1.970
23940WAT     H272063   3.849   6.083   2.129
23941WAT      O72064   4.186   2.626   2.649
23941WAT     H172065   4.167   2.528   2.652
23941WAT     H272066   4.177   2.659   2.555
23942WAT      O72067   6.466   3.336   4.797
23942WAT     H172068   6.386   3.287   4.831
23942WAT     H272069   6.446   3.434   4.793
23943WAT      O72070   7.535   0.880   7.975
23943WAT     H172071   7.610   0.828   8.017
23943WAT     H272072   7.449   0.830   7.988
23944WAT      O72073   1.785   3.064   6.821
23944WAT     H172074   1.709   3.126   6.805
23944WAT     H272075   1.841   3.057   6.738
23945WAT      O72076   3.889   8.410   4.739
23945WAT     H172077   3.866   8.314   4.757
23945WAT     H272078   3.934   8.417   4.650
23946WAT      O72079   5.604   0.509   2.708
23946WAT     H172080   5.527   0.540   2.764
23946WAT     H272081   5.570   0.465   2.625
23947WAT      O72082   3.303   5.300   7.716
23947WAT     H172083   3.208   5.274   7.731
23947WAT     H272084   3.357   5.219   7.693
23948WAT      O72085   2.612   4.253   3.342
23948WAT     H172086   2.612   4.262   3.242
23948WAT     H272087   2.589   4.341   3.383
23949WAT      O72088   9.824   8.779   4.209
23949WAT     H172089   9.812   8.868   4.165
23949WAT     H272090   9.763   8.773   4.288
23950WAT      O72091   7.310   8.389   5.331
23950WAT     H172092   7.292   8.474   5.282
23950WAT     H272093   7.353   8.323   5.269
23951WAT      O72094   7.801   0.372   1.557
23951WAT     H172095   7.726   0.432   1.587
23951WAT     H272096   7.786   0.345   1.462
23952WAT      O72097   0.431   8.094   7.379
23952WAT     H172098   0.346   8.143   7.396
23952WAT     H272099   0.488   8.096   7.462
23953WAT      O72100   4.430   6.045   1.925
23953WAT     H172101   4.355   6.111   1.919
23953WAT     H272102   4.517   6.094   1.930
23954WAT      O72103   1.531   2.047   9.106
23954WAT     H172104   1.434   2.024   9.106
23954WAT     H272105   1.544   2.136   9.062
23955WAT      O72106   6.051   2.293   2.955
23955WAT     H172107   6.045   2.291   2.855
23955WAT     H272108   6.135   2.340   2.982
23956WAT      O72109   5.852   3.871   2.087
23956WAT     H172110   5.892   3.894   1.998
23956WAT     H272111   5.762   3.829   2.073
23957WAT      O72112   8.949   5.261   8.110
23957WAT     H172113   9.040   5.300   8.121
23957WAT     H272114   8.894   5.321   8.051
23958WAT      O72115   2.645   5.209   3.474
23958WAT     H172116   2.740   5.213   3.443
23958WAT     H272117   2.635   5.266   3.556
23959WAT      O72118   5.492   0.245   4.794
23959WAT     H172119   5.490   0.345   4.799
23959WAT     H272120   5.511   0.216   4.700
23960WAT      O72121   8.177   0.279   7.392
23960WAT     H172122   8.157   0.185   7.418
23960WAT     H272123   8.093   0.333   7.392
23961WAT      O72124   4.718   0.690   3.899
23961WAT     H172125   4.636   0.657   3.852
23961WAT     H272126   4.734   0.785   3.873
23962WAT      O72127   1.178   3.468   8.088
23962WAT     H172128   1.099   3.479   8.029
23962WAT     H272129   1.189   3.372   8.113
23963WAT      O72130   3.814   2.064   0.773
23963WAT     H172131   3.781   1.971   0.757
23963WAT     H272132   3.912   2.068   0.754
23964WAT      O72133   2.901   3.265   0.364
23964WAT     H172134   2.932   3.170   0.369
23964WAT     H272135   2.850   3.280   0.280
23965WAT      O72136   6.456   5.859   5.914
23965WAT     H172137   6.409   5.893   5.833
23965WAT     H272138   6.391   5.852   5.990
23966WAT      O72139   8.741   5.819   6.812
23966WAT     H172140   8.817   5.794   6.752
23966WAT     H272141   8.740   5.757   6.891
23967WAT      O72142   6.523   7.188   6.539
23967WAT     H172143   6.482   7.279   6.532
23967WAT     H272144   6.466   7.130   6.597
23968WAT      O72145   5.191   9.620   0.370
23968WAT     H172146   5.176   9.550   0.441
23968WAT     H272147   5.148   9.706   0.399
23969WAT      O72148   0.197   0.824   9.031
23969WAT     H172149   0.238   0.913   9.013
23969WAT     H272150   0.115   0.812   8.976
23970WAT      O72151   9.384   1.138   4.987
23970WAT     H172152   9.298   1.163   5.032
23970WAT     H272153   9.459   1.145   5.053
23971WAT      O72154   5.883   7.433   6.700
23971WAT     H172155   5.970   7.454   6.654
23971WAT     H272156   5.812   7.494   6.665
23972WAT      O72157   2.165   4.648   2.269
23972WAT     H172158   2.082   4.688   2.230
23972WAT     H272159   2.220   4.608   2.196
23973WAT      O72160   4.873   5.552   2.892
23973WAT     H172161   4.937   5.606   2.947
23973WAT     H272162   4.804   5.613   2.853
23974WAT      O72163   6.982   8.588   3.708
23974WAT     H172164   6.919   8.513   3.692
23974WAT     H272165   7.073   8.564   3.674
23975WAT      O72166   9.148   7.649   9.055
23975WAT     H172167   9.187   7.604   8.975
23975WAT     H272168   9.171   7.596   9.137
23976WAT      O72169   3.990   2.745   1.906
23976WAT     H172170   4.061   2.756   1.837
23976WAT     H272171   3.904   2.783   1.873
23977WAT      O72172   7.275   3.894   7.573
23977WAT     H172173   7.229   3.826   7.516
23977WAT     H272174   7.362   3.919   7.530
23978WAT      O72175   9.694   5.689   5.796
23978WAT     H172176   9.596   5.695   5.819
23978WAT     H272177   9.745   5.754   5.853
23979WAT      O72178   3.963   5.444   6.114
23979WAT     H172179   3.984   5.365   6.171
23979WAT     H272180   4.022   5.442   6.033
23980WAT      O72181   1.663   9.172   1.876
23980WAT     H172182   1.650   9.212   1.966
23980WAT     H272183   1.711   9.237   1.817
23981WAT      O72184   2.015   0.036   6.701
23981WAT     H172185   1.954   0.001   6.630
23981WAT     H272186   1.969   0.032   6.790
23982WAT      O72187   6.332   1.307   0.516
23982WAT     H172188   6.308   1.395   0.476
23982WAT     H272189   6.420   1.315   0.564
23983WAT      O72190   5.798   8.953   3.891
23983WAT     H172191   5.779   8.984   3.798
23983WAT     H272192   5.799   9.032   3.952
23984WAT      O72193   2.242   7.315   6.134
23984WAT     H172194   2.294   7.333   6.051
23984WAT     H272195   2.287   7.244   6.188
23985WAT      O72196   2.388   7.426   9.270
23985WAT     H172197   2.361   7.495   9.203
23985WAT     H272198   2.406   7.470   9.358
23986WAT      O72199   5.330   3.810   6.177
23986WAT     H172200   5.263   3.826   6.104
23986WAT     H272201   5.415   3.859   6.155
23987WAT      O72202   1.216   8.141   7.925
23987WAT     H172203   1.175   8.050   7.933
23987WAT     H272204   1.191   8.196   8.005
23988WAT      O72205   1.890   9.350   6.972
23988WAT     H172206   1.915   9.443   6.943
23988WAT     H272207   1.853   9.352   7.064
23989WAT      O72208   6.457   5.235   8.117
23989WAT     H172209   6.428   5.257   8.024
23989WAT     H272210   6.524   5.303   8.148
23990WAT      O72211   6.019   6.414   6.583
23990WAT     H172212   6.108   6.440   6.623
23990WAT     H272213   5.986   6.331   6.627
23991WAT      O72214   0.436   6.580   0.386
23991WAT     H172215   0.411   6.546   0.476
23991WAT     H272216   0.488   6.665   0.396
23992WAT      O72217   9.023   2.134   1.021
23992WAT     H172218   9.053   2.101   1.110
23992WAT     H272219   8.924   2.142   1.019
23993WAT      O72220   2.964   4.121   9.571
23993WAT     H172221   3.043   4.063   9.550
23993WAT     H272222   2.887   4.063   9.598
23994WAT      O72223   8.648   2.700   1.466
23994WAT     H172224   8.683   2.684   1.558
23994WAT     H272225   8.587   2.779   1.466
23995WAT      O72226   0.594   4.695   4.520
23995WAT     H172227   0.657   4.761   4.481
23995WAT     H272228   0.645   4.633   4.580
23996WAT      O72229   4.733   3.172   6.286
23996WAT     H172230   4.637   3.155   6.307
23996WAT     H272231   4.756   3.130   6.199
23997WAT      O72232   9.069   8.013   5.517
23997WAT     H172233   9.082   8.006   5.418
23997WAT     H272234   9.119   7.940   5.563
23998WAT      O72235   3.013   4.934   7.987
23998WAT     H172236   3.039   4.903   8.078
23998WAT     H272237   3.078   4.898   7.920
23999WAT      O72238   3.286   7.810   3.406
23999WAT     H172239   3.339   7.883   3.361
23999WAT     H272240   3.201   7.848   3.443
24000WAT      O72241   2.913   2.302   1.902
24000WAT     H172242   2.887   2.377   1.840
24000WAT     H272243   3.011   2.285   1.894
24001WAT      O72244   2.930   9.630   8.255
24001WAT     H172245   3.015   9.681   8.258
24001WAT     H272246   2.927   9.565   8.331
24002WAT      O72247   4.083   1.096   1.875
24002WAT     H172248   4.170   1.054   1.848
24002WAT     H272249   4.015   1.082   1.803
24003WAT      O72250   6.440   2.326   1.086
24003WAT     H172251   6.348   2.305   1.053
24003WAT     H272252   6.461   2.422   1.066
24004WAT      O72253   0.561   6.909   8.598
24004WAT     H172254   0.601   6.917   8.507
24004WAT     H272255   0.526   6.816   8.611
24005WAT      O72256   6.177   8.573   1.987
24005WAT     H172257   6.197   8.506   1.916
24005WAT     H272258   6.257   8.632   2.001
24006WAT      O72259   8.124   6.665   4.411
24006WAT     H172260   8.135   6.566   4.408
24006WAT     H272261   8.213   6.709   4.425
24007WAT      O72262   0.187   9.127   0.079
24007WAT     H172263   0.214   9.224   0.076
24007WAT     H272264   0.260   9.074   0.121
24008WAT      O72265   1.228   2.552   4.247
24008WAT     H172266   1.319   2.565   4.287
24008WAT     H272267   1.205   2.632   4.191
24009WAT      O72268   1.967   3.811   4.518
24009WAT     H172269   2.011   3.764   4.441
24009WAT     H272270   2.023   3.800   4.600
24010WAT      O72271   5.631   0.533   3.369
24010WAT     H172272   5.629   0.588   3.286
24010WAT     H272273   5.538   0.508   3.395
24011WAT      O72274   8.250   5.628   3.231
24011WAT     H172275   8.251   5.560   3.305
24011WAT     H272276   8.284   5.586   3.147
24012WAT      O72277   4.565   2.768   0.923
24012WAT     H172278   4.507   2.847   0.943
24012WAT     H272279   4.657   2.799   0.898
24013WAT      O72280   7.460   6.239   2.143
24013WAT     H172281   7.473   6.226   2.242
24013WAT     H272282   7.475   6.335   2.121
24014WAT      O72283   2.192   7.993   5.618
24014WAT     H172284   2.247   8.070   5.651
24014WAT     H272285   2.184   7.997   5.519
24015WAT      O72286   6.468   6.234   6.333
24015WAT     H172287   6.437   6.231   6.237
24015WAT     H272288   6.528   6.313   6.346
24016WAT      O72289   6.035   9.089   7.998
24016WAT     H172290   5.999   9.120   7.910
24016WAT     H272291   6.119   9.139   8.019
24017WAT      O72292   0.866   3.651   4.595
24017WAT     H172293   0.810   3.716   4.545
24017WAT     H272294   0.935   3.699   4.649
24018WAT      O72295   0.217   3.416   9.812
24018WAT     H172296   0.182   3.400   9.720
24018WAT     H272297   0.163   3.363   9.878
24019WAT      O72298   2.675   4.866   7.802
24019WAT     H172299   2.576   4.874   7.789
24019WAT     H272300   2.694   4.843   7.898
24020WAT      O72301   7.168   6.274   2.988
24020WAT     H172302   7.252   6.311   2.949
24020WAT     H272303   7.183   6.177   3.011
24021WAT      O72304   6.448   3.181   3.422
24021WAT     H172305   6.526   3.126   3.391
24021WAT     H272306   6.481   3.270   3.453
24022WAT      O72307   7.933   7.784   2.529
24022WAT     H172308   7.855   7.785   2.592
24022WAT     H272309   8.018   7.791   2.582
24023WAT      O72310   4.209   6.603   4.874
24023WAT     H172311   4.274   6.537   4.912
24023WAT     H272312   4.159   6.561   4.797
24024WAT      O72313   4.970   3.464   0.460
24024WAT     H172314   4.899   3.396   0.441
24024WAT     H272315   4.943   3.518   0.540
24025WAT      O72316   8.741   7.112   9.239
24025WAT     H172317   8.780   7.020   9.229
24025WAT     H272318   8.644   7.110   9.215
24026WAT      O72319   5.272   3.406   9.249
24026WAT     H172320   5.301   3.409   9.153
24026WAT     H272321   5.312   3.484   9.298
24027WAT      O72322   3.660   7.313   5.929
24027WAT     H172323   3.607   7.341   6.010
24027WAT     H272324   3.622   7.228   5.892
24028WAT      O72325   7.700   8.577   0.773
24028WAT     H172326   7.666   8.484   0.761
24028WAT     H272327   7.654   8.638   0.709
24029WAT      O72328   4.421   7.004   8.469
24029WAT     H172329   4.419   6.939   8.393
24029WAT     H272330   4.455   6.958   8.551
24030WAT      O72331   9.469   2.139   2.774
24030WAT     H172332   9.470   2.145   2.874
24030WAT     H272333   9.452   2.044   2.747
24031WAT      O72334   1.072   6.782   2.045
24031WAT     H172335   1.070   6.863   1.986
24031WAT     H272336   0.993   6.724   2.023
24032WAT      O72337   5.776   8.607   0.208
24032WAT     H172338   5.681   8.582   0.189
24032WAT     H272339   5.825   8.622   0.122
24033WAT      O72340   5.886   6.238   4.975
24033WAT     H172341   5.930   6.171   4.916
24033WAT     H272342   5.815   6.287   4.923
24034WAT      O72343   3.278   2.699   8.317
24034WAT     H172344   3.346   2.760   8.357
24034WAT     H272345   3.197   2.696   8.375
24035WAT      O72346   5.557   8.575   8.751
24035WAT     H172347   5.618   8.622   8.687
24035WAT     H272348   5.611   8.523   8.816
24036WAT      O72349   3.603   8.215   6.338
24036WAT     H172350   3.627   8.130   6.290
24036WAT     H272351   3.686   8.261   6.368
24037WAT      O72352   5.234   0.487   7.709
24037WAT     H172353   5.300   0.554   7.674
24037WAT     H272354   5.181   0.528   7.783
24038WAT      O72355   1.076   9.452   4.849
24038WAT     H172356   1.159   9.492   4.809
24038WAT     H272357   1.082   9.457   4.949
24039WAT      O72358   4.552   7.160   2.208
24039WAT     H172359   4.555   7.238   2.272
24039WAT     H272360   4.614   7.089   2.241
24040WAT      O72361   8.446   2.072   3.410
24040WAT     H172362   8.394   2.037   3.332
24040WAT     H272363   8.539   2.035   3.408
24041WAT      O72364   4.518   8.316   8.831
24041WAT     H172365   4.469   8.351   8.751
24041WAT     H272366   4.487   8.363   8.913
24042WAT      O72367   7.354   6.193   2.681
24042WAT     H172368   7.372   6.208   2.778
24042WAT     H272369   7.340   6.280   2.635
24043WAT      O72370   1.428   0.944   6.071
24043WAT     H172371   1.491   0.993   6.010
24043WAT     H272372   1.438   0.846   6.057
24044WAT      O72373   4.065   3.361   5.937
24044WAT     H172374   4.075   3.460   5.953
24044WAT     H272375   3.984   3.345   5.880
24045WAT      O72376   6.333   0.479   1.327
24045WAT     H172377   6.307   0.398   1.381
24045WAT     H272378   6.411   0.457   1.269
24046WAT      O72379   7.273   2.474   4.916
24046WAT     H172380   7.192   2.533   4.912
24046WAT     H272381   7.335   2.509   4.986
24047WAT      O72382   0.102   9.347   1.083
24047WAT     H172383   0.070   9.256   1.110
24047WAT     H272384   0.042   9.417   1.123
24048WAT      O72385   3.892   5.589   1.194
24048WAT     H172386   3.917   5.664   1.255
24048WAT     H272387   3.933   5.603   1.104
24049WAT      O72388   0.865   3.149   8.656
24049WAT     H172389   0.843   3.052   8.643
24049WAT     H272390   0.862   3.195   8.567
24050WAT      O72391   1.457   1.343   2.782
24050WAT     H172392   1.544   1.333   2.829
24050WAT     H272393   1.447   1.270   2.714
24051WAT      O72394   8.949   6.938   4.932
24051WAT     H172395   9.037   6.986   4.930
24051WAT     H272396   8.878   6.997   4.895
24052WAT      O72397   0.754   6.129   8.233
24052WAT     H172398   0.808   6.093   8.308
24052WAT     H272399   0.683   6.063   8.208
24053WAT      O72400   1.476   4.029   0.295
24053WAT     H172401   1.530   4.025   0.379
24053WAT     H272402   1.379   4.024   0.318
24054WAT      O72403   3.589   0.725   7.141
24054WAT     H172404   3.585   0.649   7.076
24054WAT     H272405   3.503   0.729   7.193
24055WAT      O72406   2.232   5.013   4.190
24055WAT     H172407   2.293   4.936   4.170
24055WAT     H272408   2.249   5.086   4.124
24056WAT      O72409   6.212   4.666   6.015
24056WAT     H172410   6.143   4.711   5.957
24056WAT     H272411   6.292   4.644   5.960
24057WAT      O72412   3.142   5.375   0.480
24057WAT     H172413   3.064   5.414   0.431
24057WAT     H272414   3.186   5.447   0.534
24058WAT      O72415   8.031   9.722   1.453
24058WAT     H172416   7.960   9.764   1.509
24058WAT     H272417   8.000   9.633   1.421
24059WAT      O72418   9.269   9.758   0.605
24059WAT     H172419   9.366   9.752   0.578
24059WAT     H272420   9.221   9.820   0.543
24060WAT      O72421   8.617   8.874   5.793
24060WAT     H172422   8.518   8.890   5.792
24060WAT     H272423   8.636   8.787   5.746
24061WAT      O72424   4.650   0.678   1.964
24061WAT     H172425   4.580   0.612   1.992
24061WAT     H272426   4.664   0.745   2.037
24062WAT      O72427   0.844   1.757   8.995
24062WAT     H172428   0.760   1.779   9.044
24062WAT     H272429   0.826   1.757   8.896
24063WAT      O72430   4.255   1.543   5.244
24063WAT     H172431   4.242   1.528   5.146
24063WAT     H272432   4.167   1.538   5.291
24064WAT      O72433   5.258   2.561   9.654
24064WAT     H172434   5.225   2.655   9.643
24064WAT     H272435   5.347   2.552   9.611
24065WAT      O72436   7.978   3.351   5.758
24065WAT     H172437   7.919   3.281   5.797
24065WAT     H272438   7.998   3.420   5.827
24066WAT      O72439   4.277   5.510   8.710
24066WAT     H172440   4.324   5.596   8.731
24066WAT     H272441   4.183   5.529   8.682
24067WAT      O72442   4.043   1.924   1.449
24067WAT     H172443   4.126   1.869   1.449
24067WAT     H272444   3.964   1.866   1.430
24068WAT      O72445   9.264   6.156   0.352
24068WAT     H172446   9.358   6.140   0.321
24068WAT     H272447   9.200   6.117   0.287
24069WAT      O72448   5.662   6.757   1.942
24069WAT     H172449   5.678   6.801   1.853
24069WAT     H272450   5.589   6.689   1.932
24070WAT      O72451   3.871   3.069   7.839
24070WAT     H172452   3.833   3.145   7.786
24070WAT     H272453   3.821   3.060   7.925
24071WAT      O72454   0.028   5.289   0.361
24071WAT     H172455  -0.069   5.311   0.367
24071WAT     H272456   0.065   5.322   0.274
24072WAT      O72457   3.982   2.813   2.950
24072WAT     H172458   4.033   2.799   2.866
24072WAT     H272459   3.890   2.848   2.928
24073WAT      O72460   4.036   6.238   6.802
24073WAT     H172461   4.072   6.219   6.711
24073WAT     H272462   4.100   6.205   6.871
24074WAT      O72463   4.542   4.619   6.595
24074WAT     H172464   4.636   4.653   6.599
24074WAT     H272465   4.531   4.545   6.662
24075WAT      O72466   7.399   7.299   0.403
24075WAT     H172467   7.404   7.343   0.493
24075WAT     H272468   7.440   7.358   0.334
24076WAT      O72469   3.758   0.188   5.984
24076WAT     H172470   3.832   0.175   6.050
24076WAT     H272471   3.702   0.106   5.979
24077WAT      O72472   7.094   6.073   2.429
24077WAT     H172473   7.008   6.101   2.470
24077WAT     H272474   7.084   6.067   2.329
24078WAT      O72475   7.399   3.515   7.607
24078WAT     H172476   7.347   3.554   7.531
24078WAT     H272477   7.398   3.416   7.601
24079WAT      O72478   8.069   3.329   4.664
24079WAT     H172479   8.066   3.361   4.759
24079WAT     H272480   8.160   3.345   4.626
24080WAT      O72481   3.619   7.846   5.188
24080WAT     H172482   3.614   7.903   5.270
24080WAT     H272483   3.527   7.825   5.156
24081WAT      O72484   3.278   0.241   3.616
24081WAT     H172485   3.186   0.281   3.622
24081WAT     H272486   3.338   0.284   3.684
24082WAT      O72487   0.593   1.821   2.338
24082WAT     H172488   0.632   1.861   2.421
24082WAT     H272489   0.524   1.883   2.301
24083WAT      O72490   6.127   6.249   9.344
24083WAT     H172491   6.146   6.161   9.300
24083WAT     H272492   6.047   6.290   9.303
24084WAT      O72493   8.510   0.274   3.979
24084WAT     H172494   8.437   0.218   3.939
24084WAT     H272495   8.470   0.343   4.040
24085WAT      O72496   2.122   0.893   2.982
24085WAT     H172497   2.041   0.867   2.930
24085WAT     H272498   2.202   0.846   2.946
24086WAT      O72499   8.836   4.421   7.185
24086WAT     H172500   8.812   4.370   7.102
24086WAT     H272501   8.841   4.358   7.262
24087WAT      O72502   4.751   5.708   4.441
24087WAT     H172503   4.679   5.710   4.371
24087WAT     H272504   4.837   5.737   4.400
24088WAT      O72505   9.079   9.770   1.396
24088WAT     H172506   9.159   9.815   1.437
24088WAT     H272507   9.087   9.671   1.406
24089WAT      O72508   7.973   8.672   2.574
24089WAT     H172509   7.875   8.652   2.585
24089WAT     H272510   8.005   8.633   2.488
24090WAT      O72511   4.735   2.539   9.395
24090WAT     H172512   4.767   2.628   9.362
24090WAT     H272513   4.808   2.471   9.385
24091WAT      O72514   7.921   3.319   3.867
24091WAT     H172515   7.918   3.293   3.963
24091WAT     H272516   7.933   3.418   3.859
24092WAT      O72517   2.136   9.691   4.476
24092WAT     H172518   2.125   9.691   4.376
24092WAT     H272519   2.123   9.598   4.510
24093WAT      O72520   8.757   0.076   5.736
24093WAT     H172521   8.683   0.115   5.681
24093WAT     H272522   8.728   0.069   5.831
24094WAT      O72523   3.796   6.125   8.217
24094WAT     H172524   3.754   6.072   8.291
24094WAT     H272525   3.765   6.089   8.129
24095WAT      O72526   8.392   4.844   6.468
24095WAT     H172527   8.399   4.894   6.555
24095WAT     H272528   8.482   4.843   6.423
24096WAT      O72529   3.634   2.341   1.103
24096WAT     H172530   3.689   2.336   1.186
24096WAT     H272531   3.647   2.258   1.049
24097WAT      O72532   5.783   1.976   6.583
24097WAT     H172533   5.849   1.933   6.521
24097WAT     H272534   5.703   1.917   6.592
24098WAT      O72535   8.700   6.556   4.478
24098WAT     H172536   8.715   6.591   4.385
24098WAT     H272537   8.694   6.633   4.542
24099WAT      O72538   2.254   0.338   6.308
24099WAT     H172539   2.157   0.321   6.328
24099WAT     H272540   2.311   0.288   6.373
24100WAT      O72541   6.599   5.510   0.991
24100WAT     H172542   6.650   5.424   0.998
24100WAT     H272543   6.568   5.522   0.897
24101WAT      O72544   1.634   0.641   4.694
24101WAT     H172545   1.591   0.647   4.604
24101WAT     H272546   1.596   0.563   4.744
24102WAT      O72547   6.965   6.675   7.906
24102WAT     H172548   6.980   6.679   8.005
24102WAT     H272549   6.924   6.761   7.876
24103WAT      O72550   7.299   0.324   8.384
24103WAT     H172551   7.394   0.320   8.354
24103WAT     H272552   7.275   0.240   8.432
24104WAT      O72553   3.264   6.670   4.230
24104WAT     H172554   3.261   6.708   4.138
24104WAT     H272555   3.173   6.636   4.254
24105WAT      O72556   0.133   7.278   4.357
24105WAT     H172557   0.087   7.321   4.279
24105WAT     H272558   0.065   7.254   4.426
24106WAT      O72559   9.648   5.685   6.921
24106WAT     H172560   9.746   5.671   6.906
24106WAT     H272561   9.627   5.674   7.018
24107WAT      O72562   5.009   9.658   5.452
24107WAT     H172563   5.100   9.686   5.421
24107WAT     H272564   5.015   9.566   5.493
24108WAT      O72565   1.241   2.066   3.328
24108WAT     H172566   1.287   2.149   3.299
24108WAT     H272567   1.250   1.995   3.258
24109WAT      O72568   3.703   8.430   7.713
24109WAT     H172569   3.782   8.481   7.746
24109WAT     H272570   3.700   8.340   7.757
24110WAT      O72571   6.553   4.805   4.829
24110WAT     H172572   6.532   4.899   4.856
24110WAT     H272573   6.611   4.806   4.748
24111WAT      O72574   0.531   3.468   5.815
24111WAT     H172575   0.616   3.449   5.865
24111WAT     H272576   0.548   3.539   5.746
24112WAT      O72577   9.108   8.470   7.231
24112WAT     H172578   9.027   8.435   7.184
24112WAT     H272579   9.190   8.440   7.183
24113WAT      O72580   6.789   4.263   3.629
24113WAT     H172581   6.839   4.252   3.544
24113WAT     H272582   6.732   4.182   3.646
24114WAT      O72583   7.345   8.019   3.143
24114WAT     H172584   7.426   7.979   3.187
24114WAT     H272585   7.373   8.072   3.063
24115WAT      O72586   7.096   7.683   2.408
24115WAT     H172587   7.022   7.618   2.393
24115WAT     H272588   7.061   7.776   2.399
24116WAT      O72589   6.181   1.045   3.516
24116WAT     H172590   6.156   0.989   3.437
24116WAT     H272591   6.278   1.066   3.513
24117WAT      O72592   9.624   6.362   8.065
24117WAT     H172593   9.690   6.391   7.996
24117WAT     H272594   9.624   6.262   8.072
24118WAT      O72595   2.781   5.865   0.280
24118WAT     H172596   2.777   5.948   0.224
24118WAT     H272597   2.801   5.787   0.222
24119WAT      O72598   3.099   0.047   6.712
24119WAT     H172599   3.143   0.054   6.801
24119WAT     H272600   3.168   0.031   6.641
24120WAT      O72601   1.172   2.489   2.333
24120WAT     H172602   1.172   2.391   2.355
24120WAT     H272603   1.262   2.528   2.354
24121WAT      O72604   7.552   5.995   8.086
24121WAT     H172605   7.470   5.938   8.076
24121WAT     H272606   7.632   5.944   8.056
24122WAT      O72607   1.679   4.308   6.739
24122WAT     H172608   1.742   4.242   6.698
24122WAT     H272609   1.610   4.259   6.792
24123WAT      O72610   0.148   7.359   6.985
24123WAT     H172611   0.217   7.416   6.940
24123WAT     H272612   0.190   7.273   7.013
24124WAT      O72613   4.657   5.200   5.742
24124WAT     H172614   4.637   5.102   5.741
24124WAT     H272615   4.756   5.213   5.755
24125WAT      O72616   8.362   2.542   9.513
24125WAT     H172617   8.325   2.633   9.491
24125WAT     H272618   8.448   2.553   9.563
24126WAT      O72619   2.618   5.501   8.891
24126WAT     H172620   2.590   5.405   8.880
24126WAT     H272621   2.549   5.561   8.852
24127WAT      O72622   4.218   0.801   2.130
24127WAT     H172623   4.253   0.718   2.174
24127WAT     H272624   4.154   0.847   2.191
24128WAT      O72625   2.405   7.368   5.588
24128WAT     H172626   2.377   7.294   5.526
24128WAT     H272627   2.324   7.417   5.619
24129WAT      O72628   1.036   7.386   1.101
24129WAT     H172629   1.006   7.444   1.024
24129WAT     H272630   1.018   7.433   1.187
24130WAT      O72631   0.093   5.928   2.918
24130WAT     H172632   0.036   5.855   2.882
24130WAT     H272633   0.188   5.896   2.925
24131WAT      O72634   6.702   3.717   0.308
24131WAT     H172635   6.622   3.687   0.256
24131WAT     H272636   6.728   3.647   0.374
24132WAT      O72637   4.943   2.018   9.583
24132WAT     H172638   4.994   1.938   9.551
24132WAT     H272639   4.988   2.058   9.662
24133WAT      O72640   2.179   9.178   1.196
24133WAT     H172641   2.254   9.154   1.257
24133WAT     H272642   2.211   9.180   1.101
24134WAT      O72643   1.107   2.305   7.276
24134WAT     H172644   1.053   2.246   7.216
24134WAT     H272645   1.145   2.250   7.350
24135WAT      O72646   8.481   8.822   3.295
24135WAT     H172647   8.413   8.879   3.342
24135WAT     H272648   8.458   8.817   3.198
24136WAT      O72649   9.866   4.339   8.080
24136WAT     H172650   9.884   4.437   8.066
24136WAT     H272651   9.915   4.286   8.012
24137WAT      O72652   7.525   0.761   9.321
24137WAT     H172653   7.461   0.833   9.294
24137WAT     H272654   7.509   0.679   9.266
24138WAT      O72655   3.709   8.208   6.870
24138WAT     H172656   3.779   8.277   6.853
24138WAT     H272657   3.622   8.253   6.889
24139WAT      O72658   8.879   4.907   1.584
24139WAT     H172659   8.882   4.928   1.486
24139WAT     H272660   8.972   4.887   1.616
24140WAT      O72661   8.986   8.692   1.773
24140WAT     H172662   8.982   8.593   1.791
24140WAT     H272663   9.075   8.715   1.732
24141WAT      O72664   8.396   7.991   2.585
24141WAT     H172665   8.448   7.963   2.505
24141WAT     H272666   8.419   7.932   2.662
24142WAT      O72667   1.901   3.846   3.583
24142WAT     H172668   1.952   3.858   3.668
24142WAT     H272669   1.867   3.752   3.578
24143WAT      O72670   5.055   2.394   5.098
24143WAT     H172671   5.069   2.307   5.050
24143WAT     H272672   5.095   2.387   5.190
24144WAT      O72673   6.993   8.934   3.252
24144WAT     H172674   7.081   8.979   3.262
24144WAT     H272675   7.000   8.838   3.281
24145WAT      O72676   6.273   8.277   3.275
24145WAT     H172677   6.275   8.177   3.280
24145WAT     H272678   6.334   8.315   3.344
24146WAT      O72679   1.318   5.816   0.236
24146WAT     H172680   1.243   5.880   0.252
24146WAT     H272681   1.288   5.743   0.174
24147WAT      O72682   5.137   3.259   8.876
24147WAT     H172683   5.221   3.240   8.927
24147WAT     H272684   5.058   3.226   8.927
24148WAT      O72685   3.978   8.800   8.235
24148WAT     H172686   3.891   8.752   8.219
24148WAT     H272687   4.053   8.734   8.238
24149WAT      O72688   5.096   2.575   9.224
24149WAT     H172689   5.021   2.618   9.173
24149WAT     H272690   5.143   2.644   9.279
24150WAT      O72691   4.351   3.088   3.297
24150WAT     H172692   4.325   3.046   3.210
24150WAT     H272693   4.430   3.147   3.283
24151WAT      O72694   6.552   8.732   5.035
24151WAT     H172695   6.611   8.728   5.115
24151WAT     H272696   6.472   8.790   5.055
24152WAT      O72697   4.259   3.971   1.311
24152WAT     H172698   4.238   3.883   1.268
24152WAT     H272699   4.302   3.955   1.400
24153WAT      O72700   6.026   8.148   0.710
24153WAT     H172701   6.069   8.186   0.628
24153WAT     H272702   6.048   8.205   0.789
24154WAT      O72703   0.399   1.712   7.490
24154WAT     H172704   0.446   1.743   7.407
24154WAT     H272705   0.413   1.778   7.563
24155WAT      O72706   5.445   9.490   1.577
24155WAT     H172707   5.543   9.500   1.592
24155WAT     H272708   5.423   9.394   1.562
24156WAT      O72709   0.336   0.786   9.794
24156WAT     H172710   0.434   0.771   9.784
24156WAT     H272711   0.318   0.844   9.873
24157WAT      O72712   8.528   1.342   6.582
24157WAT     H172713   8.530   1.356   6.483
24157WAT     H272714   8.512   1.429   6.628
24158WAT      O72715   1.815   9.595   0.388
24158WAT     H172716   1.793   9.672   0.448
24158WAT     H272717   1.731   9.553   0.355
24159WAT      O72718   6.417   0.019   2.141
24159WAT     H172719   6.405  -0.080   2.143
24159WAT     H272720   6.513   0.042   2.156
24160WAT      O72721   4.073   8.996   5.707
24160WAT     H172722   4.112   8.934   5.638
24160WAT     H272723   4.148   9.045   5.752
24161WAT      O72724   6.206   4.891   9.379
24161WAT     H172725   6.182   4.869   9.474
24161WAT     H272726   6.218   4.807   9.327
24162WAT      O72727   7.675   8.980   4.396
24162WAT     H172728   7.679   8.898   4.453
24162WAT     H272729   7.628   8.959   4.310
24163WAT      O72730   8.211   2.870   5.936
24163WAT     H172731   8.180   2.820   6.016
24163WAT     H272732   8.279   2.816   5.886
24164WAT      O72733   5.456   4.739   0.348
24164WAT     H172734   5.447   4.682   0.267
24164WAT     H272735   5.444   4.835   0.323
24165WAT      O72736   4.353   0.514   5.705
24165WAT     H172737   4.369   0.537   5.801
24165WAT     H272738   4.404   0.431   5.683
24166WAT      O72739   6.227   4.886   0.972
24166WAT     H172740   6.180   4.874   0.884
24166WAT     H272741   6.324   4.862   0.961
24167WAT      O72742   1.187   6.372   8.423
24167WAT     H172743   1.286   6.379   8.435
24167WAT     H272744   1.162   6.278   8.399
24168WAT      O72745   4.229   3.769   9.266
24168WAT     H172746   4.249   3.850   9.320
24168WAT     H272747   4.201   3.795   9.174
24169WAT      O72748   8.522   4.639   5.966
24169WAT     H172749   8.587   4.658   5.893
24169WAT     H272750   8.458   4.715   5.975
24170WAT      O72751   3.024   9.024   7.974
24170WAT     H172752   3.120   8.999   7.986
24170WAT     H272753   2.973   9.004   8.057
24171WAT      O72754   9.090   1.837   0.026
24171WAT     H172755   9.019   1.790   0.078
24171WAT     H272756   9.074   1.824  -0.072
24172WAT      O72757   8.355   7.194   5.689
24172WAT     H172758   8.285   7.152   5.747
24172WAT     H272759   8.371   7.135   5.610
24173WAT      O72760   5.237   3.708   9.563
24173WAT     H172761   5.288   3.727   9.647
24173WAT     H272762   5.185   3.788   9.536
24174WAT      O72763   0.674   8.874   2.654
24174WAT     H172764   0.625   8.961   2.661
24174WAT     H272765   0.676   8.845   2.559
24175WAT      O72766   3.820   1.874   0.275
24175WAT     H172767   3.799   1.893   0.179
24175WAT     H272768   3.734   1.868   0.326
24176WAT      O72769   7.614   8.062   6.710
24176WAT     H172770   7.687   8.126   6.737
24176WAT     H272771   7.605   7.991   6.779
24177WAT      O72772   8.440   8.677   8.684
24177WAT     H172773   8.367   8.611   8.703
24177WAT     H272774   8.420   8.763   8.730
24178WAT      O72775   4.876   7.362   0.892
24178WAT     H172776   4.867   7.264   0.912
24178WAT     H272777   4.838   7.414   0.968
24179WAT      O72778   6.631   3.610   6.334
24179WAT     H172779   6.703   3.670   6.369
24179WAT     H272780   6.668   3.518   6.321
24180WAT      O72781   3.027   6.086   6.501
24180WAT     H172782   3.034   6.043   6.412
24180WAT     H272783   3.086   6.167   6.504
24181WAT      O72784   1.266   8.311   1.417
24181WAT     H172785   1.228   8.238   1.474
24181WAT     H272786   1.201   8.386   1.411
24182WAT      O72787   7.187   7.953   3.671
24182WAT     H172788   7.253   7.954   3.746
24182WAT     H272789   7.235   7.973   3.585
24183WAT      O72790   9.262   0.305   1.132
24183WAT     H172791   9.326   0.241   1.173
24183WAT     H272792   9.306   0.394   1.121
24184WAT      O72793   3.957   3.503   6.603
24184WAT     H172794   4.033   3.443   6.578
24184WAT     H272795   3.930   3.484   6.698
24185WAT      O72796   0.846   2.724   5.175
24185WAT     H172797   0.880   2.686   5.261
24185WAT     H272798   0.866   2.822   5.171
24186WAT      O72799   2.134   3.869   5.959
24186WAT     H172800   2.083   3.870   6.045
24186WAT     H272801   2.199   3.793   5.960
24187WAT      O72802   3.786   9.330   3.449
24187WAT     H172803   3.779   9.401   3.520
24187WAT     H272804   3.870   9.344   3.397
24188WAT      O72805   5.133   7.147   0.853
24188WAT     H172806   5.132   7.237   0.810
24188WAT     H272807   5.137   7.076   0.783
24189WAT      O72808   2.501   7.371   8.407
24189WAT     H172809   2.575   7.423   8.451
24189WAT     H272810   2.513   7.374   8.308
24190WAT      O72811   4.528   1.192   3.617
24190WAT     H172812   4.600   1.178   3.548
24190WAT     H272813   4.495   1.104   3.650
24191WAT      O72814   6.439   3.277   5.874
24191WAT     H172815   6.404   3.265   5.782
24191WAT     H272816   6.534   3.310   5.870
24192WAT      O72817   5.250   1.863   5.637
24192WAT     H172818   5.201   1.843   5.722
24192WAT     H272819   5.231   1.792   5.570
24193WAT      O72820   0.785   6.665   5.218
24193WAT     H172821   0.813   6.656   5.314
24193WAT     H272822   0.855   6.716   5.167
24194WAT      O72823   6.313   2.366   3.335
24194WAT     H172824   6.369   2.440   3.372
24194WAT     H272825   6.217   2.384   3.354
24195WAT      O72826   0.532   0.957   7.405
24195WAT     H172827   0.542   0.860   7.427
24195WAT     H272828   0.622   0.995   7.381
24196WAT      O72829   3.359   2.370   5.059
24196WAT     H172830   3.418   2.436   5.013
24196WAT     H272831   3.292   2.419   5.115
24197WAT      O72832   5.986   5.141   8.967
24197WAT     H172833   5.986   5.117   9.064
24197WAT     H272834   6.044   5.076   8.917
24198WAT      O72835   6.022   8.118   7.706
24198WAT     H172836   5.963   8.060   7.761
24198WAT     H272837   6.091   8.061   7.660
24199WAT      O72838   1.661   3.587   7.912
24199WAT     H172839   1.717   3.663   7.945
24199WAT     H272840   1.568   3.618   7.898
24200WAT      O72841   5.521   2.726   3.370
24200WAT     H172842   5.486   2.721   3.277
24200WAT     H272843   5.575   2.645   3.391
24201WAT      O72844   8.103   8.609   2.336
24201WAT     H172845   8.096   8.538   2.267
24201WAT     H272846   8.163   8.682   2.302
24202WAT      O72847   0.575   7.015   3.890
24202WAT     H172848   0.551   7.049   3.799
24202WAT     H272849   0.672   7.033   3.907
24203WAT      O72850   6.783   9.192   4.901
24203WAT     H172851   6.880   9.215   4.892
24203WAT     H272852   6.761   9.117   4.838
24204WAT      O72853   0.392   1.079   3.214
24204WAT     H172854   0.487   1.081   3.247
24204WAT     H272855   0.352   0.989   3.234
24205WAT      O72856   3.962   5.891   1.696
24205WAT     H172857   4.021   5.819   1.733
24205WAT     H272858   3.904   5.927   1.770
24206WAT      O72859   2.206   6.686   8.716
24206WAT     H172860   2.167   6.625   8.646
24206WAT     H272861   2.167   6.777   8.706
24207WAT      O72862   0.181   2.319   9.074
24207WAT     H172863   0.189   2.382   9.152
24207WAT     H272864   0.086   2.291   9.063
24208WAT      O72865   0.936   3.894   1.476
24208WAT     H172866   0.843   3.906   1.510
24208WAT     H272867   0.961   3.973   1.420
24209WAT      O72868   3.204   5.738   8.446
24209WAT     H172869   3.238   5.770   8.358
24209WAT     H272870   3.266   5.769   8.518
24210WAT      O72871   7.524   2.149   7.526
24210WAT     H172872   7.533   2.065   7.578
24210WAT     H272873   7.593   2.151   7.454
24211WAT      O72874   7.875   1.265   4.513
24211WAT     H172875   7.843   1.313   4.594
24211WAT     H272876   7.970   1.237   4.526
24212WAT      O72877   3.136   0.456   1.498
24212WAT     H172878   3.180   0.435   1.411
24212WAT     H272879   3.093   0.546   1.493
24213WAT      O72880   2.289   3.239   5.280
24213WAT     H172881   2.298   3.150   5.324
24213WAT     H272882   2.211   3.289   5.319
24214WAT      O72883   4.788   4.319   7.820
24214WAT     H172884   4.829   4.272   7.898
24214WAT     H272885   4.689   4.321   7.830
24215WAT      O72886   5.063   3.759   8.505
24215WAT     H172887   5.047   3.740   8.602
24215WAT     H272888   5.162   3.758   8.488
24216WAT      O72889   9.482   9.275   0.650
24216WAT     H172890   9.387   9.281   0.678
24216WAT     H272891   9.534   9.224   0.719
24217WAT      O72892   2.523   4.165   0.274
24217WAT     H172893   2.615   4.149   0.238
24217WAT     H272894   2.457   4.161   0.199
24218WAT      O72895   0.989   9.754   0.742
24218WAT     H172896   1.012   9.671   0.794
24218WAT     H272897   1.013   9.741   0.646
24219WAT      O72898   6.623   1.172   6.236
24219WAT     H172899   6.621   1.210   6.328
24219WAT     H272900   6.554   1.100   6.228
24220WAT      O72901   2.931   8.926   2.602
24220WAT     H172902   2.931   9.008   2.659
24220WAT     H272903   2.928   8.952   2.505
24221WAT      O72904   6.238   0.267   2.455
24221WAT     H172905   6.330   0.232   2.476
24221WAT     H272906   6.233   0.292   2.359
24222WAT      O72907   4.626   4.170   2.802
24222WAT     H172908   4.611   4.073   2.819
24222WAT     H272909   4.692   4.206   2.868
24223WAT      O72910   3.388   5.945   5.605
24223WAT     H172911   3.463   5.880   5.593
24223WAT     H272912   3.301   5.898   5.587
24224WAT      O72913   9.561   2.260   7.340
24224WAT     H172914   9.528   2.326   7.408
24224WAT     H272915   9.527   2.285   7.250
24225WAT      O72916   5.781   6.474   3.850
24225WAT     H172917   5.717   6.546   3.876
24225WAT     H272918   5.730   6.394   3.818
24226WAT      O72919   1.287   8.981   4.634
24226WAT     H172920   1.287   8.985   4.534
24226WAT     H272921   1.380   8.965   4.667
24227WAT      O72922   4.097   4.939   4.536
24227WAT     H172923   4.195   4.917   4.541
24227WAT     H272924   4.079   4.991   4.453
24228WAT      O72925   2.437   1.344   8.971
24228WAT     H172926   2.415   1.414   8.903
24228WAT     H272927   2.523   1.299   8.947
24229WAT      O72928   9.260   5.711   0.505
24229WAT     H172929   9.354   5.701   0.538
24229WAT     H272930   9.243   5.645   0.431
24230WAT      O72931   4.420   5.218   3.306
24230WAT     H172932   4.384   5.128   3.280
24230WAT     H272933   4.345   5.283   3.315
24231WAT      O72934   9.465   3.751   7.648
24231WAT     H172935   9.524   3.781   7.723
24231WAT     H272936   9.500   3.789   7.562
24232WAT      O72937   4.104   2.477   4.301
24232WAT     H172938   4.024   2.537   4.300
24232WAT     H272939   4.092   2.404   4.234
24233WAT      O72940   4.001   9.453   3.305
24233WAT     H172941   4.089   9.409   3.324
24233WAT     H272942   3.983   9.450   3.206
24234WAT      O72943   6.459   0.747   1.450
24234WAT     H172944   6.396   0.791   1.515
24234WAT     H272945   6.411   0.676   1.400
24235WAT      O72946   6.956   4.128   2.257
24235WAT     H172947   6.970   4.037   2.217
24235WAT     H272948   7.012   4.195   2.210
24236WAT      O72949   6.527   5.585   3.526
24236WAT     H172950   6.542   5.596   3.624
24236WAT     H272951   6.605   5.623   3.476
24237WAT      O72952   2.787   1.029   8.731
24237WAT     H172953   2.733   0.956   8.689
24237WAT     H272954   2.868   0.989   8.774
24238WAT      O72955   4.168   5.902   3.328
24238WAT     H172956   4.221   5.964   3.386
24238WAT     H272957   4.135   5.953   3.248
24239WAT      O72958   6.681   7.906   6.180
24239WAT     H172959   6.661   7.818   6.138
24239WAT     H272960   6.662   7.900   6.278
24240WAT      O72961   8.980   3.251   1.774
24240WAT     H172962   8.931   3.164   1.768
24240WAT     H272963   9.046   3.247   1.849
24241WAT      O72964   0.007   3.424   2.874
24241WAT     H172965   0.007   3.364   2.795
24241WAT     H272966   0.087   3.404   2.931
24242WAT      O72967   5.255   8.031   6.617
24242WAT     H172968   5.329   8.020   6.550
24242WAT     H272969   5.257   7.956   6.682
24243WAT      O72970   5.625   4.125   1.431
24243WAT     H172971   5.620   4.109   1.529
24243WAT     H272972   5.536   4.158   1.398
24244WAT      O72973   2.549   0.771   4.111
24244WAT     H172974   2.639   0.729   4.096
24244WAT     H272975   2.502   0.723   4.184
24245WAT      O72976   6.429   5.490   2.328
24245WAT     H172977   6.358   5.470   2.395
24245WAT     H272978   6.516   5.506   2.375
24246WAT      O72979   9.377   6.887   4.431
24246WAT     H172980   9.296   6.932   4.468
24246WAT     H272981   9.355   6.846   4.342
24247WAT      O72982   3.724   9.210   9.600
24247WAT     H172983   3.683   9.277   9.661
24247WAT     H272984   3.654   9.145   9.570
24248WAT      O72985   3.519   5.477   6.067
24248WAT     H172986   3.423   5.502   6.075
24248WAT     H272987   3.535   5.391   6.115
24249WAT      O72988   1.952   9.065   9.545
24249WAT     H172989   1.936   8.974   9.507
24249WAT     H272990   1.908   9.072   9.634
24250WAT      O72991   8.302   4.563   9.784
24250WAT     H172992   8.204   4.580   9.796
24250WAT     H272993   8.337   4.510   9.861
24251WAT      O72994   0.262   0.518   6.916
24251WAT     H172995   0.256   0.549   6.822
24251WAT     H272996   0.345   0.555   6.958
24252WAT      O72997   6.128   1.188   0.675
24252WAT     H172998   6.208   1.224   0.626
24252WAT     H272999   6.074   1.132   0.612
24253WAT      O73000   4.778   3.382   9.002
24253WAT     H173001   4.790   3.301   8.944
24253WAT     H273002   4.688   3.379   9.046
24254WAT      O73003   6.897   6.638   2.637
24254WAT     H173004   6.945   6.715   2.595
24254WAT     H273005   6.963   6.582   2.687
24255WAT      O73006   1.130   8.307   8.611
24255WAT     H173007   1.097   8.394   8.646
24255WAT     H273008   1.230   8.303   8.619
24256WAT      O73009   5.986   1.126   6.562
24256WAT     H173010   5.978   1.164   6.470
24256WAT     H273011   5.956   1.194   6.630
24257WAT      O73012   1.214   9.027   0.619
24257WAT     H173013   1.259   8.977   0.693
24257WAT     H273014   1.141   8.972   0.580
24258WAT      O73015   3.018   0.330   4.290
24258WAT     H173016   2.985   0.236   4.282
24258WAT     H273017   3.073   0.352   4.209
24259WAT      O73018   5.584   6.435   1.156
24259WAT     H173019   5.623   6.398   1.241
24259WAT     H273020   5.491   6.467   1.174
24260WAT      O73021   9.615   2.091   6.271
24260WAT     H173022   9.566   2.170   6.235
24260WAT     H273023   9.551   2.015   6.283
24261WAT      O73024   9.720   4.586   3.093
24261WAT     H173025   9.683   4.528   3.166
24261WAT     H273026   9.658   4.584   3.014
24262WAT      O73027   9.707   7.987   4.068
24262WAT     H173028   9.696   8.082   4.098
24262WAT     H273029   9.798   7.975   4.029
24263WAT      O73030   8.879   8.804   5.437
24263WAT     H173031   8.882   8.740   5.514
24263WAT     H273032   8.804   8.869   5.450
24264WAT      O73033   8.925   4.928   1.316
24264WAT     H173034   8.974   4.981   1.246
24264WAT     H273035   8.974   4.843   1.334
24265WAT      O73036   0.818   8.542   2.521
24265WAT     H173037   0.793   8.448   2.498
24265WAT     H273038   0.880   8.541   2.601
24266WAT      O73039   3.096   3.641   8.455
24266WAT     H173040   3.134   3.713   8.397
24266WAT     H273041   3.165   3.611   8.521
24267WAT      O73042   2.491   5.970   9.641
24267WAT     H173043   2.465   5.932   9.552
24267WAT     H273044   2.415   6.023   9.678
24268WAT      O73045   4.647   5.849   1.675
24268WAT     H173046   4.678   5.924   1.617
24268WAT     H273047   4.549   5.834   1.662
24269WAT      O73048   3.086   3.482   1.346
24269WAT     H173049   3.121   3.404   1.397
24269WAT     H273050   3.067   3.454   1.252
24270WAT      O73051   6.378   9.096   9.672
24270WAT     H173052   6.427   9.112   9.587
24270WAT     H273053   6.321   9.014   9.664
24271WAT      O73054   7.392   0.933   7.513
24271WAT     H173055   7.317   0.943   7.579
24271WAT     H273056   7.379   0.998   7.438
24272WAT      O73057   9.432   1.352   4.090
24272WAT     H173058   9.480   1.425   4.139
24272WAT     H273059   9.334   1.367   4.097
24273WAT      O73060   7.968   8.598   7.909
24273WAT     H173061   8.056   8.644   7.895
24273WAT     H273062   7.975   8.503   7.881
24274WAT      O73063   0.958   3.393   0.647
24274WAT     H173064   0.962   3.402   0.747
24274WAT     H273065   0.938   3.298   0.623
24275WAT      O73066   8.258   6.264   3.534
24275WAT     H173067   8.258   6.245   3.632
24275WAT     H273068   8.340   6.223   3.492
24276WAT      O73069   3.507   1.672   3.098
24276WAT     H173070   3.451   1.747   3.134
24276WAT     H273071   3.555   1.627   3.173
24277WAT      O73072   8.537   2.876   9.860
24277WAT     H173073   8.471   2.884   9.785
24277WAT     H273074   8.548   2.780   9.886
24278WAT      O73075   2.354   2.591   3.425
24278WAT     H173076   2.275   2.584   3.487
24278WAT     H273077   2.369   2.687   3.401
24279WAT      O73078   3.138   4.278   9.358
24279WAT     H173079   3.066   4.272   9.427
24279WAT     H273080   3.227   4.284   9.404
24280WAT      O73081   2.755   5.317   4.092
24280WAT     H173082   2.731   5.412   4.113
24280WAT     H273083   2.819   5.282   4.160
24281WAT      O73084   4.040   6.813   1.931
24281WAT     H173085   4.086   6.901   1.918
24281WAT     H273086   4.100   6.739   1.899
24282WAT      O73087   9.056   4.861   8.269
24282WAT     H173088   9.083   4.957   8.275
24282WAT     H273089   9.137   4.805   8.251
24283WAT      O73090   6.014   1.990   1.815
24283WAT     H173091   6.069   2.043   1.880
24283WAT     H273092   5.918   2.015   1.824
24284WAT      O73093   1.607   5.890   7.804
24284WAT     H173094   1.610   5.978   7.757
24284WAT     H273095   1.565   5.821   7.745
24285WAT      O73096   8.001   7.566   1.299
24285WAT     H173097   7.949   7.614   1.229
24285WAT     H273098   7.946   7.561   1.383
24286WAT      O73099   5.993   0.722   9.851
24286WAT     H173100   5.937   0.796   9.889
24286WAT     H273101   6.021   0.747   9.758
24287WAT      O73102   1.449   9.212   3.213
24287WAT     H173103   1.491   9.200   3.303
24287WAT     H273104   1.370   9.152   3.205
24288WAT      O73105   3.698   1.924   0.032
24288WAT     H173106   3.732   1.875  -0.049
24288WAT     H273107   3.627   1.869   0.076
24289WAT      O73108   9.849   2.000   8.232
24289WAT     H173109   9.842   1.997   8.331
24289WAT     H273110   9.817   2.088   8.199
24290WAT      O73111   0.370   9.682   9.407
24290WAT     H173112   0.318   9.710   9.326
24290WAT     H273113   0.413   9.762   9.449
24291WAT      O73114   6.316   0.327   8.661
24291WAT     H173115   6.350   0.417   8.686
24291WAT     H273116   6.387   0.276   8.612
24292WAT      O73117   8.471   4.770   0.815
24292WAT     H173118   8.562   4.797   0.785
24292WAT     H273119   8.471   4.758   0.915
24293WAT      O73120   5.254   2.271   2.980
24293WAT     H173121   5.275   2.368   2.964
24293WAT     H273122   5.286   2.245   3.071
24294WAT      O73123   3.904   6.705   3.030
24294WAT     H173124   3.900   6.745   2.939
24294WAT     H273125   3.990   6.730   3.074
24295WAT      O73126   7.750   0.880   2.576
24295WAT     H173127   7.756   0.918   2.668
24295WAT     H273128   7.689   0.936   2.520
24296WAT      O73129   2.205   9.724   4.210
24296WAT     H173130   2.203   9.823   4.199
24296WAT     H273131   2.300   9.692   4.213
24297WAT      O73132   1.055   3.443   9.577
24297WAT     H173133   1.133   3.380   9.573
24297WAT     H273134   1.085   3.535   9.553
24298WAT      O73135   5.969   1.406   4.728
24298WAT     H173136   6.033   1.416   4.805
24298WAT     H273137   5.882   1.369   4.762
24299WAT      O73138   8.743   4.746   4.986
24299WAT     H173139   8.723   4.681   5.059
24299WAT     H273140   8.705   4.713   4.900
24300WAT      O73141   4.918   7.004   9.496
24300WAT     H173142   4.863   7.018   9.578
24300WAT     H273143   4.864   6.957   9.426
24301WAT      O73144   4.343   8.569   6.883
24301WAT     H173145   4.243   8.564   6.877
24301WAT     H273146   4.383   8.485   6.847
24302WAT      O73147   0.300   9.385   0.015
24302WAT     H173148   0.399   9.378   0.027
24302WAT     H273149   0.266   9.467   0.062
24303WAT      O73150   5.716   0.958   0.274
24303WAT     H173151   5.757   1.049   0.275
24303WAT     H273152   5.771   0.895   0.329
24304WAT      O73153   5.163   5.075   6.212
24304WAT     H173154   5.210   5.161   6.231
24304WAT     H273155   5.184   5.009   6.284
24305WAT      O73156   0.679   2.635   2.299
24305WAT     H173157   0.705   2.684   2.216
24305WAT     H273158   0.759   2.587   2.336
24306WAT      O73159   7.087   7.926   4.408
24306WAT     H173160   6.991   7.952   4.402
24306WAT     H273161   7.094   7.826   4.413
24307WAT      O73162   1.653   1.667   6.072
24307WAT     H173163   1.649   1.570   6.096
24307WAT     H273164   1.680   1.720   6.153
24308WAT      O73165   4.380   5.809   7.903
24308WAT     H173166   4.396   5.811   8.001
24308WAT     H273167   4.301   5.867   7.881
24309WAT      O73168   7.293   4.107   4.021
24309WAT     H173169   7.316   4.029   4.080
24309WAT     H273170   7.218   4.083   3.961
24310WAT      O73171   2.231   1.620   2.665
24310WAT     H173172   2.299   1.677   2.710
24310WAT     H273173   2.140   1.659   2.679
24311WAT      O73174   6.389   7.334   7.083
24311WAT     H173175   6.306   7.301   7.040
24311WAT     H273176   6.436   7.258   7.128
24312WAT      O73177   9.590   8.448   8.330
24312WAT     H173178   9.548   8.357   8.329
24312WAT     H273179   9.546   8.504   8.400
24313WAT      O73180   9.206   2.014   8.647
24313WAT     H173181   9.221   2.073   8.568
24313WAT     H273182   9.258   1.929   8.636
24314WAT      O73183   9.032   3.029   3.704
24314WAT     H173184   9.049   3.127   3.711
24314WAT     H273185   9.005   3.006   3.611
24315WAT      O73186   7.023   5.130   8.930
24315WAT     H173187   6.923   5.124   8.934
24315WAT     H273188   7.054   5.207   8.986
24316WAT      O73189   3.465   3.229   5.144
24316WAT     H173190   3.537   3.160   5.159
24316WAT     H273191   3.475   3.302   5.211
24317WAT      O73192   9.065   6.837   6.561
24317WAT     H173193   8.985   6.822   6.620
24317WAT     H273194   9.035   6.848   6.466
24318WAT      O73195   0.135   6.744   0.551
24318WAT     H173196   0.086   6.660   0.528
24318WAT     H273197   0.224   6.722   0.590
24319WAT      O73198   7.281   0.859   3.341
24319WAT     H173199   7.322   0.774   3.372
24319WAT     H273200   7.197   0.877   3.393
24320WAT      O73201   2.916   3.877   9.411
24320WAT     H173202   2.877   3.914   9.327
24320WAT     H273203   2.853   3.896   9.487
24321WAT      O73204   4.958   5.936   3.441
24321WAT     H173205   5.049   5.977   3.451
24321WAT     H273206   4.952   5.890   3.352
24322WAT      O73207   6.029   5.558   2.816
24322WAT     H173208   6.046   5.478   2.758
24322WAT     H273209   6.113   5.612   2.824
24323WAT      O73210   1.069   5.079   2.332
24323WAT     H173211   1.150   5.056   2.386
24323WAT     H273212   1.084   5.165   2.284
24324WAT      O73213   3.208   1.065   1.915
24324WAT     H173214   3.300   1.034   1.890
24324WAT     H273215   3.142   1.030   1.849
24325WAT      O73216   4.180   6.849   6.968
24325WAT     H173217   4.220   6.763   7.000
24325WAT     H273218   4.226   6.877   6.883
24326WAT      O73219   2.969   4.628   8.558
24326WAT     H173220   2.945   4.553   8.620
24326WAT     H273221   2.996   4.590   8.470
24327WAT      O73222   2.455   8.541   4.036
24327WAT     H173223   2.462   8.622   4.095
24327WAT     H273224   2.471   8.567   3.941
24328WAT      O73225   9.132   3.599   2.066
24328WAT     H173226   9.126   3.558   2.157
24328WAT     H273227   9.227   3.600   2.035
24329WAT      O73228   2.203   0.896   9.061
24329WAT     H173229   2.217   0.987   9.022
24329WAT     H273230   2.105   0.879   9.071
24330WAT      O73231   8.576   0.236   4.426
24330WAT     H173232   8.595   0.285   4.341
24330WAT     H273233   8.644   0.261   4.495
24331WAT      O73234   1.625   8.360   4.548
24331WAT     H173235   1.541   8.317   4.515
24331WAT     H273236   1.665   8.416   4.476
24332WAT      O73237   9.382   6.129   4.128
24332WAT     H173238   9.463   6.102   4.180
24332WAT     H273239   9.384   6.085   4.038
24333WAT      O73240   6.818   3.611   1.577
24333WAT     H173241   6.814   3.688   1.641
24333WAT     H273242   6.727   3.571   1.567
24334WAT      O73243   5.079   3.509   0.897
24334WAT     H173244   5.097   3.525   0.994
24334WAT     H273245   5.092   3.412   0.876
24335WAT      O73246   4.382   9.658   8.167
24335WAT     H173247   4.338   9.743   8.193
24335WAT     H273248   4.439   9.625   8.242
24336WAT      O73249   2.289   4.834   4.668
24336WAT     H173250   2.387   4.848   4.662
24336WAT     H273251   2.246   4.857   4.580
24337WAT      O73252   9.102   5.151   2.675
24337WAT     H173253   9.011   5.173   2.638
24337WAT     H273254   9.122   5.213   2.751
24338WAT      O73255   1.055   0.423   6.800
24338WAT     H173256   0.981   0.490   6.807
24338WAT     H273257   1.133   0.453   6.854
24339WAT      O73258   9.193   9.114   3.183
24339WAT     H173259   9.097   9.128   3.159
24339WAT     H273260   9.248   9.109   3.100
24340WAT      O73261   0.698   7.751   4.557
24340WAT     H173262   0.633   7.823   4.532
24340WAT     H273263   0.676   7.667   4.507
24341WAT      O73264   8.648   2.567   3.013
24341WAT     H173265   8.704   2.568   2.930
24341WAT     H273266   8.638   2.660   3.047
24342WAT      O73267   7.874   8.831   2.084
24342WAT     H173268   7.906   8.780   2.004
24342WAT     H273269   7.774   8.824   2.089
24343WAT      O73270   1.318   5.280   1.456
24343WAT     H173271   1.376   5.311   1.380
24343WAT     H273272   1.327   5.342   1.533
24344WAT      O73273   3.815   5.967   4.198
24344WAT     H173274   3.854   5.875   4.206
24344WAT     H273275   3.888   6.035   4.206
24345WAT      O73276   4.516   4.458   7.821
24345WAT     H173277   4.563   4.547   7.822
24345WAT     H273278   4.462   4.448   7.904
24346WAT      O73279   2.415   0.720   2.475
24346WAT     H173280   2.333   0.668   2.497
24346WAT     H273281   2.433   0.786   2.548
24347WAT      O73282   1.769   0.331   5.683
24347WAT     H173283   1.787   0.352   5.587
24347WAT     H273284   1.844   0.277   5.721
24348WAT      O73285   2.384   9.615   2.311
24348WAT     H173286   2.404   9.691   2.249
24348WAT     H273287   2.316   9.644   2.378
24349WAT      O73288   6.109   5.327   7.615
24349WAT     H173289   6.114   5.427   7.607
24349WAT     H273290   6.066   5.302   7.701
24350WAT      O73291   5.621   5.713   5.392
24350WAT     H173292   5.578   5.743   5.307
24350WAT     H273293   5.680   5.785   5.427
24351WAT      O73294   4.651   1.722   7.939
24351WAT     H173295   4.660   1.623   7.943
24351WAT     H273296   4.613   1.756   8.026
24352WAT      O73297   3.843   9.147   5.027
24352WAT     H173298   3.888   9.059   5.044
24352WAT     H273299   3.812   9.150   4.932
24353WAT      O73300   9.022   0.146   0.455
24353WAT     H173301   8.970   0.106   0.379
24353WAT     H273302   8.970   0.135   0.539
24354WAT      O73303   4.515   3.475   0.756
24354WAT     H173304   4.443   3.438   0.698
24354WAT     H273305   4.485   3.476   0.851
24355WAT      O73306   6.975   5.035   9.858
24355WAT     H173307   6.967   5.134   9.874
24355WAT     H273308   7.056   5.001   9.906
24356WAT      O73309   0.606   5.318   1.145
24356WAT     H173310   0.608   5.280   1.053
24356WAT     H273311   0.687   5.288   1.195
24357WAT      O73312   8.731   5.364   9.198
24357WAT     H173313   8.782   5.389   9.116
24357WAT     H273314   8.743   5.267   9.217
24358WAT      O73315   3.341   3.053   0.338
24358WAT     H173316   3.311   3.097   0.253
24358WAT     H273317   3.266   3.056   0.404
24359WAT      O73318   9.706   7.999   7.592
24359WAT     H173319   9.782   8.059   7.567
24359WAT     H273320   9.701   7.922   7.528
24360WAT      O73321   1.425   8.844   3.082
24360WAT     H173322   1.356   8.772   3.077
24360WAT     H273323   1.409   8.911   3.009
24361WAT      O73324   5.707   4.456   1.572
24361WAT     H173325   5.677   4.447   1.477
24361WAT     H273326   5.638   4.418   1.633
24362WAT      O73327   2.421   4.927   5.130
24362WAT     H173328   2.513   4.961   5.152
24362WAT     H273329   2.374   4.995   5.074
24363WAT      O73330   9.577   8.007   6.122
24363WAT     H173331   9.647   8.062   6.167
24363WAT     H273332   9.533   8.062   6.051
24364WAT      O73333   2.544   4.045   0.922
24364WAT     H173334   2.632   4.087   0.904
24364WAT     H273335   2.555   3.970   0.989
24365WAT      O73336   1.175   5.499   9.750
24365WAT     H173337   1.175   5.499   9.650
24365WAT     H273338   1.207   5.410   9.783
24366WAT      O73339   0.891   4.868   4.487
24366WAT     H173340   0.958   4.930   4.527
24366WAT     H273341   0.855   4.907   4.402
24367WAT      O73342   2.350   9.187   3.632
24367WAT     H173343   2.324   9.269   3.582
24367WAT     H273344   2.447   9.192   3.658
24368WAT      O73345   2.874   6.401   6.184
24368WAT     H173346   2.889   6.491   6.142
24368WAT     H273347   2.843   6.413   6.278
24369WAT      O73348   1.479   5.387   1.213
24369WAT     H173349   1.524   5.440   1.285
24369WAT     H273350   1.544   5.321   1.175
24370WAT      O73351   2.763   8.852   1.240
24370WAT     H173352   2.679   8.822   1.286
24370WAT     H273353   2.836   8.786   1.257
24371WAT      O73354   1.511   3.605   4.148
24371WAT     H173355   1.425   3.621   4.197
24371WAT     H273356   1.496   3.540   4.074
24372WAT      O73357   4.164   5.702   6.200
24372WAT     H173358   4.093   5.759   6.241
24372WAT     H273359   4.126   5.613   6.176
24373WAT      O73360   8.849   9.090   5.210
24373WAT     H173361   8.906   9.057   5.134
24373WAT     H273362   8.896   9.072   5.297
24374WAT      O73363   9.265   8.486   5.133
24374WAT     H173364   9.340   8.542   5.168
24374WAT     H273365   9.302   8.410   5.080
24375WAT      O73366   8.412   1.607   2.789
24375WAT     H173367   8.419   1.706   2.781
24375WAT     H273368   8.452   1.577   2.876
24376WAT      O73369   2.629   4.339   0.658
24376WAT     H173370   2.641   4.243   0.633
24376WAT     H273371   2.549   4.377   0.611
24377WAT      O73372   3.459   2.043   6.165
24377WAT     H173373   3.502   2.020   6.077
24377WAT     H273374   3.509   2.119   6.207
24378WAT      O73375   4.203   6.811   5.760
24378WAT     H173376   4.149   6.887   5.726
24378WAT     H273377   4.167   6.725   5.723
24379WAT      O73378   1.557   4.592   7.202
24379WAT     H173379   1.501   4.552   7.275
24379WAT     H273380   1.623   4.524   7.170
24380WAT      O73381   0.469   0.666   9.047
24380WAT     H173382   0.385   0.712   9.018
24380WAT     H273383   0.454   0.568   9.051
24381WAT      O73384   2.305   6.626   8.973
24381WAT     H173385   2.266   6.623   8.881
24381WAT     H273386   2.287   6.716   9.013
24382WAT      O73387   2.734   4.600   1.389
24382WAT     H173388   2.704   4.509   1.361
24382WAT     H273389   2.818   4.624   1.340
24383WAT      O73390   2.485   1.010   8.051
24383WAT     H173391   2.388   1.006   8.074
24383WAT     H273392   2.503   1.091   7.995
24384WAT      O73393   5.994   0.164   9.330
24384WAT     H173394   6.047   0.103   9.389
24384WAT     H273395   6.026   0.156   9.236
24385WAT      O73396   5.487   6.202   9.209
24385WAT     H173397   5.406   6.208   9.268
24385WAT     H273398   5.511   6.106   9.196
24386WAT      O73399   0.219   9.288   6.591
24386WAT     H173400   0.125   9.317   6.606
24386WAT     H273401   0.271   9.362   6.548
24387WAT      O73402   2.013   2.041   8.729
24387WAT     H173403   2.095   1.998   8.769
24387WAT     H273404   1.953   2.072   8.803
24388WAT      O73405   0.194   3.286   3.895
24388WAT     H173406   0.127   3.248   3.831
24388WAT     H273407   0.224   3.376   3.863
24389WAT      O73408   8.235   1.136   8.071
24389WAT     H173409   8.235   1.144   8.170
24389WAT     H273410   8.156   1.082   8.041
24390WAT      O73411   6.561   7.736   5.792
24390WAT     H173412   6.601   7.828   5.793
24390WAT     H273413   6.627   7.671   5.830
24391WAT      O73414   2.082   2.462   4.480
24391WAT     H173415   2.115   2.382   4.531
24391WAT     H273416   2.097   2.447   4.382
24392WAT      O73417   9.530   3.384   9.490
24392WAT     H173418   9.476   3.305   9.459
24392WAT     H273419   9.627   3.362   9.484
24393WAT      O73420   2.879   9.259   1.107
24393WAT     H173421   2.915   9.345   1.072
24393WAT     H273422   2.951   9.210   1.157
24394WAT      O73423   6.564   1.869   0.928
24394WAT     H173424   6.627   1.846   0.853
24394WAT     H273425   6.472   1.882   0.891
24395WAT      O73426   2.136   9.584   0.992
24395WAT     H173427   2.219   9.608   0.941
24395WAT     H273428   2.159   9.568   1.088
24396WAT      O73429   7.105   3.893   8.235
24396WAT     H173430   7.189   3.881   8.288
24396WAT     H273431   7.031   3.920   8.296
24397WAT      O73432   9.105   7.317   2.499
24397WAT     H173433   9.144   7.317   2.406
24397WAT     H273434   9.010   7.284   2.495
24398WAT      O73435   7.640   7.977   2.773
24398WAT     H173436   7.677   8.042   2.840
24398WAT     H273437   7.604   7.897   2.820
24399WAT      O73438   6.335   2.564   4.970
24399WAT     H173439   6.421   2.611   4.953
24399WAT     H273440   6.271   2.627   5.014
24400WAT      O73441   6.072   1.407   2.263
24400WAT     H173442   5.993   1.349   2.241
24400WAT     H273443   6.153   1.372   2.216
24401WAT      O73444   2.859   5.168   7.946
24401WAT     H173445   2.766   5.153   7.979
24401WAT     H273446   2.907   5.081   7.942
24402WAT      O73447   2.196   2.484   3.673
24402WAT     H173448   2.274   2.540   3.703
24402WAT     H273449   2.204   2.392   3.711
24403WAT      O73450   0.825   5.783   5.319
24403WAT     H173451   0.862   5.793   5.227
24403WAT     H273452   0.835   5.689   5.350
24404WAT      O73453   5.527   9.258   2.348
24404WAT     H173454   5.446   9.252   2.290
24404WAT     H273455   5.508   9.313   2.428
24405WAT      O73456   3.368   5.630   0.950
24405WAT     H173457   3.408   5.579   0.874
24405WAT     H273458   3.440   5.660   1.012
24406WAT      O73459   5.480   1.006   3.386
24406WAT     H173460   5.556   0.950   3.421
24406WAT     H273461   5.512   1.100   3.370
24407WAT      O73462   5.279   5.165   9.847
24407WAT     H173463   5.359   5.106   9.835
24407WAT     H273464   5.241   5.150   9.939
24408WAT      O73465   4.514   6.647   9.345
24408WAT     H173466   4.536   6.712   9.416
24408WAT     H273467   4.444   6.686   9.284
24409WAT      O73468   5.516   8.856   5.859
24409WAT     H173469   5.460   8.776   5.836
24409WAT     H273470   5.515   8.920   5.782
24410WAT      O73471   3.268   1.775   0.358
24410WAT     H173472   3.256   1.853   0.420
24410WAT     H273473   3.261   1.690   0.410
24411WAT      O73474   3.017   3.884   9.793
24411WAT     H173475   2.960   3.814   9.749
24411WAT     H273476   2.987   3.897   9.887
24412WAT      O73477   3.136   9.119   0.330
24412WAT     H173478   3.061   9.087   0.272
24412WAT     H273479   3.136   9.068   0.416
24413WAT      O73480   5.042   6.490   2.170
24413WAT     H173481   5.087   6.409   2.206
24413WAT     H273482   5.085   6.517   2.084
24414WAT      O73483   7.341   5.543   6.403
24414WAT     H173484   7.393   5.553   6.318
24414WAT     H273485   7.384   5.474   6.461
24415WAT      O73486   3.968   9.834   6.614
24415WAT     H173487   4.015   9.791   6.537
24415WAT     H273488   3.892   9.890   6.579
24416WAT      O73489   6.284   5.130   1.108
24416WAT     H173490   6.258   5.048   1.056
24416WAT     H273491   6.331   5.103   1.192
24417WAT      O73492   3.156   9.422   7.788
24417WAT     H173493   3.193   9.503   7.743
24417WAT     H273494   3.079   9.449   7.847
24418WAT      O73495   4.166   7.554   7.381
24418WAT     H173496   4.242   7.509   7.334
24418WAT     H273497   4.182   7.652   7.384
24419WAT      O73498   1.726   2.850   2.357
24419WAT     H173499   1.746   2.926   2.296
24419WAT     H273500   1.727   2.764   2.305
24420WAT      O73501   3.031   9.244   7.339
24420WAT     H173502   2.993   9.173   7.279
24420WAT     H273503   2.960   9.276   7.402
24421WAT      O73504   1.664   3.343   4.440
24421WAT     H173505   1.751   3.390   4.459
24421WAT     H273506   1.588   3.406   4.459
24422WAT      O73507   3.033   9.469   2.920
24422WAT     H173508   3.090   9.392   2.947
24422WAT     H273509   3.090   9.551   2.912
24423WAT      O73510   1.695   9.534   7.974
24423WAT     H173511   1.758   9.529   8.051
24423WAT     H273512   1.714   9.459   7.910
24424WAT      O73513   5.674   1.082   4.886
24424WAT     H173514   5.671   1.169   4.837
24424WAT     H273515   5.610   1.018   4.843
24425WAT      O73516   5.076   2.711   1.456
24425WAT     H173517   5.160   2.690   1.406
24425WAT     H273518   5.009   2.639   1.440
24426WAT      O73519   3.038   5.989   2.581
24426WAT     H173520   3.109   5.971   2.649
24426WAT     H273521   2.959   6.032   2.625
24427WAT      O73522   7.774   2.033   7.862
24427WAT     H173523   7.844   2.004   7.927
24427WAT     H273524   7.702   2.083   7.911
24428WAT      O73525   7.680   3.979   3.844
24428WAT     H173526   7.662   3.905   3.909
24428WAT     H273527   7.597   4.032   3.829
24429WAT      O73528   2.468   8.950   4.618
24429WAT     H173529   2.509   8.935   4.528
24429WAT     H273530   2.405   8.875   4.639
24430WAT      O73531   2.931   5.430   0.277
24430WAT     H173532   2.854   5.460   0.220
24430WAT     H273533   3.010   5.412   0.219
24431WAT      O73534   9.852   1.045   7.770
24431WAT     H173535   9.854   0.980   7.694
24431WAT     H273536   9.915   1.015   7.841
24432WAT      O73537   0.613   8.296   4.902
24432WAT     H173538   0.652   8.252   4.983
24432WAT     H273539   0.546   8.365   4.931
24433WAT      O73540   2.088   6.827   9.668
24433WAT     H173541   2.066   6.886   9.745
24433WAT     H273542   2.119   6.883   9.591
24434WAT      O73543   8.025   0.846   5.517
24434WAT     H173544   7.987   0.822   5.428
24434WAT     H273545   7.970   0.919   5.558
24435WAT      O73546   3.747   5.843   7.340
24435WAT     H173547   3.779   5.880   7.253
24435WAT     H273548   3.648   5.855   7.348
24436WAT      O73549   6.888   4.934   0.887
24436WAT     H173550   6.854   4.950   0.794
24436WAT     H273551   6.932   4.845   0.892
24437WAT      O73552   9.438   5.573   6.774
24437WAT     H173553   9.351   5.594   6.818
24437WAT     H273554   9.513   5.591   6.838
24438WAT      O73555   3.458   8.573   9.575
24438WAT     H173556   3.428   8.493   9.525
24438WAT     H273557   3.397   8.650   9.556
24439WAT      O73558   4.020   2.544   6.133
24439WAT     H173559   4.087   2.499   6.074
24439WAT     H273560   4.017   2.641   6.113
24440WAT      O73561   9.546   7.379   1.879
24440WAT     H173562   9.495   7.412   1.800
24440WAT     H273563   9.511   7.290   1.907
24441WAT      O73564   9.246   1.185   7.226
24441WAT     H173565   9.163   1.163   7.277
24441WAT     H273566   9.322   1.197   7.290
24442WAT      O73567   6.228   9.507   7.475
24442WAT     H173568   6.244   9.539   7.381
24442WAT     H273569   6.254   9.410   7.481
24443WAT      O73570   1.133   1.046   8.085
24443WAT     H173571   1.115   0.954   8.121
24443WAT     H273572   1.112   1.114   8.155
24444WAT      O73573   2.738   2.497   0.599
24444WAT     H173574   2.670   2.571   0.601
24444WAT     H273575   2.757   2.466   0.692
24445WAT      O73576   1.788   4.155   1.048
24445WAT     H173577   1.838   4.100   1.114
24445WAT     H273578   1.843   4.235   1.023
24446WAT      O73579   5.042   9.022   9.338
24446WAT     H173580   4.990   9.102   9.309
24446WAT     H273581   5.122   9.011   9.279
24447WAT      O73582   1.748   7.978   3.345
24447WAT     H173583   1.740   7.977   3.245
24447WAT     H273584   1.773   8.070   3.375
24448WAT      O73585   2.162   5.851   8.171
24448WAT     H173586   2.116   5.775   8.218
24448WAT     H273587   2.241   5.815   8.122
24449WAT      O73588   1.361   0.973   0.141
24449WAT     H173589   1.350   0.874   0.130
24449WAT     H273590   1.325   1.000   0.230
24450WAT      O73591   4.803   4.209   1.479
24450WAT     H173592   4.808   4.126   1.425
24450WAT     H273593   4.869   4.276   1.445
24451WAT      O73594   9.151   0.018   7.434
24451WAT     H173595   9.099   0.035   7.351
24451WAT     H273596   9.246  -0.002   7.410
24452WAT      O73597   0.173   8.069   3.342
24452WAT     H173598   0.210   8.143   3.398
24452WAT     H273599   0.185   8.091   3.245
24453WAT      O73600   2.584   3.409   0.311
24453WAT     H173601   2.493   3.384   0.344
24453WAT     H273602   2.594   3.509   0.314
24454WAT      O73603   4.077   2.955   9.611
24454WAT     H173604   4.040   3.008   9.535
24454WAT     H273605   4.145   3.010   9.660
24455WAT      O73606   9.368   2.149   4.820
24455WAT     H173607   9.455   2.156   4.869
24455WAT     H273608   9.374   2.074   4.753
24456WAT      O73609   1.383   9.229   6.538
24456WAT     H173610   1.378   9.131   6.555
24456WAT     H273611   1.301   9.257   6.487
24457WAT      O73612   1.531   5.563   0.506
24457WAT     H173613   1.536   5.466   0.527
24457WAT     H273614   1.623   5.599   0.492
24458WAT      O73615   0.146   6.036   6.757
24458WAT     H173616   0.132   6.130   6.725
24458WAT     H273617   0.107   6.026   6.848
24459WAT      O73618   3.505   8.542   2.504
24459WAT     H173619   3.439   8.586   2.443
24459WAT     H273620   3.462   8.525   2.592
24460WAT      O73621   4.281   3.544   6.561
24460WAT     H173622   4.266   3.556   6.659
24460WAT     H273623   4.353   3.476   6.546
24461WAT      O73624   6.423   3.987   5.097
24461WAT     H173625   6.361   3.909   5.089
24461WAT     H273626   6.457   3.993   5.191
24462WAT      O73627   2.711   7.902   7.081
24462WAT     H173628   2.644   7.914   7.007
24462WAT     H273629   2.749   7.810   7.077
24463WAT      O73630   0.156   5.513   4.178
24463WAT     H173631   0.089   5.520   4.252
24463WAT     H273632   0.200   5.423   4.181
24464WAT      O73633   8.686   7.829   2.161
24464WAT     H173634   8.633   7.894   2.217
24464WAT     H273635   8.689   7.741   2.207
24465WAT      O73636   6.511   7.822   9.737
24465WAT     H173637   6.604   7.810   9.773
24465WAT     H273638   6.457   7.875   9.802
24466WAT      O73639   9.670   4.032   9.219
24466WAT     H173640   9.761   4.031   9.177
24466WAT     H273641   9.608   4.086   9.163
24467WAT      O73642   5.927   5.450   7.347
24467WAT     H173643   5.855   5.518   7.359
24467WAT     H273644   5.901   5.365   7.393
24468WAT      O73645   6.698   7.866   7.683
24468WAT     H173646   6.725   7.913   7.767
24468WAT     H273647   6.613   7.816   7.698
24469WAT      O73648   6.007   3.898   8.022
24469WAT     H173649   6.063   3.826   8.064
24469WAT     H273650   6.066   3.971   7.989
24470WAT      O73651   3.464   5.648   2.074
24470WAT     H173652   3.428   5.672   2.164
24470WAT     H273653   3.425   5.561   2.045
24471WAT      O73654   1.933   3.880   0.329
24471WAT     H173655   2.011   3.942   0.330
24471WAT     H273656   1.948   3.806   0.395
24472WAT      O73657   7.373   7.315   4.038
24472WAT     H173658   7.287   7.266   4.051
24472WAT     H273659   7.438   7.256   3.989
24473WAT      O73660   9.333   8.546   6.489
24473WAT     H173661   9.339   8.645   6.500
24473WAT     H273662   9.269   8.524   6.416
24474WAT      O73663   1.016   6.118   8.032
24474WAT     H173664   1.010   6.030   8.077
24474WAT     H273665   1.102   6.123   7.980
24475WAT      O73666   9.887   1.055   0.894
24475WAT     H173667   9.823   1.126   0.866
24475WAT     H273668   9.846   0.965   0.880
24476WAT      O73669   0.743   2.871   5.676
24476WAT     H173670   0.711   2.948   5.620
24476WAT     H273671   0.709   2.882   5.770
24477WAT      O73672   9.290   2.339   3.623
24477WAT     H173673   9.377   2.291   3.609
24477WAT     H273674   9.303   2.410   3.692
24478WAT      O73675   8.012   6.908   5.591
24478WAT     H173676   7.986   6.996   5.630
24478WAT     H273677   8.079   6.864   5.650
24479WAT      O73678   2.494   5.814   0.386
24479WAT     H173679   2.593   5.828   0.398
24479WAT     H273680   2.477   5.769   0.298
24480WAT      O73681   2.750   2.730   2.592
24480WAT     H173682   2.771   2.782   2.675
24480WAT     H273683   2.735   2.792   2.516
24481WAT      O73684   7.018   1.095   3.278
24481WAT     H173685   6.973   1.047   3.202
24481WAT     H273686   6.963   1.083   3.361
24482WAT      O73687   8.311   1.504   8.866
24482WAT     H173688   8.282   1.598   8.852
24482WAT     H273689   8.250   1.442   8.817
24483WAT      O73690   6.457   0.896   9.419
24483WAT     H173691   6.362   0.925   9.404
24483WAT     H273692   6.515   0.931   9.345
24484WAT      O73693   9.256   3.409   4.528
24484WAT     H173694   9.220   3.322   4.562
24484WAT     H273695   9.201   3.484   4.564
24485WAT      O73696   8.889   0.870   6.469
24485WAT     H173697   8.958   0.907   6.406
24485WAT     H273698   8.927   0.866   6.561
24486WAT      O73699   2.075   8.412   5.375
24486WAT     H173700   2.089   8.323   5.332
24486WAT     H273701   2.035   8.399   5.466
24487WAT      O73702   2.517   3.162   6.587
24487WAT     H173703   2.535   3.067   6.561
24487WAT     H273704   2.462   3.164   6.671
24488WAT      O73705   5.298   6.673   4.164
24488WAT     H173706   5.303   6.650   4.067
24488WAT     H273707   5.342   6.761   4.180
24489WAT      O73708   5.524   0.122   2.588
24489WAT     H173709   5.562   0.134   2.679
24489WAT     H273710   5.430   0.086   2.596
24490WAT      O73711   5.954   9.216   9.636
24490WAT     H173712   6.046   9.256   9.639
24490WAT     H273713   5.951   9.137   9.697
24491WAT      O73714   3.700   0.809   8.279
24491WAT     H173715   3.681   0.735   8.343
24491WAT     H273716   3.797   0.831   8.281
24492WAT      O73717   8.901   8.167   9.775
24492WAT     H173718   8.997   8.191   9.762
24492WAT     H273719   8.847   8.203   9.699
24493WAT      O73720   7.461   5.869   3.219
24493WAT     H173721   7.399   5.790   3.216
24493WAT     H273722   7.414   5.947   3.260
24494WAT      O73723   4.555   9.183   3.700
24494WAT     H173724   4.589   9.095   3.669
24494WAT     H273725   4.552   9.247   3.623
24495WAT      O73726   2.649   6.706   8.831
24495WAT     H173727   2.589   6.774   8.790
24495WAT     H273728   2.706   6.748   8.901
24496WAT      O73729   8.565   9.262   8.272
24496WAT     H173730   8.550   9.168   8.302
24496WAT     H273731   8.646   9.266   8.215
24497WAT      O73732   4.450   1.939   2.229
24497WAT     H173733   4.414   1.910   2.141
24497WAT     H273734   4.492   2.030   2.220
24498WAT      O73735   8.654   5.265   4.746
24498WAT     H173736   8.662   5.361   4.716
24498WAT     H273737   8.722   5.210   4.697
24499WAT      O73738   2.352   8.080   1.803
24499WAT     H173739   2.348   8.028   1.718
24499WAT     H273740   2.318   8.173   1.787
24500WAT      O73741   0.495   7.948   4.506
24500WAT     H173742   0.438   8.004   4.446
24500WAT     H273743   0.580   7.996   4.526
24501WAT      O73744   7.356   8.521   5.089
24501WAT     H173745   7.278   8.487   5.038
24501WAT     H273746   7.438   8.470   5.064
24502WAT      O73747   0.865   1.008   5.123
24502WAT     H173748   0.836   0.944   5.195
24502WAT     H273749   0.787   1.065   5.097
24503WAT      O73750   1.895   1.477   3.143
24503WAT     H173751   1.853   1.394   3.107
24503WAT     H273752   1.994   1.465   3.150
24504WAT      O73753   8.221   5.815   1.909
24504WAT     H173754   8.235   5.767   1.996
24504WAT     H273755   8.204   5.912   1.927
24505WAT      O73756   0.367   5.024   8.529
24505WAT     H173757   0.271   5.043   8.547
24505WAT     H273758   0.406   5.096   8.472
24506WAT      O73759   6.458   4.494   8.339
24506WAT     H173760   6.378   4.518   8.393
24506WAT     H273761   6.475   4.565   8.270
24507WAT      O73762   8.096   9.667   0.728
24507WAT     H173763   8.036   9.725   0.782
24507WAT     H273764   8.185   9.713   0.716
24508WAT      O73765   1.253   2.733   2.599
24508WAT     H173766   1.285   2.653   2.650
24508WAT     H273767   1.331   2.777   2.555
24509WAT      O73768   5.438   2.292   3.462
24509WAT     H173769   5.471   2.230   3.534
24509WAT     H273770   5.481   2.382   3.473
24510WAT      O73771   1.458   0.493   5.982
24510WAT     H173772   1.381   0.454   6.032
24510WAT     H273773   1.491   0.426   5.915
24511WAT      O73774   7.666   3.899   0.213
24511WAT     H173775   7.635   3.809   0.244
24511WAT     H273776   7.692   3.954   0.292
24512WAT      O73777   1.059   1.530   4.057
24512WAT     H173778   1.143   1.574   4.027
24512WAT     H273779   0.986   1.598   4.065
24513WAT      O73780   2.346   1.431   8.413
24513WAT     H173781   2.410   1.455   8.339
24513WAT     H273782   2.303   1.514   8.448
24514WAT      O73783   3.150   8.040   4.967
24514WAT     H173784   3.061   7.996   4.951
24514WAT     H273785   3.207   8.029   4.886
24515WAT      O73786   5.640   2.629   1.471
24515WAT     H173787   5.552   2.583   1.482
24515WAT     H273788   5.662   2.637   1.374
24516WAT      O73789   7.703   9.412   7.970
24516WAT     H173790   7.688   9.332   7.911
24516WAT     H273791   7.660   9.492   7.929
24517WAT      O73792   5.482   2.431   5.338
24517WAT     H173793   5.510   2.527   5.332
24517WAT     H273794   5.545   2.375   5.285
24518WAT      O73795   5.710   6.515   5.457
24518WAT     H173796   5.726   6.416   5.452
24518WAT     H273797   5.794   6.564   5.435
24519WAT      O73798   4.525   1.249   2.226
24519WAT     H173799   4.563   1.259   2.318
24519WAT     H273800   4.476   1.332   2.201
24520WAT      O73801   1.359   0.733   8.139
24520WAT     H173802   1.419   0.813   8.139
24520WAT     H273803   1.264   0.763   8.147
24521WAT      O73804   8.880   6.709   2.134
24521WAT     H173805   8.892   6.727   2.231
24521WAT     H273806   8.963   6.736   2.084
24522WAT      O73807   5.825   2.060   3.362
24522WAT     H173808   5.917   2.023   3.372
24522WAT     H273809   5.788   2.081   3.453
24523WAT      O73810   9.117   4.128   5.859
24523WAT     H173811   9.136   4.092   5.951
24523WAT     H273812   9.190   4.100   5.797
24524WAT      O73813   5.272   2.189   4.131
24524WAT     H173814   5.237   2.162   4.221
24524WAT     H273815   5.367   2.159   4.122
24525WAT      O73816   9.278   3.433   6.821
24525WAT     H173817   9.244   3.425   6.915
24525WAT     H273818   9.201   3.445   6.759
24526WAT      O73819   1.461   4.978   6.171
24526WAT     H173820   1.446   4.919   6.092
24526WAT     H273821   1.554   4.965   6.205
24527WAT      O73822   6.118   9.188   4.776
24527WAT     H173823   6.029   9.207   4.818
24527WAT     H273824   6.177   9.141   4.842
24528WAT      O73825   6.535   5.209   0.237
24528WAT     H173826   6.584   5.216   0.324
24528WAT     H273827   6.583   5.261   0.167
24529WAT      O73828   1.020   0.820   8.406
24529WAT     H173829   1.040   0.771   8.492
24529WAT     H273830   0.988   0.912   8.427
24530WAT      O73831   6.420   9.804   9.504
24530WAT     H173832   6.443   9.839   9.595
24530WAT     H273833   6.321   9.803   9.492
24531WAT      O73834   5.843   4.870   3.451
24531WAT     H173835   5.927   4.890   3.400
24531WAT     H273836   5.843   4.924   3.536
24532WAT      O73837   1.248   9.627   8.602
24532WAT     H173838   1.254   9.719   8.563
24532WAT     H273839   1.230   9.561   8.529
24533WAT      O73840   4.518   0.051   5.326
24533WAT     H173841   4.594  -0.013   5.318
24533WAT     H273842   4.453   0.035   5.252
24534WAT      O73843   8.068   3.040   7.833
24534WAT     H173844   8.135   3.101   7.874
24534WAT     H273845   8.112   2.953   7.810
24535WAT      O73846   5.250   1.731   0.311
24535WAT     H173847   5.335   1.777   0.283
24535WAT     H273848   5.184   1.734   0.237
24536WAT      O73849   8.504   0.578   5.093
24536WAT     H173850   8.469   0.565   5.000
24536WAT     H273851   8.523   0.488   5.134
24537WAT      O73852   0.060   1.541   1.474
24537WAT     H173853   0.125   1.571   1.543
24537WAT     H273854  -0.031   1.534   1.514
24538WAT      O73855   8.244   8.189   4.080
24538WAT     H173856   8.264   8.182   4.178
24538WAT     H273857   8.297   8.121   4.030
24539WAT      O73858   7.824   6.597   9.504
24539WAT     H173859   7.853   6.565   9.594
24539WAT     H273860   7.901   6.643   9.459
24540WAT      O73861   4.645   8.810   9.196
24540WAT     H173862   4.606   8.861   9.273
24540WAT     H273863   4.582   8.813   9.119
24541WAT      O73864   8.609   9.089   6.505
24541WAT     H173865   8.522   9.040   6.514
24541WAT     H273866   8.684   9.027   6.528
24542WAT      O73867   9.193   4.506   5.489
24542WAT     H173868   9.159   4.589   5.445
24542WAT     H273869   9.117   4.444   5.508
24543WAT      O73870   0.041   8.113   0.573
24543WAT     H173871   0.006   8.166   0.650
24543WAT     H273872   0.140   8.103   0.581
24544WAT      O73873   0.826   7.965   1.126
24544WAT     H173874   0.797   7.993   1.217
24544WAT     H273875   0.912   7.915   1.132
24545WAT      O73876   6.418   4.802   2.762
24545WAT     H173877   6.390   4.869   2.693
24545WAT     H273878   6.445   4.717   2.717
24546WAT      O73879   1.335   6.361   1.506
24546WAT     H173880   1.372   6.454   1.499
24546WAT     H273881   1.362   6.308   1.426
24547WAT      O73882   1.475   1.404   4.029
24547WAT     H173883   1.441   1.472   4.094
24547WAT     H273884   1.557   1.361   4.066
24548WAT      O73885   4.427   7.859   6.874
24548WAT     H173886   4.340   7.812   6.881
24548WAT     H273887   4.490   7.805   6.818
24549WAT      O73888   6.017   0.714   8.205
24549WAT     H173889   5.948   0.719   8.133
24549WAT     H273890   6.084   0.643   8.183
24550WAT      O73891   2.628   1.175   4.805
24550WAT     H173892   2.687   1.160   4.727
24550WAT     H273893   2.643   1.104   4.873
24551WAT      O73894   3.154   4.510   5.017
24551WAT     H173895   3.125   4.504   5.112
24551WAT     H273896   3.199   4.598   5.001
24552WAT      O73897   4.703   2.711   4.580
24552WAT     H173898   4.799   2.738   4.570
24552WAT     H273899   4.695   2.643   4.653
24553WAT      O73900   1.357   2.321   4.092
24553WAT     H173901   1.389   2.275   4.009
24553WAT     H273902   1.264   2.354   4.079
24554WAT      O73903   7.469   4.264   3.300
24554WAT     H173904   7.411   4.302   3.372
24554WAT     H273905   7.485   4.334   3.230
24555WAT      O73906   6.937   5.505   0.166
24555WAT     H173907   7.010   5.551   0.217
24555WAT     H273908   6.848   5.531   0.204
24556WAT      O73909   2.577   1.230   3.989
24556WAT     H173910   2.612   1.227   3.895
24556WAT     H273911   2.560   1.326   4.014
24557WAT      O73912   6.747   6.885   6.239
24557WAT     H173913   6.678   6.947   6.279
24557WAT     H273914   6.837   6.928   6.243
24558WAT      O73915   7.741   8.878   8.437
24558WAT     H173916   7.647   8.850   8.458
24558WAT     H273917   7.780   8.926   8.516
24559WAT      O73918   8.314   3.294   1.555
24559WAT     H173919   8.237   3.246   1.515
24559WAT     H273920   8.369   3.231   1.609
24560WAT      O73921   6.430   1.450   1.061
24560WAT     H173922   6.360   1.380   1.042
24560WAT     H273923   6.501   1.446   0.990
24561WAT      O73924   6.633   7.532   3.499
24561WAT     H173925   6.595   7.456   3.552
24561WAT     H273926   6.559   7.583   3.455
24562WAT      O73927   6.380   6.278   3.294
24562WAT     H173928   6.384   6.193   3.240
24562WAT     H273929   6.344   6.352   3.236
24563WAT      O73930   7.705   9.842   8.818
24563WAT     H173931   7.628   9.840   8.881
24563WAT     H273932   7.755   9.755   8.822
24564WAT      O73933   4.028   9.012   7.834
24564WAT     H173934   3.966   8.962   7.895
24564WAT     H273935   3.990   9.012   7.741
24565WAT      O73936   0.330   4.585   9.103
24565WAT     H173937   0.424   4.609   9.076
24565WAT     H273938   0.266   4.643   9.054
24566WAT      O73939   7.507   5.890   2.518
24566WAT     H173940   7.474   5.806   2.561
24566WAT     H273941   7.454   5.909   2.435
24567WAT      O73942   1.813   3.840   1.487
24567WAT     H173943   1.845   3.881   1.402
24567WAT     H273944   1.714   3.854   1.496
24568WAT      O73945   0.802   0.216   6.793
24568WAT     H173946   0.828   0.188   6.886
24568WAT     H273947   0.883   0.250   6.745
24569WAT      O73948   7.185   3.436   1.729
24569WAT     H173949   7.141   3.411   1.815
24569WAT     H273950   7.280   3.406   1.730
24570WAT      O73951   4.388   8.614   3.668
24570WAT     H173952   4.416   8.520   3.646
24570WAT     H273953   4.298   8.632   3.629
24571WAT      O73954   0.579   4.505   7.664
24571WAT     H173955   0.624   4.439   7.604
24571WAT     H273956   0.635   4.520   7.746
24572WAT      O73957   7.810   8.636   4.417
24572WAT     H173958   7.863   8.702   4.365
24572WAT     H273959   7.760   8.684   4.490
24573WAT      O73960   4.391   2.834   8.956
24573WAT     H173961   4.421   2.818   8.862
24573WAT     H273962   4.439   2.772   9.018
24574WAT      O73963   6.737   5.191   9.727
24574WAT     H173964   6.712   5.271   9.672
24574WAT     H273965   6.709   5.108   9.680
24575WAT      O73966   2.670   3.508   6.842
24575WAT     H173967   2.738   3.511   6.915
24575WAT     H273968   2.579   3.519   6.880
24576WAT      O73969   7.877   2.041   8.462
24576WAT     H173970   7.964   2.088   8.477
24576WAT     H273971   7.802   2.107   8.463
24577WAT      O73972   3.575   6.088   0.903
24577WAT     H173973   3.541   6.149   0.831
24577WAT     H273974   3.497   6.041   0.945
24578WAT      O73975   8.228   9.187   2.331
24578WAT     H173976   8.294   9.113   2.344
24578WAT     H273977   8.254   9.240   2.250
24579WAT      O73978   3.914   8.346   1.715
24579WAT     H173979   4.007   8.334   1.751
24579WAT     H273980   3.852   8.364   1.791
24580WAT      O73981   2.503   3.128   8.710
24580WAT     H173982   2.464   3.175   8.790
24580WAT     H273983   2.430   3.107   8.646
24581WAT      O73984   0.153   2.921   1.789
24581WAT     H173985   0.245   2.881   1.790
24581WAT     H273986   0.131   2.952   1.696
24582WAT      O73987   8.375   6.761   4.434
24582WAT     H173988   8.415   6.700   4.366
24582WAT     H273989   8.410   6.854   4.420
24583WAT      O73990   0.886   1.674   9.345
24583WAT     H173991   0.970   1.715   9.310
24583WAT     H273992   0.809   1.734   9.325
24584WAT      O73993   9.302   0.307   9.047
24584WAT     H173994   9.381   0.271   8.997
24584WAT     H273995   9.238   0.232   9.068
24585WAT      O73996   1.679   2.399   4.412
24585WAT     H173997   1.736   2.352   4.345
24585WAT     H273998   1.588   2.358   4.412
24586WAT      O73999   7.797   3.436   5.558
24586WAT     H174000   7.825   3.532   5.547
24586WAT     H274001   7.869   3.386   5.606
24587WAT      O74002   2.320   7.504   1.472
24587WAT     H174003   2.244   7.440   1.461
24587WAT     H274004   2.284   7.598   1.476
24588WAT      O74005   9.087   4.588   4.194
24588WAT     H174006   9.067   4.633   4.281
24588WAT     H274007   9.018   4.518   4.175
24589WAT      O74008   6.202   6.052   3.440
24589WAT     H174009   6.250   5.987   3.499
24589WAT     H274010   6.266   6.120   3.405
24590WAT      O74011   2.053   6.886   4.156
24590WAT     H174012   1.971   6.865   4.210
24590WAT     H274013   2.120   6.813   4.169
24591WAT      O74014   2.036   2.092   5.791
24591WAT     H174015   2.024   2.001   5.832
24591WAT     H274016   1.955   2.117   5.739
24592WAT      O74017   4.448   9.034   1.144
24592WAT     H174018   4.459   9.096   1.066
24592WAT     H274019   4.534   9.031   1.196
24593WAT      O74020   0.936   0.310   3.900
24593WAT     H174021   0.976   0.400   3.886
24593WAT     H274022   0.991   0.259   3.966
24594WAT      O74023   5.345   0.597   8.782
24594WAT     H174024   5.402   0.590   8.865
24594WAT     H274025   5.282   0.519   8.778
24595WAT      O74026   9.013   7.659   3.743
24595WAT     H174027   9.101   7.614   3.726
24595WAT     H274028   9.023   7.723   3.819
24596WAT      O74029   3.640   6.776   6.767
24596WAT     H174030   3.705   6.845   6.738
24596WAT     H274031   3.679   6.685   6.751
24597WAT      O74032   8.670   6.711   6.510
24597WAT     H174033   8.690   6.690   6.606
24597WAT     H274034   8.652   6.626   6.460
24598WAT      O74035   4.963   1.954   3.953
24598WAT     H174036   4.925   1.982   4.041
24598WAT     H274037   5.035   2.018   3.926
24599WAT      O74038   2.319   8.131   3.268
24599WAT     H174039   2.372   8.058   3.225
24599WAT     H274040   2.355   8.219   3.239
24600WAT      O74041   0.911   1.246   6.845
24600WAT     H174042   0.992   1.258   6.787
24600WAT     H274043   0.902   1.325   6.905
24601WAT      O74044   2.305   1.485   6.811
24601WAT     H174045   2.286   1.578   6.779
24601WAT     H274046   2.343   1.431   6.736
24602WAT      O74047   6.031   6.838   5.630
24602WAT     H174048   6.075   6.876   5.548
24602WAT     H274049   6.098   6.833   5.704
24603WAT      O74050   6.056   6.457   3.289
24603WAT     H174051   6.077   6.369   3.245
24603WAT     H274052   6.028   6.441   3.384
24604WAT      O74053   3.112   8.869   6.188
24604WAT     H174054   3.110   8.948   6.249
24604WAT     H274055   3.028   8.866   6.134
24605WAT      O74056   3.982   7.698   4.019
24605WAT     H174057   3.909   7.766   4.028
24605WAT     H274058   4.050   7.712   4.090
24606WAT      O74059   1.564   5.754   3.291
24606WAT     H174060   1.482   5.786   3.243
24606WAT     H274061   1.605   5.829   3.342
24607WAT      O74062   9.765   1.789   2.060
24607WAT     H174063   9.674   1.788   2.018
24607WAT     H274064   9.833   1.815   1.991
24608WAT      O74065   1.171   4.365   5.777
24608WAT     H174066   1.186   4.296   5.847
24608WAT     H274067   1.079   4.403   5.788
24609WAT      O74068   2.387   9.107   1.389
24609WAT     H174069   2.482   9.104   1.358
24609WAT     H274070   2.385   9.110   1.489
24610WAT      O74071   1.612   8.556   2.194
24610WAT     H174072   1.629   8.513   2.282
24610WAT     H274073   1.697   8.594   2.158
24611WAT      O74074   4.480   8.893   7.507
24611WAT     H174075   4.477   8.836   7.424
24611WAT     H274076   4.390   8.936   7.520
24612WAT      O74077   3.419   6.411   1.132
24612WAT     H174078   3.378   6.497   1.162
24612WAT     H274079   3.405   6.400   1.034
24613WAT      O74080   3.870   5.021   7.589
24613WAT     H174081   3.775   5.052   7.577
24613WAT     H274082   3.875   4.959   7.667
24614WAT      O74083   5.518   0.650   9.003
24614WAT     H174084   5.537   0.565   9.052
24614WAT     H274085   5.603   0.683   8.961
24615WAT      O74086   6.085   8.000   2.464
24615WAT     H174087   6.173   8.035   2.434
24615WAT     H274088   6.015   8.071   2.454
24616WAT      O74089   4.323   2.954   2.378
24616WAT     H174090   4.389   3.013   2.425
24616WAT     H274091   4.330   2.968   2.280
24617WAT      O74092   6.836   9.730   2.411
24617WAT     H174093   6.811   9.802   2.475
24617WAT     H274094   6.769   9.656   2.415
24618WAT      O74095   0.387   2.328   0.835
24618WAT     H174096   0.485   2.308   0.831
24618WAT     H274097   0.363   2.391   0.760
24619WAT      O74098   5.670   2.626   2.942
24619WAT     H174099   5.669   2.702   2.877
24619WAT     H274100   5.584   2.625   2.993
24620WAT      O74101   5.792   5.042   5.122
24620WAT     H174102   5.694   5.061   5.120
24620WAT     H274103   5.815   4.992   5.205
24621WAT      O74104   6.660   7.287   5.551
24621WAT     H174105   6.741   7.264   5.604
24621WAT     H274106   6.597   7.209   5.550
24622WAT      O74107   5.712   1.527   8.151
24622WAT     H174108   5.663   1.450   8.111
24622WAT     H274109   5.648   1.586   8.199
24623WAT      O74110   3.118   0.451   7.382
24623WAT     H174111   3.051   0.506   7.433
24623WAT     H274112   3.086   0.357   7.376
24624WAT      O74113   4.344   7.984   2.485
24624WAT     H174114   4.322   8.071   2.529
24624WAT     H274115   4.434   7.953   2.514
24625WAT      O74116   7.243   5.457   1.213
24625WAT     H174117   7.148   5.448   1.244
24625WAT     H274118   7.248   5.525   1.141
24626WAT      O74119   7.035   2.011   9.575
24626WAT     H174120   7.036   2.101   9.618
24626WAT     H274121   6.970   1.952   9.623
24627WAT      O74122   2.285   7.954   8.599
24627WAT     H174123   2.377   7.923   8.574
24627WAT     H274124   2.262   8.036   8.546
24628WAT      O74125   2.383   3.405   9.374
24628WAT     H174126   2.387   3.311   9.408
24628WAT     H274127   2.303   3.451   9.413
24629WAT      O74128   1.450   3.877   6.318
24629WAT     H174129   1.417   3.855   6.226
24629WAT     H274130   1.373   3.895   6.378
24630WAT      O74131   1.475   4.710   5.652
24630WAT     H174132   1.556   4.681   5.703
24630WAT     H274133   1.463   4.809   5.661
24631WAT      O74134   6.708   6.682   5.725
24631WAT     H174135   6.709   6.582   5.736
24631WAT     H274136   6.738   6.706   5.633
24632WAT      O74137   3.851   6.479   8.125
24632WAT     H174138   3.946   6.497   8.153
24632WAT     H274139   3.790   6.540   8.175
24633WAT      O74140   5.315   2.760   5.656
24633WAT     H174141   5.411   2.753   5.684
24633WAT     H274142   5.277   2.847   5.689
24634WAT      O74143   8.184   7.918   0.902
24634WAT     H174144   8.192   7.881   0.995
24634WAT     H274145   8.149   8.011   0.907
24635WAT      O74146   0.314   3.454   7.166
24635WAT     H174147   0.270   3.487   7.249
24635WAT     H274148   0.319   3.354   7.168
24636WAT      O74149   2.104   8.776   4.125
24636WAT     H174150   2.191   8.779   4.075
24636WAT     H274151   2.075   8.681   4.136
24637WAT      O74152   3.476   7.068   6.931
24637WAT     H174153   3.477   7.132   6.854
24637WAT     H274154   3.436   6.981   6.902
24638WAT      O74155   4.633   2.681   5.124
24638WAT     H174156   4.604   2.750   5.191
24638WAT     H274157   4.605   2.710   5.033
24639WAT      O74158   7.275   9.553   5.674
24639WAT     H174159   7.330   9.499   5.610
24639WAT     H274160   7.280   9.650   5.649
24640WAT      O74161   2.194   9.187   9.150
24640WAT     H174162   2.291   9.207   9.137
24640WAT     H274163   2.176   9.165   9.246
24641WAT      O74164   9.691   1.257   0.876
24641WAT     H174165   9.656   1.310   0.953
24641WAT     H274166   9.709   1.318   0.798
24642WAT      O74167   8.391   4.561   5.053
24642WAT     H174168   8.296   4.567   5.022
24642WAT     H274169   8.440   4.495   4.996
24643WAT      O74170   7.376   4.512   5.565
24643WAT     H174171   7.362   4.418   5.597
24643WAT     H274172   7.455   4.552   5.612
24644WAT      O74173   9.189   0.909   1.172
24644WAT     H174174   9.178   0.935   1.268
24644WAT     H274175   9.109   0.858   1.142
24645WAT      O74176   0.597   3.083   9.162
24645WAT     H174177   0.521   3.147   9.174
24645WAT     H274178   0.660   3.091   9.240
24646WAT      O74179   0.185   3.517   7.389
24646WAT     H174180   0.241   3.549   7.466
24646WAT     H274181   0.117   3.452   7.423
24647WAT      O74182   8.175   8.082   3.623
24647WAT     H174183   8.176   8.003   3.685
24647WAT     H274184   8.219   8.160   3.668
24648WAT      O74185   6.670   5.281   7.142
24648WAT     H174186   6.749   5.327   7.183
24648WAT     H274187   6.590   5.294   7.199
24649WAT      O74188   6.551   0.802   7.824
24649WAT     H174189   6.500   0.745   7.760
24649WAT     H274190   6.602   0.871   7.772
24650WAT      O74191   3.027   1.572   7.839
24650WAT     H174192   2.971   1.552   7.759
24650WAT     H274193   3.113   1.521   7.834
24651WAT      O74194   2.178   2.669   9.263
24651WAT     H174195   2.182   2.768   9.256
24651WAT     H274196   2.239   2.628   9.195
24652WAT      O74197   1.466   4.849   9.069
24652WAT     H174198   1.426   4.934   9.035
24652WAT     H274199   1.394   4.780   9.078
24653WAT      O74200   3.652   5.343   3.285
24653WAT     H174201   3.674   5.397   3.367
24653WAT     H274202   3.673   5.397   3.204
24654WAT      O74203   6.564   8.369   4.592
24654WAT     H174204   6.472   8.336   4.574
24654WAT     H274205   6.560   8.453   4.647
24655WAT      O74206   8.887   1.208   6.268
24655WAT     H174207   8.792   1.194   6.241
24655WAT     H274208   8.891   1.258   6.354
24656WAT      O74209   2.439   5.569   3.818
24656WAT     H174210   2.370   5.636   3.791
24656WAT     H274211   2.396   5.496   3.870
24657WAT      O74212   4.160   7.309   9.463
24657WAT     H174213   4.204   7.396   9.438
24657WAT     H274214   4.099   7.325   9.541
24658WAT      O74215   5.172   7.380   7.801
24658WAT     H174216   5.205   7.332   7.882
24658WAT     H274217   5.217   7.468   7.793
24659WAT      O74218   2.696   8.216   9.485
24659WAT     H174219   2.638   8.140   9.515
24659WAT     H274220   2.777   8.222   9.543
24660WAT      O74221   7.002   2.860   1.046
24660WAT     H174222   7.027   2.924   1.118
24660WAT     H274223   6.995   2.908   0.959
24661WAT      O74224   4.889   8.246   4.189
24661WAT     H174225   4.866   8.264   4.285
24661WAT     H274226   4.887   8.147   4.173
24662WAT      O74227   9.633   5.432   0.096
24662WAT     H174228   9.627   5.393   0.188
24662WAT     H274229   9.615   5.530   0.100
24663WAT      O74230   6.778   8.379   9.754
24663WAT     H174231   6.814   8.317   9.684
24663WAT     H274232   6.791   8.473   9.725
24664WAT      O74233   1.696   5.427   8.605
24664WAT     H174234   1.617   5.425   8.544
24664WAT     H274235   1.769   5.370   8.568
24665WAT      O74236   3.725   7.832   8.279
24665WAT     H174237   3.651   7.769   8.303
24665WAT     H274238   3.813   7.791   8.302
24666WAT      O74239   8.520   7.205   2.655
24666WAT     H174240   8.535   7.304   2.651
24666WAT     H274241   8.607   7.159   2.672
24667WAT      O74242   2.992   5.643   0.614
24667WAT     H174243   2.934   5.567   0.582
24667WAT     H274244   3.000   5.711   0.541
24668WAT      O74245   2.911   8.206   0.988
24668WAT     H174246   2.814   8.193   1.012
24668WAT     H274247   2.920   8.207   0.889
24669WAT      O74248   6.523   4.598   9.500
24669WAT     H174249   6.548   4.533   9.572
24669WAT     H274250   6.596   4.666   9.489
24670WAT      O74251   8.722   3.772   9.046
24670WAT     H174252   8.664   3.814   8.976
24670WAT     H274253   8.780   3.842   9.087
24671WAT      O74254   7.051   9.058   9.745
24671WAT     H174255   7.000   9.113   9.678
24671WAT     H274256   7.141   9.035   9.707
24672WAT      O74257   9.255   6.491   5.619
24672WAT     H174258   9.295   6.553   5.552
24672WAT     H274259   9.162   6.468   5.592
24673WAT      O74260   8.861   9.057   8.313
24673WAT     H174261   8.961   9.058   8.323
24673WAT     H274262   8.818   9.080   8.400
24674WAT      O74263   3.050   7.674   5.986
24674WAT     H174264   2.964   7.674   5.936
24674WAT     H274265   3.125   7.651   5.923
24675WAT      O74266   8.226   3.902   6.779
24675WAT     H174267   8.196   3.960   6.704
24675WAT     H274268   8.296   3.949   6.832
24676WAT      O74269   0.385   2.883   5.219
24676WAT     H174270   0.329   2.882   5.302
24676WAT     H274271   0.449   2.806   5.222
24677WAT      O74272   2.798   0.346   7.269
24677WAT     H174273   2.738   0.426   7.270
24677WAT     H274274   2.762   0.275   7.330
24678WAT      O74275   5.763   9.258   8.743
24678WAT     H174276   5.758   9.158   8.745
24678WAT     H274277   5.719   9.294   8.826
24679WAT      O74278   8.664   5.062   1.513
24679WAT     H174279   8.714   5.128   1.457
24679WAT     H274280   8.729   4.994   1.550
24680WAT      O74281   0.977   1.181   6.175
24680WAT     H174282   1.074   1.160   6.187
24680WAT     H274283   0.930   1.101   6.139
24681WAT      O74284   4.211   0.960   7.534
24681WAT     H174285   4.236   1.025   7.462
24681WAT     H274286   4.112   0.949   7.537
24682WAT      O74287   7.748   5.964   6.210
24682WAT     H174288   7.692   5.914   6.276
24682WAT     H274289   7.719   6.059   6.206
24683WAT      O74290   0.312   2.642   4.859
24683WAT     H174291   0.248   2.565   4.861
24683WAT     H274292   0.391   2.622   4.916
24684WAT      O74293   0.272   1.305   1.286
24684WAT     H174294   0.231   1.279   1.198
24684WAT     H274295   0.210   1.278   1.360
24685WAT      O74296   6.924   3.740   3.073
24685WAT     H174297   6.940   3.719   3.170
24685WAT     H274298   6.879   3.662   3.029
24686WAT      O74299   5.414   5.516   5.870
24686WAT     H174300   5.379   5.441   5.812
24686WAT     H274301   5.468   5.477   5.944
24687WAT      O74302   9.448   5.672   6.503
24687WAT     H174303   9.474   5.624   6.587
24687WAT     H274304   9.530   5.710   6.460
24688WAT      O74305   0.639   9.210   6.997
24688WAT     H174306   0.679   9.169   7.079
24688WAT     H274307   0.712   9.252   6.942
24689WAT      O74308   5.905   7.967   6.222
24689WAT     H174309   5.937   8.015   6.303
24689WAT     H274310   5.872   7.876   6.248
24690WAT      O74311   0.154   7.804   1.022
24690WAT     H174312   0.206   7.748   0.958
24690WAT     H274313   0.201   7.806   1.110
24691WAT      O74314   2.650   0.120   9.437
24691WAT     H174315   2.694   0.180   9.503
24691WAT     H274316   2.633   0.030   9.479
24692WAT      O74317   2.135   3.544   7.003
24692WAT     H174318   2.128   3.640   6.977
24692WAT     H274319   2.050   3.516   7.049
24693WAT      O74320   8.517   1.423   1.667
24693WAT     H174321   8.466   1.453   1.748
24693WAT     H274322   8.613   1.450   1.676
24694WAT      O74323   8.084   0.621   4.789
24694WAT     H174324   8.136   0.591   4.710
24694WAT     H274325   8.013   0.685   4.760
24695WAT      O74326   2.197   9.844   9.176
24695WAT     H174327   2.142   9.795   9.109
24695WAT     H274328   2.277   9.884   9.131
24696WAT      O74329   2.293   5.135   4.981
24696WAT     H174330   2.232   5.200   5.027
24696WAT     H274331   2.246   5.095   4.902
24697WAT      O74332   2.937   2.417   5.082
24697WAT     H174333   3.027   2.459   5.094
24697WAT     H274334   2.949   2.321   5.057
24698WAT      O74335   5.572   3.301   8.663
24698WAT     H174336   5.560   3.362   8.584
24698WAT     H274337   5.653   3.330   8.714
24699WAT      O74338   9.115   6.408   3.040
24699WAT     H174339   9.036   6.445   3.089
24699WAT     H274340   9.198   6.453   3.072
24700WAT      O74341   2.524   1.873   5.328
24700WAT     H174342   2.563   1.926   5.253
24700WAT     H274343   2.479   1.791   5.292
24701WAT      O74344   1.090   8.701   2.518
24701WAT     H174345   1.088   8.621   2.458
24701WAT     H274346   1.045   8.679   2.604
24702WAT      O74347   7.958   3.640   3.357
24702WAT     H174348   8.034   3.609   3.414
24702WAT     H274349   7.964   3.597   3.267
24703WAT      O74350   0.187   9.487   1.673
24703WAT     H174351   0.195   9.580   1.711
24703WAT     H274352   0.093   9.472   1.643
24704WAT      O74353   0.620   4.231   1.327
24704WAT     H174354   0.638   4.324   1.295
24704WAT     H274355   0.574   4.180   1.253
24705WAT      O74356   7.281   2.378   7.869
24705WAT     H174357   7.214   2.307   7.892
24705WAT     H274358   7.286   2.445   7.943
24706WAT      O74359   4.868   6.507   5.333
24706WAT     H174360   4.789   6.559   5.301
24706WAT     H274361   4.883   6.428   5.272
24707WAT      O74362   1.148   7.860   7.896
24707WAT     H174363   1.180   7.787   7.956
24707WAT     H274364   1.198   7.857   7.809
24708WAT      O74365   8.919   5.812   3.613
24708WAT     H174366   8.928   5.714   3.597
24708WAT     H274367   9.010   5.854   3.610
24709WAT      O74368   5.510   2.493   3.720
24709WAT     H174369   5.516   2.581   3.767
24709WAT     H274370   5.441   2.436   3.764
24710WAT      O74371   8.856   7.147   6.014
24710WAT     H174372   8.941   7.105   6.047
24710WAT     H274373   8.779   7.087   6.036
24711WAT      O74374   8.476   7.018   4.388
24711WAT     H174375   8.469   7.105   4.437
24711WAT     H274376   8.465   7.034   4.290
24712WAT      O74377   9.250   0.268   9.733
24712WAT     H174378   9.215   0.331   9.664
24712WAT     H274379   9.350   0.274   9.736
24713WAT      O74380   0.603   5.475   6.643
24713WAT     H174381   0.530   5.503   6.580
24713WAT     H274382   0.692   5.495   6.603
24714WAT      O74383   7.777   1.521   8.969
24714WAT     H174384   7.833   1.541   8.888
24714WAT     H274385   7.783   1.597   9.034
24715WAT      O74386   5.038   1.749   7.966
24715WAT     H174387   4.976   1.719   7.893
24715WAT     H274388   5.129   1.712   7.950
24716WAT      O74389   1.008   8.687   7.986
24716WAT     H174390   0.947   8.637   7.926
24716WAT     H274391   1.069   8.744   7.932
24717WAT      O74392   7.106   0.251   6.903
24717WAT     H174393   7.107   0.349   6.925
24717WAT     H274394   7.176   0.204   6.957
24718WAT      O74395   6.303   5.134   9.539
24718WAT     H174396   6.403   5.129   9.534
24718WAT     H274397   6.263   5.111   9.451
24719WAT      O74398   6.917   9.693   6.866
24719WAT     H174399   7.009   9.654   6.859
24719WAT     H274400   6.913   9.778   6.814
24720WAT      O74401   6.970   5.163   6.367
24720WAT     H174402   6.884   5.118   6.341
24720WAT     H274403   6.966   5.188   6.464
24721WAT      O74404   7.840   9.595   5.914
24721WAT     H174405   7.921   9.575   5.860
24721WAT     H274406   7.792   9.510   5.934
24722WAT      O74407   9.845   9.085   4.564
24722WAT     H174408   9.841   9.002   4.620
24722WAT     H274409   9.916   9.076   4.495
24723WAT      O74410   1.186   3.687   9.501
24723WAT     H174411   1.124   3.700   9.423
24723WAT     H274412   1.241   3.769   9.515
24724WAT      O74413   0.065   0.742   5.570
24724WAT     H174414   0.014   0.705   5.492
24724WAT     H274415   0.105   0.668   5.623
24725WAT      O74416   1.279   4.371   2.784
24725WAT     H174417   1.251   4.275   2.786
24725WAT     H274418   1.235   4.419   2.859
24726WAT      O74419   2.921   0.588   0.715
24726WAT     H174420   2.977   0.654   0.664
24726WAT     H274421   2.946   0.591   0.811
24727WAT      O74422   1.274   9.436   5.106
24727WAT     H174423   1.234   9.488   5.181
24727WAT     H274424   1.363   9.476   5.082
24728WAT      O74425   3.345   5.036   9.720
24728WAT     H174426   3.376   4.941   9.714
24728WAT     H274427   3.403   5.086   9.785
24729WAT      O74428   0.543   7.005   5.776
24729WAT     H174429   0.632   7.039   5.809
24729WAT     H274430   0.480   6.998   5.854
24730WAT      O74431   6.604   1.143   4.822
24730WAT     H174432   6.595   1.045   4.805
24730WAT     H274433   6.522   1.190   4.792
24731WAT      O74434   7.682   5.046   2.589
24731WAT     H174435   7.614   5.097   2.538
24731WAT     H274436   7.651   4.952   2.602
24732WAT      O74437   9.874   5.395   9.341
24732WAT     H174438   9.795   5.426   9.395
24732WAT     H274439   9.954   5.388   9.401
24733WAT      O74440   8.026   6.472   8.570
24733WAT     H174441   7.995   6.461   8.476
24733WAT     H274442   8.003   6.390   8.623
24734WAT      O74443   4.860   2.039   5.888
24734WAT     H174444   4.804   2.019   5.969
24734WAT     H274445   4.884   2.136   5.888
24735WAT      O74446   0.389   8.905   1.434
24735WAT     H174447   0.406   8.990   1.384
24735WAT     H274448   0.391   8.923   1.533
24736WAT      O74449   8.741   2.989   4.710
24736WAT     H174450   8.674   3.001   4.783
24736WAT     H274451   8.784   2.899   4.719
24737WAT      O74452   5.810   3.869   5.961
24737WAT     H174453   5.835   3.775   5.985
24737WAT     H274454   5.764   3.870   5.872
24738WAT      O74455   3.405   8.084   3.683
24738WAT     H174456   3.313   8.085   3.721
24738WAT     H274457   3.433   7.990   3.664
24739WAT      O74458   0.716   2.513   5.980
24739WAT     H174459   0.756   2.448   5.916
24739WAT     H274460   0.645   2.467   6.034
24740WAT      O74461   7.572   1.372   1.376
24740WAT     H174462   7.585   1.460   1.420
24740WAT     H274463   7.601   1.377   1.280
24741WAT      O74464   3.536   7.409   7.250
24741WAT     H174465   3.486   7.326   7.225
24741WAT     H274466   3.510   7.484   7.190
24742WAT      O74467   0.074   1.719   6.786
24742WAT     H174468   0.006   1.790   6.770
24742WAT     H274469   0.056   1.675   6.874
24743WAT      O74470   2.782   4.219   7.458
24743WAT     H174471   2.823   4.244   7.546
24743WAT     H274472   2.706   4.281   7.438
24744WAT      O74473   8.777   3.991   9.824
24744WAT     H174474   8.687   4.004   9.784
24744WAT     H274475   8.772   4.004   9.923
24745WAT      O74476   3.896   0.463   1.255
24745WAT     H174477   3.951   0.458   1.172
24745WAT     H274478   3.885   0.558   1.282
24746WAT      O74479   9.080   3.812   7.189
24746WAT     H174480   9.112   3.816   7.284
24746WAT     H274481   8.986   3.779   7.187
24747WAT      O74482   0.994   6.926   4.487
24747WAT     H174483   1.005   7.025   4.491
24747WAT     H274484   0.989   6.896   4.392
24748WAT      O74485   1.245   9.292   2.234
24748WAT     H174486   1.249   9.238   2.318
24748WAT     H274487   1.188   9.373   2.250
24749WAT      O74488   8.053   1.050   7.099
24749WAT     H174489   7.977   0.986   7.085
24749WAT     H274490   8.037   1.103   7.183
24750WAT      O74491   1.683   0.841   5.956
24750WAT     H174492   1.712   0.797   5.871
24750WAT     H274493   1.671   0.771   6.027
24751WAT      O74494   5.922   3.895   1.837
24751WAT     H174495   5.942   3.884   1.739
24751WAT     H274496   5.911   3.992   1.858
24752WAT      O74497   9.201   1.298   9.167
24752WAT     H174498   9.103   1.315   9.175
24752WAT     H274499   9.222   1.208   9.203
24753WAT      O74500   1.148   0.350   5.299
24753WAT     H174501   1.203   0.312   5.372
24753WAT     H274502   1.063   0.387   5.337
24754WAT      O74503   1.730   1.579   0.455
24754WAT     H174504   1.683   1.664   0.432
24754WAT     H274505   1.814   1.572   0.402
24755WAT      O74506   6.678   0.618   2.211
24755WAT     H174507   6.593   0.669   2.224
24755WAT     H274508   6.737   0.666   2.146
24756WAT      O74509   5.289   0.586   9.387
24756WAT     H174510   5.336   0.498   9.378
24756WAT     H274511   5.201   0.581   9.340
24757WAT      O74512   4.133   2.356   2.691
24757WAT     H174513   4.186   2.272   2.702
24757WAT     H274514   4.073   2.369   2.770
24758WAT      O74515   9.671   8.088   9.320
24758WAT     H174516   9.692   8.011   9.259
24758WAT     H274517   9.750   8.107   9.377
24759WAT      O74518   2.342   7.395   2.054
24759WAT     H174519   2.431   7.397   2.007
24759WAT     H274520   2.353   7.428   2.148
24760WAT      O74521   9.469   7.087   6.745
24760WAT     H174522   9.495   7.029   6.668
24760WAT     H274523   9.508   7.178   6.732
24761WAT      O74524   7.865   4.350   8.661
24761WAT     H174525   7.820   4.336   8.572
24761WAT     H274526   7.837   4.438   8.699
24762WAT      O74527   4.972   5.546   3.635
24762WAT     H174528   5.038   5.618   3.656
24762WAT     H274529   5.006   5.458   3.666
24763WAT      O74530   1.784   6.838   7.972
24763WAT     H174531   1.790   6.899   8.051
24763WAT     H274532   1.846   6.760   7.985
24764WAT      O74533   8.471   6.707   3.612
24764WAT     H174534   8.475   6.715   3.512
24764WAT     H274535   8.466   6.611   3.637
24765WAT      O74536   4.621   6.318   7.294
24765WAT     H174537   4.709   6.356   7.264
24765WAT     H274538   4.574   6.385   7.352
24766WAT      O74539   4.835   9.348   3.179
24766WAT     H174540   4.827   9.287   3.100
24766WAT     H274541   4.823   9.443   3.151
24767WAT      O74542   1.847   8.346   8.199
24767WAT     H174543   1.861   8.395   8.285
24767WAT     H274544   1.888   8.398   8.124
24768WAT      O74545   1.538   0.702   0.310
24768WAT     H174546   1.442   0.697   0.338
24768WAT     H274547   1.561   0.623   0.253
24769WAT      O74548   9.680   2.292   0.413
24769WAT     H174549   9.655   2.241   0.495
24769WAT     H274550   9.641   2.248   0.332
24770WAT      O74551   7.926   4.206   8.272
24770WAT     H174552   8.007   4.265   8.278
24770WAT     H274553   7.925   4.161   8.182
24771WAT      O74554   7.443   5.156   3.602
24771WAT     H174555   7.402   5.247   3.608
24771WAT     H274556   7.542   5.163   3.611
24772WAT      O74557   0.324   0.368   1.146
24772WAT     H174558   0.335   0.457   1.189
24772WAT     H274559   0.394   0.305   1.181
24773WAT      O74560   8.688   1.431   4.553
24773WAT     H174561   8.688   1.370   4.474
24773WAT     H274562   8.750   1.508   4.535
24774WAT      O74563   3.347   8.807   7.667
24774WAT     H174564   3.398   8.845   7.590
24774WAT     H274565   3.409   8.756   7.726
24775WAT      O74566   5.741   4.214   8.012
24775WAT     H174567   5.781   4.144   8.072
24775WAT     H274568   5.641   4.213   8.023
24776WAT      O74569   3.945   0.047   5.189
24776WAT     H174570   3.922   0.001   5.274
24776WAT     H274571   3.961   0.144   5.207
24777WAT      O74572   9.641   2.098   0.601
24777WAT     H174573   9.711   2.028   0.587
24777WAT     H274574   9.553   2.064   0.570
24778WAT      O74575   7.951   7.818   3.024
24778WAT     H174576   7.858   7.783   3.017
24778WAT     H274577   7.960   7.872   3.108
24779WAT      O74578   1.535   4.158   5.852
24779WAT     H174579   1.507   4.247   5.817
24779WAT     H274580   1.628   4.164   5.889
24780WAT      O74581   3.571   2.368   6.497
24780WAT     H174582   3.488   2.372   6.552
24780WAT     H274583   3.600   2.461   6.474
24781WAT      O74584   4.924   5.738   0.509
24781WAT     H174585   4.891   5.805   0.443
24781WAT     H274586   5.023   5.741   0.515
24782WAT      O74587   5.722   0.468   2.296
24782WAT     H174588   5.682   0.418   2.373
24782WAT     H274589   5.657   0.468   2.220
24783WAT      O74590   6.132   4.918   4.906
24783WAT     H174591   6.193   4.850   4.865
24783WAT     H274592   6.061   4.871   4.959
24784WAT      O74593   3.108   7.699   2.202
24784WAT     H174594   3.158   7.626   2.250
24784WAT     H274595   3.141   7.787   2.235
24785WAT      O74596   7.764   0.749   6.625
24785WAT     H174597   7.755   0.848   6.617
24785WAT     H274598   7.676   0.706   6.606
24786WAT      O74599   6.412   9.526   4.331
24786WAT     H174600   6.489   9.494   4.275
24786WAT     H274601   6.329   9.476   4.306
24787WAT      O74602   9.440   4.021   3.838
24787WAT     H174603   9.481   3.942   3.792
24787WAT     H274604   9.429   4.001   3.935
24788WAT      O74605   6.196   9.080   0.167
24788WAT     H174606   6.221   9.155   0.228
24788WAT     H274607   6.274   9.018   0.156
24789WAT      O74608   8.346   6.822   2.448
24789WAT     H174609   8.314   6.904   2.496
24789WAT     H274610   8.443   6.830   2.429
24790WAT      O74611   9.361   5.998   6.077
24790WAT     H174612   9.420   5.918   6.090
24790WAT     H274613   9.273   5.981   6.121
24791WAT      O74614   6.057   0.014   5.056
24791WAT     H174615   6.019   0.086   5.114
24791WAT     H274616   5.984  -0.050   5.031
24792WAT      O74617   6.141   5.363   2.127
24792WAT     H174618   6.144   5.270   2.090
24792WAT     H274619   6.095   5.363   2.216
24793WAT      O74620   6.104   3.470   5.991
24793WAT     H174621   6.100   3.386   5.937
24793WAT     H274622   6.167   3.535   5.948
24794WAT      O74623   9.063   8.649   5.041
24794WAT     H174624   9.102   8.727   4.992
24794WAT     H274625   9.137   8.586   5.066
24795WAT      O74626   2.100   0.720   5.841
24795WAT     H174627   2.046   0.637   5.855
24795WAT     H274628   2.171   0.702   5.773
24796WAT      O74629   2.606   0.177   4.459
24796WAT     H174630   2.663   0.257   4.479
24796WAT     H274631   2.523   0.180   4.514
24797WAT      O74632   0.809   8.790   9.016
24797WAT     H174633   0.859   8.744   8.943
24797WAT     H274634   0.874   8.831   9.080
24798WAT      O74635   7.616   8.280   8.225
24798WAT     H174636   7.623   8.377   8.244
24798WAT     H274637   7.605   8.229   8.310
24799WAT      O74638   7.130   1.349   0.629
24799WAT     H174639   7.060   1.413   0.598
24799WAT     H274640   7.086   1.273   0.678
24800WAT      O74641   5.631   8.156   6.340
24800WAT     H174642   5.722   8.114   6.344
24800WAT     H274643   5.594   8.145   6.248
24801WAT      O74644   6.437   9.640   1.094
24801WAT     H174645   6.378   9.572   1.136
24801WAT     H274646   6.408   9.655   0.999
24802WAT      O74647   8.904   1.973   5.068
24802WAT     H174648   8.861   2.005   5.153
24802WAT     H274649   8.891   2.042   4.997
24803WAT      O74650   9.094   7.200   0.996
24803WAT     H174651   9.114   7.292   0.962
24803WAT     H274652   9.079   7.204   1.095
24804WAT      O74653   6.934   3.055   4.261
24804WAT     H174654   6.880   3.060   4.177
24804WAT     H274655   6.884   3.003   4.331
24805WAT      O74656   7.556   1.568   7.868
24805WAT     H174657   7.533   1.632   7.795
24805WAT     H274658   7.477   1.556   7.928
24806WAT      O74659   7.784   3.783   3.525
24806WAT     H174660   7.704   3.811   3.472
24806WAT     H274661   7.838   3.718   3.472
24807WAT      O74662   9.128   8.973   0.631
24807WAT     H174663   9.162   8.881   0.647
24807WAT     H274664   9.203   9.031   0.597
24808WAT      O74665   2.120   7.776   3.936
24808WAT     H174666   2.108   7.685   3.975
24808WAT     H274667   2.170   7.834   4.000
24809WAT      O74668   7.919   7.877   5.932
24809WAT     H174669   7.984   7.802   5.948
24809WAT     H274670   7.920   7.902   5.836
24810WAT      O74671   9.323   3.742   6.330
24810WAT     H174672   9.302   3.645   6.346
24810WAT     H274673   9.399   3.749   6.265
24811WAT      O74674   3.984   7.962   3.118
24811WAT     H174675   3.964   7.884   3.177
24811WAT     H274676   3.982   8.046   3.173
24812WAT      O74677   0.014   5.349   6.526
24812WAT     H174678  -0.075   5.349   6.570
24812WAT     H274679   0.003   5.337   6.427
24813WAT      O74680   6.481   4.835   0.052
24813WAT     H174681   6.436   4.746   0.047
24813WAT     H274682   6.576   4.827   0.022
24814WAT      O74683   4.389   2.856   6.351
24814WAT     H174684   4.454   2.864   6.427
24814WAT     H274685   4.431   2.893   6.268
24815WAT      O74686   8.219   8.987   3.899
24815WAT     H174687   8.236   8.968   3.996
24815WAT     H274688   8.124   8.964   3.877
24816WAT      O74689   6.915   0.910   7.045
24816WAT     H174690   6.896   0.825   7.094
24816WAT     H274691   6.833   0.967   7.044
24817WAT      O74692   3.472   8.305   6.622
24817WAT     H174693   3.430   8.380   6.571
24817WAT     H274694   3.538   8.257   6.564
24818WAT      O74695   6.057   7.097   5.952
24818WAT     H174696   6.034   7.149   6.034
24818WAT     H274697   5.979   7.095   5.890
24819WAT      O74698   3.651   8.038   4.991
24819WAT     H174699   3.558   8.022   4.958
24819WAT     H274700   3.672   7.971   5.063
24820WAT      O74701   1.652   4.585   6.655
24820WAT     H174702   1.643   4.488   6.678
24820WAT     H274703   1.600   4.604   6.571
24821WAT      O74704   1.075   6.674   9.413
24821WAT     H174705   1.034   6.604   9.355
24821WAT     H274706   1.048   6.765   9.380
24822WAT      O74707   0.380   0.079   6.536
24822WAT     H174708   0.451   0.051   6.472
24822WAT     H274709   0.290   0.054   6.500
24823WAT      O74710   9.116   6.553   4.146
24823WAT     H174711   9.102   6.514   4.237
24823WAT     H274712   9.176   6.494   4.093
24824WAT      O74713   0.254   0.322   5.527
24824WAT     H174714   0.311   0.250   5.567
24824WAT     H274715   0.192   0.283   5.460
24825WAT      O74716   9.832   4.011   3.108
24825WAT     H174717   9.767   3.936   3.094
24825WAT     H274718   9.919   3.988   3.065
24826WAT      O74719   0.879   3.083   1.311
24826WAT     H174720   0.934   3.005   1.284
24826WAT     H274721   0.869   3.146   1.234
24827WAT      O74722   3.775   9.475   5.152
24827WAT     H174723   3.839   9.492   5.077
24827WAT     H274724   3.805   9.395   5.204
24828WAT      O74725   5.507   5.734   8.444
24828WAT     H174726   5.478   5.645   8.478
24828WAT     H274727   5.606   5.741   8.448
24829WAT      O74728   5.528   6.405   6.096
24829WAT     H174729   5.527   6.503   6.074
24829WAT     H274730   5.451   6.383   6.156
24830WAT      O74731   0.362   5.775   1.580
24830WAT     H174732   0.447   5.828   1.575
24830WAT     H274733   0.325   5.779   1.672
24831WAT      O74734   8.392   3.225   9.772
24831WAT     H174735   8.367   3.321   9.788
24831WAT     H274736   8.325   3.165   9.816
24832WAT      O74737   9.576   3.958   0.722
24832WAT     H174738   9.622   4.026   0.664
24832WAT     H274739   9.639   3.882   0.741
24833WAT      O74740   2.674   0.491   7.930
24833WAT     H174741   2.574   0.496   7.928
24833WAT     H274742   2.712   0.580   7.907
24834WAT      O74743   2.831   8.762   4.934
24834WAT     H174744   2.789   8.843   4.893
24834WAT     H274745   2.900   8.790   5.000
24835WAT      O74746   0.639   2.777   9.307
24835WAT     H174747   0.734   2.792   9.280
24835WAT     H274748   0.589   2.864   9.303
24836WAT      O74749   7.942   9.768   5.547
24836WAT     H174750   7.962   9.692   5.485
24836WAT     H274751   7.851   9.755   5.586
24837WAT      O74752   8.018   8.971   7.181
24837WAT     H174753   7.952   8.968   7.255
24837WAT     H274754   8.080   9.048   7.194
24838WAT      O74755   6.697   7.557   1.599
24838WAT     H174756   6.680   7.532   1.503
24838WAT     H274757   6.788   7.527   1.625
24839WAT      O74758   1.823   5.087   9.824
24839WAT     H174759   1.763   5.160   9.791
24839WAT     H274760   1.821   5.010   9.760
24840WAT      O74761   8.880   5.386   3.031
24840WAT     H174762   8.931   5.472   3.035
24840WAT     H274763   8.794   5.395   3.081
24841WAT      O74764   1.386   0.278   9.495
24841WAT     H174765   1.294   0.266   9.533
24841WAT     H274766   1.386   0.356   9.432
24842WAT      O74767   1.015   1.224   8.272
24842WAT     H174768   0.955   1.259   8.345
24842WAT     H274769   0.996   1.272   8.187
24843WAT      O74770   2.246   6.621   7.978
24843WAT     H174771   2.232   6.630   7.879
24843WAT     H274772   2.343   6.617   7.998
24844WAT      O74773   9.328   6.416   0.326
24844WAT     H174774   9.294   6.475   0.400
24844WAT     H274775   9.287   6.325   0.335
24845WAT      O74776   1.980   0.926   0.518
24845WAT     H174777   1.976   1.000   0.451
24845WAT     H274778   2.058   0.867   0.498
24846WAT      O74779   0.526   0.766   4.646
24846WAT     H174780   0.461   0.780   4.571
24846WAT     H274781   0.561   0.672   4.642
24847WAT      O74782   4.658   2.435   6.987
24847WAT     H174783   4.728   2.367   7.010
24847WAT     H274784   4.701   2.511   6.938
24848WAT      O74785   8.207   1.585   7.656
24848WAT     H174786   8.290   1.589   7.602
24848WAT     H274787   8.226   1.540   7.744
24849WAT      O74788   8.122   4.338   8.712
24849WAT     H174789   8.022   4.337   8.708
24849WAT     H274790   8.158   4.264   8.655
24850WAT      O74791   6.554   0.557   5.302
24850WAT     H174792   6.460   0.539   5.275
24850WAT     H274793   6.597   0.619   5.237
24851WAT      O74794   0.710   6.829   3.627
24851WAT     H174795   0.742   6.804   3.718
24851WAT     H274796   0.625   6.881   3.634
24852WAT      O74797   2.337   9.552   7.257
24852WAT     H174798   2.239   9.558   7.240
24852WAT     H274799   2.353   9.535   7.354
24853WAT      O74800   5.188   2.508   6.332
24853WAT     H174801   5.098   2.515   6.289
24853WAT     H274802   5.227   2.600   6.343
24854WAT      O74803   6.671   2.302   5.235
24854WAT     H174804   6.732   2.379   5.217
24854WAT     H274805   6.629   2.272   5.149
24855WAT      O74806   9.288   1.332   0.317
24855WAT     H174807   9.289   1.335   0.417
24855WAT     H274808   9.209   1.279   0.286
24856WAT      O74809   2.115   1.906   8.051
24856WAT     H174810   2.126   1.871   8.144
24856WAT     H274811   2.056   1.986   8.052
24857WAT      O74812   0.214   6.429   2.213
24857WAT     H174813   0.158   6.512   2.215
24857WAT     H274814   0.158   6.352   2.182
24858WAT      O74815   8.128   7.058   8.911
24858WAT     H174816   8.191   7.076   8.835
24858WAT     H274817   8.164   6.981   8.965
24859WAT      O74818   7.739   7.843   6.431
24859WAT     H174819   7.733   7.942   6.415
24859WAT     H274820   7.824   7.808   6.392
24860WAT      O74821   9.869   8.741   5.262
24860WAT     H174822   9.812   8.665   5.231
24860WAT     H274823   9.812   8.808   5.310
24861WAT      O74824   4.732   4.005   5.854
24861WAT     H174825   4.775   4.010   5.764
24861WAT     H274826   4.709   3.911   5.875
24862WAT      O74827   7.092   1.940   9.288
24862WAT     H174828   7.109   1.903   9.379
24862WAT     H274829   6.993   1.952   9.274
24863WAT      O74830   1.346   7.296   0.261
24863WAT     H174831   1.260   7.320   0.307
24863WAT     H274832   1.393   7.226   0.314
24864WAT      O74833   8.011   8.086   7.486
24864WAT     H174834   8.062   8.106   7.570
24864WAT     H274835   7.914   8.082   7.507
24865WAT      O74836   2.457   8.967   3.823
24865WAT     H174837   2.537   8.927   3.867
24865WAT     H274838   2.375   8.915   3.848
24866WAT      O74839   8.606   5.018   8.947
24866WAT     H174840   8.700   5.039   8.921
24866WAT     H274841   8.603   4.932   8.997
24867WAT      O74842   9.009   3.983   8.173
24867WAT     H174843   8.917   3.948   8.186
24867WAT     H274844   9.047   4.015   8.260
24868WAT      O74845   4.349   7.300   2.400
24868WAT     H174846   4.389   7.336   2.484
24868WAT     H274847   4.321   7.205   2.414
24869WAT      O74848   3.249   9.251   5.589
24869WAT     H174849   3.281   9.328   5.534
24869WAT     H274850   3.215   9.285   5.677
24870WAT      O74851   0.322   1.945   2.929
24870WAT     H174852   0.397   1.917   2.988
24870WAT     H274853   0.239   1.958   2.984
24871WAT      O74854   9.281   0.042   0.852
24871WAT     H174855   9.261   0.021   0.756
24871WAT     H274856   9.212   0.105   0.887
24872WAT      O74857   6.778   2.706   1.098
24872WAT     H174858   6.855   2.768   1.087
24872WAT     H274859   6.792   2.652   1.181
24873WAT      O74860   8.828   2.623   5.142
24873WAT     H174861   8.871   2.669   5.064
24873WAT     H274862   8.848   2.673   5.226
24874WAT      O74863   4.325   2.703   9.648
24874WAT     H174864   4.310   2.788   9.597
24874WAT     H274865   4.351   2.725   9.742
24875WAT      O74866   9.330   7.928   9.381
24875WAT     H174867   9.382   7.909   9.297
24875WAT     H274868   9.256   7.862   9.390
24876WAT      O74869   9.480   4.848   1.823
24876WAT     H174870   9.539   4.768   1.823
24876WAT     H274871   9.418   4.845   1.901
24877WAT      O74872   0.272   5.510   4.890
24877WAT     H174873   0.244   5.489   4.984
24877WAT     H274874   0.205   5.471   4.827
24878WAT      O74875   6.103   6.172   5.568
24878WAT     H174876   6.009   6.137   5.567
24878WAT     H274877   6.115   6.234   5.645
24879WAT      O74878   5.755   8.454   6.215
24879WAT     H174879   5.661   8.467   6.184
24879WAT     H274880   5.815   8.444   6.135
24880WAT      O74881   8.118   6.500   4.795
24880WAT     H174882   8.198   6.469   4.845
24880WAT     H274883   8.133   6.488   4.697
24881WAT      O74884   5.133   8.796   1.206
24881WAT     H174885   5.168   8.890   1.209
24881WAT     H274886   5.192   8.737   1.260
24882WAT      O74887   0.371   9.678   4.255
24882WAT     H174888   0.453   9.690   4.310
24882WAT     H274889   0.360   9.756   4.194
24883WAT      O74890   6.815   3.462   0.408
24883WAT     H174891   6.794   3.386   0.470
24883WAT     H274892   6.844   3.426   0.319
24884WAT      O74893   6.153   8.222   0.985
24884WAT     H174894   6.235   8.179   0.946
24884WAT     H274895   6.095   8.152   1.027
24885WAT      O74896   5.706   9.818   5.753
24885WAT     H174897   5.751   9.901   5.786
24885WAT     H274898   5.653   9.840   5.671
24886WAT      O74899   5.098   5.670   2.675
24886WAT     H174900   5.191   5.669   2.640
24886WAT     H274901   5.090   5.738   2.748
24887WAT      O74902   2.746   5.251   8.672
24887WAT     H174903   2.788   5.337   8.700
24887WAT     H274904   2.788   5.175   8.723
24888WAT      O74905   1.061   4.188   4.378
24888WAT     H174906   1.128   4.246   4.424
24888WAT     H274907   1.017   4.240   4.305
24889WAT      O74908   4.971   7.499   8.704
24889WAT     H174909   4.935   7.414   8.742
24889WAT     H274910   4.935   7.513   8.612
24890WAT      O74911   1.895   0.635   4.615
24890WAT     H174912   1.815   0.655   4.671
24890WAT     H274913   1.903   0.536   4.603
24891WAT      O74914   7.408   9.261   1.320
24891WAT     H174915   7.380   9.299   1.232
24891WAT     H274916   7.469   9.183   1.305
24892WAT      O74917   9.735   7.444   3.306
24892WAT     H174918   9.671   7.378   3.345
24892WAT     H274919   9.799   7.475   3.377
24893WAT      O74920   3.301   3.482   9.333
24893WAT     H174921   3.380   3.477   9.271
24893WAT     H274922   3.217   3.481   9.279
24894WAT      O74923   4.973   8.951   7.276
24894WAT     H174924   5.056   8.944   7.221
24894WAT     H274925   4.940   8.859   7.299
24895WAT      O74926   3.943   3.672   2.223
24895WAT     H174927   4.016   3.737   2.245
24895WAT     H274928   3.981   3.579   2.222
24896WAT      O74929   3.453   9.597   7.464
24896WAT     H174930   3.434   9.513   7.516
24896WAT     H274931   3.551   9.602   7.445
24897WAT      O74932   5.443   1.157   1.423
24897WAT     H174933   5.450   1.124   1.328
24897WAT     H274934   5.383   1.096   1.475
24898WAT      O74935   3.658   1.226   4.089
24898WAT     H174936   3.565   1.261   4.086
24898WAT     H274937   3.713   1.273   4.020
24899WAT      O74938   5.743   7.096   7.991
24899WAT     H174939   5.664   7.139   8.033
24899WAT     H274940   5.809   7.166   7.963
24900WAT      O74941   3.214   7.897   2.647
24900WAT     H174942   3.236   7.942   2.734
24900WAT     H274943   3.274   7.932   2.575
24901WAT      O74944   1.440   7.371   9.520
24901WAT     H174945   1.450   7.439   9.592
24901WAT     H274946   1.528   7.328   9.502
24902WAT      O74947   8.557   3.456   8.572
24902WAT     H174948   8.522   3.363   8.571
24902WAT     H274949   8.482   3.520   8.555
24903WAT      O74950   3.332   1.049   7.107
24903WAT     H174951   3.342   0.979   7.177
24903WAT     H274952   3.253   1.106   7.127
24904WAT      O74953   6.273   8.620   1.271
24904WAT     H174954   6.236   8.532   1.299
24904WAT     H274955   6.237   8.645   1.181
24905WAT      O74956   6.913   8.467   6.182
24905WAT     H174957   6.865   8.391   6.226
24905WAT     H274958   7.011   8.459   6.200
24906WAT      O74959   6.516   7.151   0.528
24906WAT     H174960   6.605   7.105   0.528
24906WAT     H274961   6.469   7.132   0.442
24907WAT      O74962   2.548   3.959   3.944
24907WAT     H174963   2.486   3.897   3.895
24907WAT     H274964   2.640   3.949   3.908
24908WAT      O74965   8.653   0.095   0.206
24908WAT     H174966   8.631   0.098   0.109
24908WAT     H274967   8.740   0.048   0.220
24909WAT      O74968   1.593   6.697   2.901
24909WAT     H174969   1.613   6.654   2.989
24909WAT     H274970   1.518   6.762   2.912
24910WAT      O74971   7.966   5.995   0.971
24910WAT     H174972   7.946   5.933   0.896
24910WAT     H274973   7.891   5.995   1.036
24911WAT      O74974   0.039   0.349   3.031
24911WAT     H174975   0.020   0.255   3.062
24911WAT     H274976  -0.047   0.392   3.002
24912WAT      O74977   0.299   6.005   8.836
24912WAT     H174978   0.244   5.987   8.755
24912WAT     H274979   0.250   6.066   8.898
24913WAT      O74980   6.150   3.876   6.085
24913WAT     H174981   6.203   3.813   6.027
24913WAT     H274982   6.210   3.949   6.118
24914WAT      O74983   1.377   5.399   3.121
24914WAT     H174984   1.341   5.473   3.064
24914WAT     H274985   1.470   5.421   3.149
24915WAT      O74986   6.916   5.824   6.558
24915WAT     H174987   6.901   5.726   6.549
24915WAT     H274988   6.841   5.865   6.610
24916WAT      O74989   5.639   4.262   5.824
24916WAT     H174990   5.595   4.244   5.913
24916WAT     H274991   5.658   4.360   5.816
24917WAT      O74992   3.541   0.752   0.221
24917WAT     H174993   3.593   0.669   0.200
24917WAT     H274994   3.583   0.799   0.298
24918WAT      O74995   7.167   8.921   7.287
24918WAT     H174996   7.262   8.941   7.313
24918WAT     H274997   7.119   8.881   7.366
24919WAT      O74998   6.406   5.279   1.797
24919WAT     H174999   6.402   5.362   1.742
24919WAT     H275000   6.331   5.218   1.771
24920WAT      O75001   0.203   5.932   8.089
24920WAT     H175002   0.105   5.934   8.110
24920WAT     H275003   0.226   6.010   8.030
24921WAT      O75004   4.869   5.347   3.289
24921WAT     H175005   4.961   5.314   3.309
24921WAT     H275006   4.858   5.438   3.327
24922WAT      O75007   5.212   4.194   3.010
24922WAT     H175008   5.293   4.156   3.056
24922WAT     H275009   5.143   4.216   3.078
24923WAT      O75010   4.886   1.910   9.048
24923WAT     H175011   4.951   1.936   9.120
24923WAT     H275012   4.825   1.838   9.083
24924WAT      O75013   0.745   4.325   7.542
24924WAT     H175014   0.786   4.248   7.592
24924WAT     H275015   0.787   4.331   7.452
24925WAT      O75016   8.833   2.844   2.633
24925WAT     H175017   8.910   2.797   2.591
24925WAT     H275018   8.867   2.906   2.704
24926WAT      O75019   2.728   7.124   8.211
24926WAT     H175020   2.679   7.037   8.219
24926WAT     H275021   2.809   7.123   8.270
24927WAT      O75022   0.250   8.652   1.180
24927WAT     H175023   0.162   8.654   1.228
24927WAT     H275024   0.294   8.563   1.195
24928WAT      O75025   4.961   3.319   0.080
24928WAT     H175026   5.038   3.309   0.142
24928WAT     H275027   4.897   3.244   0.093
24929WAT      O75028   4.189   6.461   2.920
24929WAT     H175029   4.172   6.454   3.019
24929WAT     H275030   4.103   6.480   2.873
24930WAT      O75031   4.374   9.336   6.647
24930WAT     H175032   4.472   9.318   6.651
24930WAT     H275033   4.323   9.255   6.675
24931WAT      O75034   4.618   4.893   8.222
24931WAT     H175035   4.557   4.905   8.300
24931WAT     H275036   4.579   4.826   8.159
24932WAT      O75037   7.584   0.258   3.834
24932WAT     H175038   7.556   0.343   3.789
24932WAT     H275039   7.676   0.234   3.803
24933WAT      O75040   5.240   2.823   3.784
24933WAT     H175041   5.247   2.732   3.824
24933WAT     H275042   5.245   2.817   3.684
24934WAT      O75043   8.922   8.093   7.152
24934WAT     H175044   8.889   8.153   7.079
24934WAT     H275045   8.924   8.143   7.238
24935WAT      O75046   8.670   2.644   2.727
24935WAT     H175047   8.693   2.558   2.681
24935WAT     H275048   8.728   2.718   2.692
24936WAT      O75049   2.262   9.176   9.873
24936WAT     H175050   2.187   9.119   9.904
24936WAT     H275051   2.238   9.217   9.785
24937WAT      O75052   5.940   9.453   3.890
24937WAT     H175053   5.903   9.475   3.980
24937WAT     H275054   6.040   9.452   3.894
24938WAT      O75055   9.098   6.559   4.800
24938WAT     H175056   9.058   6.469   4.787
24938WAT     H275057   9.025   6.627   4.809
24939WAT      O75058   2.618   0.020   0.306
24939WAT     H175059   2.599  -0.000   0.402
24939WAT     H275060   2.716   0.025   0.291
24940WAT      O75061   4.225   5.702   5.920
24940WAT     H175062   4.231   5.710   6.019
24940WAT     H275063   4.303   5.748   5.878
24941WAT      O75064   3.548   7.757   9.002
24941WAT     H175065   3.512   7.823   9.068
24941WAT     H275066   3.472   7.717   8.951
24942WAT      O75067   2.366   5.907   6.243
24942WAT     H175068   2.312   5.953   6.313
24942WAT     H275069   2.412   5.827   6.283
24943WAT      O75070   2.194   6.608   6.017
24943WAT     H175071   2.134   6.547   5.964
24943WAT     H275072   2.267   6.554   6.059
24944WAT      O75073   4.812   8.877   4.566
24944WAT     H175074   4.748   8.949   4.594
24944WAT     H275075   4.760   8.795   4.541
24945WAT      O75076   7.854   2.744   4.507
24945WAT     H175077   7.788   2.772   4.438
24945WAT     H275078   7.904   2.663   4.475
24946WAT      O75079   6.348   0.278   5.031
24946WAT     H175080   6.408   0.199   5.045
24946WAT     H275081   6.257   0.246   5.004
24947WAT      O75082   0.005   9.732   0.387
24947WAT     H175083  -0.020   9.648   0.435
24947WAT     H275084   0.040   9.799   0.452
24948WAT      O75085   5.163   3.822   2.047
24948WAT     H175086   5.169   3.904   2.104
24948WAT     H275087   5.231   3.828   1.973
24949WAT      O75088   9.439   6.027   0.163
24949WAT     H175089   9.538   6.016   0.150
24949WAT     H275090   9.397   5.938   0.181
24950WAT      O75091   4.632   2.380   1.514
24950WAT     H175092   4.613   2.399   1.418
24950WAT     H275093   4.602   2.287   1.536
24951WAT      O75094   5.617   8.714   4.638
24951WAT     H175095   5.535   8.704   4.694
24951WAT     H275096   5.692   8.748   4.695
24952WAT      O75097   6.187   2.793   8.298
24952WAT     H175098   6.194   2.851   8.217
24952WAT     H275099   6.091   2.767   8.312
24953WAT      O75100   8.976   9.164   0.771
24953WAT     H175101   8.892   9.180   0.718
24953WAT     H275102   9.032   9.096   0.725
24954WAT      O75103   0.334   8.756   4.678
24954WAT     H175104   0.291   8.836   4.637
24954WAT     H275105   0.369   8.696   4.606
24955WAT      O75106   0.539   3.716   1.721
24955WAT     H175107   0.538   3.616   1.719
24955WAT     H275108   0.498   3.748   1.806
24956WAT      O75109   1.716   7.956   4.341
24956WAT     H175110   1.814   7.954   4.359
24956WAT     H275111   1.682   7.862   4.332
24957WAT      O75112   8.359   4.104   7.349
24957WAT     H175113   8.337   4.059   7.262
24957WAT     H275114   8.281   4.096   7.411
24958WAT      O75115   7.396   1.465   5.147
24958WAT     H175116   7.488   1.432   5.166
24958WAT     H275117   7.329   1.400   5.182
24959WAT      O75118   2.409   7.828   1.587
24959WAT     H175119   2.402   7.772   1.670
24959WAT     H275120   2.342   7.797   1.520
24960WAT      O75121   4.697   8.179   3.104
24960WAT     H175122   4.748   8.249   3.054
24960WAT     H275123   4.740   8.163   3.193
24961WAT      O75124   8.275   4.422   0.504
24961WAT     H175125   8.347   4.491   0.519
24961WAT     H275126   8.241   4.391   0.593
24962WAT      O75127   3.131   7.649   5.624
24962WAT     H175128   3.179   7.681   5.542
24962WAT     H275129   3.155   7.554   5.642
24963WAT      O75130   6.688   3.129   8.880
24963WAT     H175131   6.742   3.198   8.831
24963WAT     H275132   6.671   3.162   8.973
24964WAT      O75133   5.897   4.589   7.369
24964WAT     H175134   5.816   4.614   7.315
24964WAT     H275135   5.899   4.490   7.382
24965WAT      O75136   0.643   5.776   6.348
24965WAT     H175137   0.578   5.816   6.282
24965WAT     H275138   0.691   5.700   6.305
24966WAT      O75139   2.131   2.574   8.783
24966WAT     H175140   2.036   2.572   8.815
24966WAT     H275141   2.190   2.528   8.850
24967WAT      O75142   5.059   9.547   0.114
24967WAT     H175143   5.121   9.540   0.192
24967WAT     H275144   4.978   9.489   0.132
24968WAT      O75145   7.460   7.211   6.792
24968WAT     H175146   7.469   7.145   6.866
24968WAT     H275147   7.550   7.231   6.753
24969WAT      O75148   8.898   3.137   7.877
24969WAT     H175149   8.989   3.157   7.842
24969WAT     H275150   8.882   3.188   7.961
24970WAT      O75151   6.171   8.859   4.480
24970WAT     H175152   6.163   8.958   4.473
24970WAT     H275153   6.079   8.819   4.488
24971WAT      O75154   8.314   5.354   0.605
24971WAT     H175155   8.309   5.278   0.669
24971WAT     H275156   8.408   5.387   0.598
24972WAT      O75157   6.207   9.665   6.351
24972WAT     H175158   6.241   9.629   6.264
24972WAT     H275159   6.119   9.622   6.373
24973WAT      O75160   1.721   6.959   5.192
24973WAT     H175161   1.659   6.898   5.143
24973WAT     H275162   1.812   6.954   5.150
24974WAT      O75163   1.680   5.752   9.636
24974WAT     H175164   1.632   5.822   9.689
24974WAT     H275165   1.740   5.699   9.696
24975WAT      O75166   4.982   9.559   1.878
24975WAT     H175167   5.061   9.618   1.862
24975WAT     H275168   4.898   9.614   1.874
24976WAT      O75169   4.142   0.500   4.477
24976WAT     H175170   4.123   0.580   4.421
24976WAT     H275171   4.220   0.450   4.441
24977WAT      O75172   5.281   6.570   8.827
24977WAT     H175173   5.352   6.615   8.773
24977WAT     H275174   5.265   6.478   8.791
24978WAT      O75175   6.231   1.486   2.638
24978WAT     H175176   6.235   1.414   2.569
24978WAT     H275177   6.263   1.572   2.599
24979WAT      O75178   2.419   2.711   4.574
24979WAT     H175179   2.334   2.684   4.620
24979WAT     H275180   2.424   2.811   4.569
24980WAT      O75181   9.434   6.164   2.747
24980WAT     H175182   9.483   6.222   2.811
24980WAT     H275183   9.336   6.182   2.753
24981WAT      O75184   7.703   4.835   1.787
24981WAT     H175185   7.714   4.890   1.704
24981WAT     H275186   7.674   4.894   1.862
24982WAT      O75187   0.098   1.983   3.094
24982WAT     H175188   0.161   2.039   3.147
24982WAT     H275189   0.017   2.037   3.071
24983WAT      O75190   8.353   5.153   8.963
24983WAT     H175191   8.339   5.130   8.866
24983WAT     H275192   8.451   5.149   8.984
24984WAT      O75193   8.746   5.369   0.059
24984WAT     H175194   8.656   5.351   0.099
24984WAT     H275195   8.751   5.327  -0.032
24985WAT      O75196   1.495   1.139   8.431
24985WAT     H175197   1.586   1.143   8.389
24985WAT     H275198   1.502   1.158   8.529
24986WAT      O75199   0.714   3.527   2.360
24986WAT     H175200   0.744   3.481   2.444
24986WAT     H275201   0.782   3.595   2.334
24987WAT      O75202   7.236   0.141   4.503
24987WAT     H175203   7.267   0.062   4.556
24987WAT     H275204   7.177   0.198   4.560
24988WAT      O75205   2.993   2.697   0.680
24988WAT     H175206   3.085   2.699   0.640
24988WAT     H275207   2.929   2.661   0.613
24989WAT      O75208   1.944   1.796   2.172
24989WAT     H175209   1.916   1.847   2.090
24989WAT     H275210   1.867   1.792   2.236
24990WAT      O75211   4.170   5.155   3.692
24990WAT     H175212   4.247   5.166   3.755
24990WAT     H275213   4.094   5.111   3.740
24991WAT      O75214   2.823   8.825   0.536
24991WAT     H175215   2.834   8.857   0.442
24991WAT     H275216   2.810   8.725   0.535
24992WAT      O75217   3.517   9.669   3.602
24992WAT     H175218   3.493   9.758   3.565
24992WAT     H275219   3.459   9.599   3.560
24993WAT      O75220   8.031   1.764   0.561
24993WAT     H175221   8.077   1.816   0.490
24993WAT     H275222   8.003   1.826   0.635
24994WAT      O75223   1.465   7.082   3.260
24994WAT     H175224   1.557   7.096   3.297
24994WAT     H275225   1.465   7.104   3.163
24995WAT      O75226   0.287   8.100   8.696
24995WAT     H175227   0.288   8.169   8.624
24995WAT     H275228   0.267   8.144   8.784
24996WAT      O75229   1.185   4.191   9.275
24996WAT     H175230   1.115   4.234   9.219
24996WAT     H275231   1.270   4.184   9.223
24997WAT      O75232   1.660   6.918   2.020
24997WAT     H175233   1.750   6.888   1.988
24997WAT     H275234   1.670   7.003   2.071
24998WAT      O75235   1.962   8.724   2.939
24998WAT     H175236   1.927   8.660   2.871
24998WAT     H275237   1.932   8.817   2.916
24999WAT      O75238   2.801   1.429   4.271
24999WAT     H175239   2.865   1.462   4.201
24999WAT     H275240   2.825   1.468   4.360
25000WAT      O75241   0.830   1.216   3.513
25000WAT     H175242   0.925   1.225   3.483
25000WAT     H275243   0.781   1.153   3.454
25001WAT      O75244   0.604   8.370   1.757
25001WAT     H175245   0.534   8.366   1.686
25001WAT     H275246   0.637   8.464   1.766
25002WAT      O75247   7.711   7.333   0.488
25002WAT     H175248   7.680   7.238   0.483
25002WAT     H275249   7.664   7.380   0.563
25003WAT      O75250   4.381   5.851   1.633
25003WAT     H175251   4.373   5.819   1.539
25003WAT     H275252   4.315   5.925   1.649
25004WAT      O75253   8.195   1.485   0.271
25004WAT     H175254   8.243   1.475   0.358
25004WAT     H275255   8.192   1.582   0.246
25005WAT      O75256   4.131   1.372   7.380
25005WAT     H175257   4.192   1.300   7.413
25005WAT     H275258   4.145   1.384   7.282
25006WAT      O75259   3.940   8.771   7.369
25006WAT     H175260   3.942   8.824   7.285
25006WAT     H275261   4.030   8.730   7.385
25007WAT      O75262   2.125   9.681   1.889
25007WAT     H175263   2.098   9.589   1.918
25007WAT     H275264   2.106   9.746   1.962
25008WAT      O75265   6.069   1.059   8.505
25008WAT     H175266   6.124   1.119   8.447
25008WAT     H275267   6.128   0.991   8.548
25009WAT      O75268   0.409   8.958   0.111
25009WAT     H175269   0.414   8.895   0.034
25009WAT     H275270   0.500   8.997   0.128
25010WAT      O75271   9.296   5.079   9.056
25010WAT     H175272   9.269   5.055   9.149
25010WAT     H275273   9.332   4.998   9.010
25011WAT      O75274   8.270   5.902   3.163
25011WAT     H175275   8.184   5.947   3.185
25011WAT     H275276   8.269   5.809   3.201
25012WAT      O75277   5.660   2.170   6.914
25012WAT     H175278   5.616   2.255   6.945
25012WAT     H275279   5.615   2.092   6.958
25013WAT      O75280   0.916   5.290   5.633
25013WAT     H175281   0.953   5.288   5.726
25013WAT     H275282   0.952   5.370   5.585
25014WAT      O75283   7.729   7.767   0.285
25014WAT     H175284   7.788   7.784   0.364
25014WAT     H275285   7.685   7.678   0.293
25015WAT      O75286   9.260   1.936   9.166
25015WAT     H175287   9.321   1.884   9.106
25015WAT     H275288   9.313   1.990   9.230
25016WAT      O75289   8.330   5.177   3.630
25016WAT     H175290   8.304   5.082   3.648
25016WAT     H275291   8.429   5.185   3.631
25017WAT      O75292   7.100   9.542   8.408
25017WAT     H175293   7.014   9.589   8.390
25017WAT     H275294   7.142   9.516   8.321
25018WAT      O75295   8.756   3.080   5.733
25018WAT     H175296   8.720   3.007   5.675
25018WAT     H275297   8.836   3.120   5.690
25019WAT      O75298   7.929   9.005   1.817
25019WAT     H175299   7.922   9.008   1.717
25019WAT     H275300   7.965   9.091   1.850
25020WAT      O75301   3.334   8.834   1.290
25020WAT     H175302   3.237   8.826   1.316
25020WAT     H275303   3.363   8.929   1.300
25021WAT      O75304   4.921   0.350   2.495
25021WAT     H175305   4.958   0.441   2.477
25021WAT     H275306   4.991   0.281   2.475
25022WAT      O75307   6.613   6.786   9.468
25022WAT     H175308   6.712   6.785   9.487
25022WAT     H275309   6.575   6.874   9.494
25023WAT      O75310   2.217   3.900   2.628
25023WAT     H175311   2.292   3.838   2.650
25023WAT     H275312   2.165   3.863   2.551
25024WAT      O75313   3.104   8.548   9.266
25024WAT     H175314   3.008   8.573   9.257
25024WAT     H275315   3.111   8.457   9.308
25025WAT      O75316   4.931   9.525   9.533
25025WAT     H175317   4.912   9.500   9.438
25025WAT     H275318   4.924   9.624   9.544
25026WAT      O75319   2.523   8.184   7.907
25026WAT     H175320   2.570   8.242   7.841
25026WAT     H275321   2.505   8.094   7.866
25027WAT      O75322   4.219   7.281   5.418
25027WAT     H175323   4.130   7.252   5.382
25027WAT     H275324   4.206   7.338   5.499
25028WAT      O75325   7.838   4.890   3.341
25028WAT     H175326   7.872   4.884   3.435
25028WAT     H275327   7.740   4.868   3.340
25029WAT      O75328   7.708   7.727   3.015
25029WAT     H175329   7.701   7.650   3.079
25029WAT     H275330   7.690   7.695   2.922
25030WAT      O75331   5.403   3.794   0.397
25030WAT     H175332   5.400   3.880   0.345
25030WAT     H275333   5.475   3.736   0.360
25031WAT      O75334   8.124   8.576   9.262
25031WAT     H175335   8.184   8.533   9.195
25031WAT     H275336   8.158   8.668   9.282
25032WAT      O75337   7.924   0.048   3.917
25032WAT     H175338   8.022   0.027   3.910
25032WAT     H275339   7.895   0.039   4.012
25033WAT      O75340   7.571   5.199   2.387
25033WAT     H175341   7.617   5.276   2.433
25033WAT     H275342   7.634   5.158   2.321
25034WAT      O75343   3.367   0.424   9.079
25034WAT     H175344   3.351   0.459   8.987
25034WAT     H275345   3.290   0.364   9.105
25035WAT      O75346   9.796   3.912   4.337
25035WAT     H175347   9.834   3.825   4.370
25035WAT     H275348   9.697   3.912   4.349
25036WAT      O75349   6.114   8.993   7.047
25036WAT     H175350   6.089   9.078   6.999
25036WAT     H275351   6.038   8.928   7.041
25037WAT      O75352   6.252   8.201   2.989
25037WAT     H175353   6.167   8.171   3.032
25037WAT     H275354   6.265   8.299   3.006
25038WAT      O75355   0.200   1.427   9.667
25038WAT     H175356   0.256   1.449   9.746
25038WAT     H275357   0.259   1.399   9.591
25039WAT      O75358   9.237   0.635   4.632
25039WAT     H175359   9.191   0.720   4.606
25039WAT     H275360   9.276   0.645   4.723
25040WAT      O75361   5.384   4.142   6.791
25040WAT     H175362   5.424   4.119   6.702
25040WAT     H275363   5.457   4.146   6.859
25041WAT      O75364   1.459   0.918   7.498
25041WAT     H175365   1.528   0.890   7.432
25041WAT     H275366   1.501   0.973   7.570
25042WAT      O75367   4.360   0.880   3.912
25042WAT     H175368   4.332   0.959   3.968
25042WAT     H275369   4.423   0.911   3.841
25043WAT      O75370   9.637   2.472   6.171
25043WAT     H175371   9.605   2.401   6.109
25043WAT     H275372   9.736   2.462   6.185
25044WAT      O75373   7.416   4.608   3.749
25044WAT     H175374   7.454   4.517   3.728
25044WAT     H275375   7.321   4.598   3.777
25045WAT      O75376   2.576   3.522   0.010
25045WAT     H175377   2.602   3.485   0.099
25045WAT     H275378   2.597   3.456  -0.061
25046WAT      O75379   4.082   1.110   2.767
25046WAT     H175380   4.109   1.015   2.747
25046WAT     H275381   4.030   1.112   2.852
25047WAT      O75382   4.434   8.472   6.170
25047WAT     H175383   4.369   8.475   6.094
25047WAT     H275384   4.399   8.527   6.246
25048WAT      O75385   3.056   6.412   3.039
25048WAT     H175386   3.087   6.500   3.077
25048WAT     H275387   3.113   6.339   3.075
25049WAT      O75388   0.201   7.859   2.719
25049WAT     H175389   0.119   7.828   2.766
25049WAT     H275390   0.185   7.855   2.620
25050WAT      O75391   1.339   6.889   7.156
25050WAT     H175392   1.329   6.866   7.059
25050WAT     H275393   1.358   6.987   7.165
25051WAT      O75394   3.670   1.053   0.185
25051WAT     H175395   3.769   1.040   0.185
25051WAT     H275396   3.629   1.003   0.261
25052WAT      O75397   1.128   8.498   2.361
25052WAT     H175398   1.053   8.527   2.302
25052WAT     H275399   1.215   8.522   2.318
25053WAT      O75400   8.460   0.372   1.011
25053WAT     H175401   8.534   0.410   1.067
25053WAT     H275402   8.403   0.447   0.978
25054WAT      O75403   1.124   1.436   7.454
25054WAT     H175404   1.214   1.460   7.416
25054WAT     H275405   1.068   1.519   7.461
25055WAT      O75406   6.860   9.134   7.637
25055WAT     H175407   6.851   9.038   7.660
25055WAT     H275408   6.772   9.169   7.604
25056WAT      O75409   2.913   7.991   0.485
25056WAT     H175410   2.985   7.946   0.431
25056WAT     H275411   2.857   8.047   0.424
25057WAT      O75412   9.210   9.286   0.674
25057WAT     H175413   9.185   9.317   0.582
25057WAT     H275414   9.130   9.244   0.717
25058WAT      O75415   0.987   5.952   2.486
25058WAT     H175416   1.031   5.926   2.572
25058WAT     H275417   1.040   6.024   2.442
25059WAT      O75418   1.337   0.458   2.391
25059WAT     H175419   1.296   0.531   2.446
25059WAT     H275420   1.284   0.447   2.306
25060WAT      O75421   7.749   4.536   5.843
25060WAT     H175422   7.799   4.530   5.929
25060WAT     H275423   7.723   4.444   5.813
25061WAT      O75424   4.809   5.661   2.080
25061WAT     H175425   4.900   5.644   2.117
25061WAT     H275426   4.812   5.743   2.023
25062WAT      O75427   6.465   9.679   0.171
25062WAT     H175428   6.528   9.753   0.148
25062WAT     H275429   6.387   9.716   0.221
25063WAT      O75430   0.593   3.728   7.390
25063WAT     H175431   0.612   3.647   7.446
25063WAT     H275432   0.623   3.810   7.438
25064WAT      O75433   4.355   7.136   1.273
25064WAT     H175434   4.320   7.215   1.224
25064WAT     H275435   4.319   7.052   1.232
25065WAT      O75436   1.454   9.417   2.996
25065WAT     H175437   1.390   9.384   2.926
25065WAT     H275438   1.458   9.352   3.071
25066WAT      O75439   1.255   4.949   2.537
25066WAT     H175440   1.290   5.024   2.593
25066WAT     H275441   1.215   4.879   2.596
25067WAT      O75442   2.767   3.943   7.382
25067WAT     H175443   2.760   4.040   7.406
25067WAT     H275444   2.760   3.887   7.465
25068WAT      O75445   7.239   1.687   5.575
25068WAT     H175446   7.194   1.764   5.622
25068WAT     H275447   7.178   1.652   5.505
25069WAT      O75448   7.430   7.265   2.664
25069WAT     H175449   7.507   7.211   2.631
25069WAT     H275450   7.345   7.231   2.624
25070WAT      O75451   4.308   5.142   0.376
25070WAT     H175452   4.263   5.096   0.299
25070WAT     H275453   4.407   5.137   0.363
25071WAT      O75454   6.339   0.895   7.465
25071WAT     H175455   6.403   0.973   7.466
25071WAT     H275456   6.387   0.812   7.494
25072WAT      O75457   9.026   1.676   4.613
25072WAT     H175458   8.951   1.635   4.562
25072WAT     H275459   9.011   1.663   4.711
25073WAT      O75460   1.655   2.845   7.760
25073WAT     H175461   1.663   2.786   7.840
25073WAT     H275462   1.746   2.869   7.727
25074WAT      O75463   5.277   6.074   8.564
25074WAT     H175464   5.260   6.000   8.498
25074WAT     H275465   5.375   6.088   8.573
25075WAT      O75466   8.356   6.248   2.722
25075WAT     H175467   8.395   6.214   2.807
25075WAT     H275468   8.282   6.312   2.742
25076WAT      O75469   5.107   4.387   7.905
25076WAT     H175470   5.040   4.365   7.834
25076WAT     H275471   5.198   4.358   7.877
25077WAT      O75472   6.019   6.941   9.521
25077WAT     H175473   5.999   6.977   9.430
25077WAT     H275474   6.102   6.886   9.517
25078WAT      O75475   4.420   4.778   6.878
25078WAT     H175476   4.337   4.774   6.822
25078WAT     H275477   4.448   4.873   6.888
25079WAT      O75478   3.531   4.819   3.362
25079WAT     H175479   3.532   4.877   3.281
25079WAT     H275480   3.611   4.759   3.361
25080WAT      O75481   9.537   3.433   5.860
25080WAT     H175482   9.579   3.511   5.813
25080WAT     H275483   9.527   3.357   5.796
25081WAT      O75484   0.143   9.679   8.943
25081WAT     H175485   0.194   9.750   8.990
25081WAT     H275486   0.193   9.592   8.947
25082WAT      O75487   3.019   8.604   5.210
25082WAT     H175488   3.008   8.697   5.175
25082WAT     H275489   3.116   8.577   5.203
25083WAT      O75490   1.416   8.236   5.683
25083WAT     H175491   1.444   8.193   5.769
25083WAT     H275492   1.482   8.213   5.611
25084WAT      O75493   1.945   7.990   0.149
25084WAT     H175494   1.906   8.036   0.229
25084WAT     H275495   1.991   7.907   0.178
25085WAT      O75496   3.590   9.307   2.273
25085WAT     H175497   3.689   9.289   2.273
25085WAT     H275498   3.574   9.402   2.249
25086WAT      O75499   4.201   6.497   8.453
25086WAT     H175500   4.123   6.441   8.481
25086WAT     H275501   4.280   6.476   8.511
25087WAT      O75502   6.213   5.386   8.973
25087WAT     H175503   6.141   5.449   8.943
25087WAT     H275504   6.187   5.345   9.061
25088WAT      O75505   7.264   9.080   6.822
25088WAT     H175506   7.307   9.169   6.835
25088WAT     H275507   7.332   9.014   6.788
25089WAT      O75508   5.574   9.223   3.771
25089WAT     H175509   5.496   9.244   3.711
25089WAT     H275510   5.640   9.167   3.721
25090WAT      O75511   3.561   8.864   4.422
25090WAT     H175512   3.467   8.832   4.431
25090WAT     H275513   3.618   8.790   4.388
25091WAT      O75514   9.661   6.076   2.101
25091WAT     H175515   9.641   6.109   2.009
25091WAT     H275516   9.637   6.146   2.168
25092WAT      O75517   0.546   4.367   8.642
25092WAT     H175518   0.459   4.389   8.687
25092WAT     H275519   0.534   4.369   8.543
25093WAT      O75520   8.072   2.215   1.011
25093WAT     H175521   8.166   2.195   1.036
25093WAT     H275522   8.055   2.314   1.022
25094WAT      O75523   9.430   1.861   6.268
25094WAT     H175524   9.493   1.822   6.200
25094WAT     H275525   9.337   1.857   6.232
25095WAT      O75526   0.146   8.479   8.764
25095WAT     H175527   0.129   8.510   8.670
25095WAT     H275528   0.176   8.557   8.819
25096WAT      O75529   5.309   1.889   2.056
25096WAT     H175530   5.344   1.795   2.056
25096WAT     H275531   5.316   1.927   2.149
25097WAT      O75532   1.858   1.141   6.330
25097WAT     H175533   1.885   1.121   6.236
25097WAT     H275534   1.870   1.239   6.347
25098WAT      O75535   9.237   7.364   7.064
25098WAT     H175536   9.199   7.300   7.131
25098WAT     H275537   9.335   7.345   7.053
25099WAT      O75538   5.471   4.173   7.992
25099WAT     H175539   5.403   4.175   8.065
25099WAT     H275540   5.479   4.080   7.956
25100WAT      O75541   4.851   9.442   8.863
25100WAT     H175542   4.783   9.433   8.936
25100WAT     H275543   4.835   9.371   8.794
25101WAT      O75544   0.418   9.204   1.043
25101WAT     H175545   0.470   9.268   0.986
25101WAT     H275546   0.358   9.149   0.986
25102WAT      O75547   0.124   9.549   0.186
25102WAT     H175548   0.092   9.624   0.244
25102WAT     H275549   0.050   9.519   0.126
25103WAT      O75550   9.799   8.760   1.970
25103WAT     H175551   9.848   8.839   1.935
25103WAT     H275552   9.847   8.676   1.943
25104WAT      O75553   8.091   4.279   6.958
25104WAT     H175554   8.161   4.304   6.891
25104WAT     H275555   8.006   4.258   6.911
25105WAT      O75556   4.968   3.182   3.985
25105WAT     H175557   4.975   3.087   3.953
25105WAT     H275558   5.014   3.242   3.920
25106WAT      O75559   7.015   3.028   3.282
25106WAT     H175560   7.007   3.080   3.367
25106WAT     H275561   6.962   3.073   3.210
25107WAT      O75562   6.893   2.305   0.889
25107WAT     H175563   6.805   2.260   0.898
25107WAT     H275564   6.928   2.329   0.980
25108WAT      O75565   1.056   6.069   5.506
25108WAT     H175566   1.134   6.130   5.517
25108WAT     H275567   1.068   6.014   5.423
25109WAT      O75568   8.655   5.440   4.220
25109WAT     H175569   8.700   5.357   4.252
25109WAT     H275570   8.581   5.416   4.157
25110WAT      O75571   0.725   6.728   6.213
25110WAT     H175572   0.644   6.678   6.245
25110WAT     H275573   0.785   6.746   6.291
25111WAT      O75574   8.047   4.886   2.503
25111WAT     H175575   8.077   4.796   2.472
25111WAT     H275576   7.951   4.900   2.478
25112WAT      O75577   9.517   1.112   3.634
25112WAT     H175578   9.480   1.055   3.561
25112WAT     H275579   9.508   1.065   3.722
25113WAT      O75580   7.791   4.068   2.233
25113WAT     H175581   7.816   4.165   2.222
25113WAT     H275582   7.692   4.059   2.232
25114WAT      O75583   5.703   2.770   5.470
25114WAT     H175584   5.798   2.739   5.471
25114WAT     H275585   5.701   2.870   5.480
25115WAT      O75586   0.832   0.176   6.389
25115WAT     H175587   0.777   0.119   6.327
25115WAT     H275588   0.812   0.272   6.371
25116WAT      O75589   9.599   7.953   0.947
25116WAT     H175590   9.587   8.021   0.873
25116WAT     H275591   9.580   7.862   0.911
25117WAT      O75592   2.129   8.785   6.236
25117WAT     H175593   2.176   8.697   6.236
25117WAT     H275594   2.195   8.858   6.255
25118WAT      O75595   3.321   7.116   7.783
25118WAT     H175596   3.339   7.032   7.732
25118WAT     H275597   3.226   7.116   7.814
25119WAT      O75598   2.634   0.607   7.309
25119WAT     H175599   2.549   0.647   7.275
25119WAT     H275600   2.696   0.680   7.337
25120WAT      O75601   9.051   4.173   3.525
25120WAT     H175602   9.048   4.093   3.465
25120WAT     H275603   9.102   4.150   3.608
25121WAT      O75604   1.453   4.139   0.745
25121WAT     H175605   1.466   4.200   0.667
25121WAT     H275606   1.395   4.062   0.718
25122WAT      O75607   0.193   3.778   2.822
25122WAT     H175608   0.129   3.788   2.747
25122WAT     H275609   0.149   3.730   2.898
25123WAT      O75610   1.299   1.535   2.909
25123WAT     H175611   1.259   1.540   3.000
25123WAT     H275612   1.323   1.440   2.888
25124WAT      O75613   1.728   5.349   6.727
25124WAT     H175614   1.760   5.255   6.728
25124WAT     H275615   1.697   5.375   6.818
25125WAT      O75616   6.801   2.066   3.081
25125WAT     H175617   6.886   2.113   3.106
25125WAT     H275618   6.820   2.000   3.009
25126WAT      O75619   8.954   0.337   3.598
25126WAT     H175620   8.893   0.317   3.521
25126WAT     H275621   8.905   0.390   3.667
25127WAT      O75622   4.730   8.959   3.565
25127WAT     H175623   4.830   8.964   3.573
25127WAT     H275624   4.698   8.878   3.614
25128WAT      O75625   1.880   2.464   9.884
25128WAT     H175626   1.788   2.502   9.869
25128WAT     H275627   1.877   2.365   9.874
25129WAT      O75628   9.506   7.342   7.744
25129WAT     H175629   9.509   7.261   7.686
25129WAT     H275630   9.562   7.327   7.826
25130WAT      O75631   5.961   4.670   8.875
25130WAT     H175632   5.966   4.574   8.846
25130WAT     H275633   5.874   4.685   8.922
25131WAT      O75634   0.925   1.542   8.692
25131WAT     H175635   0.891   1.504   8.778
25131WAT     H275636   1.015   1.503   8.672
25132WAT      O75637   1.815   9.171   9.320
25132WAT     H175638   1.853   9.255   9.282
25132WAT     H275639   1.844   9.162   9.415
25133WAT      O75640   1.839   1.654   1.768
25133WAT     H175641   1.759   1.595   1.775
25133WAT     H275642   1.845   1.694   1.676
25134WAT      O75643   1.000   1.668   2.415
25134WAT     H175644   0.982   1.644   2.511
25134WAT     H275645   0.992   1.767   2.403
25135WAT      O75646   8.892   2.883   0.361
25135WAT     H175647   8.847   2.962   0.320
25135WAT     H275648   8.991   2.889   0.347
25136WAT      O75649   7.490   5.633   7.479
25136WAT     H175650   7.503   5.534   7.473
25136WAT     H275651   7.434   5.664   7.401
25137WAT      O75652   4.168   3.874   5.430
25137WAT     H175653   4.154   3.877   5.529
25137WAT     H275654   4.080   3.885   5.384
25138WAT      O75655   8.696   3.512   9.109
25138WAT     H175656   8.782   3.479   9.146
25138WAT     H275657   8.709   3.604   9.072
25139WAT      O75658   6.217   9.315   9.638
25139WAT     H175659   6.276   9.242   9.673
25139WAT     H275660   6.263   9.403   9.646
25140WAT      O75661   6.123   0.435   2.638
25140WAT     H175662   6.100   0.514   2.582
25140WAT     H275663   6.176   0.370   2.584
25141WAT      O75664   8.475   0.452   9.417
25141WAT     H175665   8.546   0.461   9.487
25141WAT     H275666   8.505   0.497   9.332
25142WAT      O75667   3.198   5.779   8.841
25142WAT     H175668   3.113   5.815   8.879
25142WAT     H275669   3.243   5.851   8.787
25143WAT      O75670   2.082   2.032   0.059
25143WAT     H175671   2.168   1.994   0.025
25143WAT     H275672   2.090   2.049   0.157
25144WAT      O75673   0.993   6.511   8.211
25144WAT     H175674   1.081   6.509   8.259
25144WAT     H275675   0.972   6.420   8.177
25145WAT      O75676   6.474   3.020   9.695
25145WAT     H175677   6.564   3.022   9.739
25145WAT     H275678   6.485   3.033   9.596
25146WAT      O75679   7.179   3.996   8.931
25146WAT     H175680   7.261   3.939   8.926
25146WAT     H275681   7.136   3.985   9.021
25147WAT      O75682   8.957   6.999   0.875
25147WAT     H175683   8.997   7.060   0.944
25147WAT     H275684   8.886   6.943   0.918
25148WAT      O75685   7.764   3.728   5.965
25148WAT     H175686   7.713   3.755   5.884
25148WAT     H275687   7.738   3.635   5.991
25149WAT      O75688   5.683   2.347   2.945
25149WAT     H175689   5.658   2.314   3.036
25149WAT     H275690   5.712   2.442   2.950
25150WAT      O75691   8.160   7.298   9.684
25150WAT     H175692   8.083   7.255   9.638
25150WAT     H275693   8.182   7.248   9.768
25151WAT      O75694   8.579   3.116   0.076
25151WAT     H175695   8.513   3.169   0.022
25151WAT     H275696   8.585   3.023   0.039
25152WAT      O75697   7.980   2.350   7.807
25152WAT     H175698   8.024   2.359   7.897
25152WAT     H275699   8.042   2.303   7.745
25153WAT      O75700   5.646   0.532   7.704
25153WAT     H175701   5.575   0.520   7.635
25153WAT     H275702   5.606   0.522   7.795
25154WAT      O75703   8.707   4.597   2.415
25154WAT     H175704   8.646   4.531   2.372
25154WAT     H275705   8.785   4.549   2.456
25155WAT      O75706   4.923   6.648   0.180
25155WAT     H175707   5.006   6.647   0.235
25155WAT     H275708   4.947   6.650   0.083
25156WAT      O75709   4.075   5.713   0.278
25156WAT     H175710   4.093   5.685   0.372
25156WAT     H275711   4.143   5.671   0.217
25157WAT      O75712   7.304   3.018   1.041
25157WAT     H175713   7.266   2.927   1.028
25157WAT     H275714   7.403   3.012   1.053
25158WAT      O75715   0.746   7.009   9.630
25158WAT     H175716   0.747   6.998   9.729
25158WAT     H275717   0.829   7.057   9.601
25159WAT      O75718   2.501   2.627   6.061
25159WAT     H175719   2.449   2.679   6.129
25159WAT     H275720   2.562   2.563   6.108
25160WAT      O75721   2.166   0.196   2.206
25160WAT     H175722   2.161   0.129   2.131
25160WAT     H275723   2.206   0.152   2.287
25161WAT      O75724   4.859   7.013   4.429
25161WAT     H175725   4.851   6.918   4.458
25161WAT     H275726   4.812   7.072   4.495
25162WAT      O75727   3.638   1.044   7.246
25162WAT     H175728   3.669   1.074   7.156
25162WAT     H275729   3.573   0.968   7.236
25163WAT      O75730   5.261   0.007   0.721
25163WAT     H175731   5.315   0.019   0.638
25163WAT     H275732   5.277  -0.085   0.758
25164WAT      O75733   0.965   1.348   1.951
25164WAT     H175734   0.980   1.422   2.016
25164WAT     H275735   0.998   1.262   1.990
25165WAT      O75736   9.657   8.767   4.438
25165WAT     H175737   9.607   8.836   4.492
25165WAT     H275738   9.597   8.733   4.365
25166WAT      O75739   9.018   0.159   7.223
25166WAT     H175740   9.024   0.234   7.289
25166WAT     H275741   9.075   0.179   7.144
25167WAT      O75742   1.490   1.733   0.372
25167WAT     H175743   1.533   1.803   0.314
25167WAT     H275744   1.512   1.752   0.467
25168WAT      O75745   2.506   5.556   2.059
25168WAT     H175746   2.556   5.634   2.020
25168WAT     H275747   2.473   5.498   1.984
25169WAT      O75748   7.179   5.179   5.972
25169WAT     H175749   7.176   5.214   6.065
25169WAT     H275750   7.121   5.098   5.964
25170WAT      O75751   0.438   7.468   4.554
25170WAT     H175752   0.411   7.564   4.553
25170WAT     H275753   0.401   7.423   4.473
25171WAT      O75754   0.394   8.948   8.439
25171WAT     H175755   0.311   8.937   8.494
25171WAT     H275756   0.382   8.901   8.352
25172WAT      O75757   7.569   1.569   2.682
25172WAT     H175758   7.480   1.556   2.640
25172WAT     H275759   7.636   1.510   2.638
25173WAT      O75760   0.498   8.114   1.446
25173WAT     H175761   0.556   8.043   1.486
25173WAT     H275762   0.519   8.202   1.488
25174WAT      O75763   4.021   9.740   9.342
25174WAT     H175764   4.066   9.770   9.258
25174WAT     H275765   4.076   9.669   9.385
25175WAT      O75766   2.162   9.591   9.559
25175WAT     H175767   2.146   9.661   9.628
25175WAT     H275768   2.074   9.561   9.521
25176WAT      O75769   8.412   3.654   2.975
25176WAT     H175770   8.396   3.707   2.892
25176WAT     H275771   8.437   3.561   2.950
25177WAT      O75772   2.766   7.274   9.683
25177WAT     H175773   2.699   7.320   9.740
25177WAT     H275774   2.765   7.176   9.703
25178WAT      O75775   9.748   4.632   1.312
25178WAT     H175776   9.834   4.683   1.314
25178WAT     H275777   9.765   4.538   1.282
25179WAT      O75778   3.009   9.050   0.803
25179WAT     H175779   3.018   8.972   0.865
25179WAT     H275780   2.917   9.089   0.813
25180WAT      O75781   0.629   8.788   4.475
25180WAT     H175782   0.561   8.841   4.526
25180WAT     H275783   0.703   8.849   4.445
25181WAT      O75784   7.123   0.848   2.320
25181WAT     H175785   7.094   0.922   2.382
25181WAT     H275786   7.086   0.865   2.229
25182WAT      O75787   6.498   8.280   7.967
25182WAT     H175788   6.505   8.284   7.868
25182WAT     H275789   6.590   8.286   8.007
25183WAT      O75790   0.839   9.496   1.866
25183WAT     H175791   0.879   9.405   1.875
25183WAT     H275792   0.901   9.555   1.814
25184WAT      O75793   7.201   9.428   6.217
25184WAT     H175794   7.161   9.341   6.247
25184WAT     H275795   7.211   9.489   6.297
25185WAT      O75796   1.018   9.795   3.956
25185WAT     H175797   1.084   9.722   3.976
25185WAT     H275798   1.006   9.802   3.857
25186WAT      O75799   8.342   9.033   1.359
25186WAT     H175800   8.290   8.997   1.281
25186WAT     H275801   8.290   9.019   1.443
25187WAT      O75802   4.875   2.740   2.777
25187WAT     H175803   4.799   2.801   2.801
25187WAT     H275804   4.936   2.787   2.714
25188WAT      O75805   7.175   3.484   5.136
25188WAT     H175806   7.087   3.442   5.114
25188WAT     H275807   7.161   3.580   5.160
25189WAT      O75808   7.876   7.989   5.348
25189WAT     H175809   7.835   8.038   5.270
25189WAT     H275810   7.806   7.973   5.417
25190WAT      O75811   8.476   7.549   5.036
25190WAT     H175812   8.416   7.486   5.085
25190WAT     H275813   8.423   7.602   4.971
25191WAT      O75814   9.746   8.890   2.391
25191WAT     H175815   9.736   8.802   2.436
25191WAT     H275816   9.689   8.958   2.437
25192WAT      O75817   0.848   2.850   7.678
25192WAT     H175818   0.946   2.852   7.657
25192WAT     H275819   0.835   2.839   7.777
25193WAT      O75820   3.497   3.903   7.450
25193WAT     H175821   3.441   3.912   7.532
25193WAT     H275822   3.439   3.904   7.369
25194WAT      O75823   5.615   8.233   2.030
25194WAT     H175824   5.521   8.213   2.056
25194WAT     H275825   5.654   8.154   1.983
25195WAT      O75826   8.039   1.340   3.636
25195WAT     H175827   7.986   1.302   3.712
25195WAT     H275828   8.122   1.286   3.623
25196WAT      O75829   3.582   1.400   7.309
25196WAT     H175830   3.578   1.405   7.209
25196WAT     H275831   3.500   1.354   7.343
25197WAT      O75832   1.034   1.200   1.496
25197WAT     H175833   1.123   1.246   1.495
25197WAT     H275834   1.022   1.147   1.412
25198WAT      O75835   8.165   2.405   6.277
25198WAT     H175836   8.182   2.480   6.340
25198WAT     H275837   8.084   2.354   6.306
25199WAT      O75838   2.577   9.468   7.188
25199WAT     H175839   2.488   9.512   7.198
25199WAT     H275840   2.622   9.502   7.105
25200WAT      O75841   0.552   8.031   6.643
25200WAT     H175842   0.500   8.109   6.680
25200WAT     H275843   0.643   8.030   6.684
25201WAT      O75844   5.902   2.964   7.437
25201WAT     H175845   5.872   3.034   7.372
25201WAT     H275846   5.827   2.901   7.455
25202WAT      O75847   8.892   1.892   2.954
25202WAT     H175848   8.986   1.926   2.962
25202WAT     H275849   8.893   1.800   2.916
25203WAT      O75850   4.171   8.538   9.550
25203WAT     H175851   4.088   8.540   9.495
25203WAT     H275852   4.184   8.446   9.588
25204WAT      O75853   4.101   0.628   7.568
25204WAT     H175854   4.011   0.669   7.579
25204WAT     H275855   4.141   0.611   7.658
25205WAT      O75856   2.752   8.475   2.716
25205WAT     H175857   2.839   8.473   2.765
25205WAT     H275858   2.740   8.564   2.673
25206WAT      O75859   0.636   6.953   6.109
25206WAT     H175860   0.663   6.863   6.142
25206WAT     H275861   0.540   6.952   6.083
25207WAT      O75862   9.029   9.561   6.432
25207WAT     H175863   9.072   9.596   6.515
25207WAT     H275864   9.013   9.636   6.368
25208WAT      O75865   3.962   5.617   9.726
25208WAT     H175866   4.035   5.637   9.791
25208WAT     H275867   3.995   5.630   9.632
25209WAT      O75868   2.870   4.386   8.649
25209WAT     H175869   2.787   4.338   8.623
25209WAT     H275870   2.948   4.324   8.645
25210WAT      O75871   7.319   1.566   8.849
25210WAT     H175872   7.372   1.587   8.931
25210WAT     H275873   7.380   1.557   8.771
25211WAT      O75874   7.140   1.551   0.887
25211WAT     H175875   7.086   1.502   0.818
25211WAT     H275876   7.079   1.608   0.942
25212WAT      O75877   5.347   3.001   9.583
25212WAT     H175878   5.424   2.957   9.537
25212WAT     H275879   5.317   3.080   9.530
25213WAT      O75880   4.117   7.228   2.870
25213WAT     H175881   4.173   7.310   2.885
25213WAT     H275882   4.061   7.241   2.788
25214WAT      O75883   7.228   4.120   3.616
25214WAT     H175884   7.153   4.172   3.657
25214WAT     H275885   7.191   4.049   3.556
25215WAT      O75886   7.503   3.358   8.895
25215WAT     H175887   7.506   3.294   8.819
25215WAT     H275888   7.493   3.451   8.861
25216WAT      O75889   0.291   7.751   3.134
25216WAT     H175890   0.309   7.657   3.104
25216WAT     H275891   0.303   7.756   3.234
25217WAT      O75892   2.066   4.755   6.440
25217WAT     H175893   2.101   4.784   6.350
25217WAT     H275894   2.068   4.833   6.503
25218WAT      O75895   5.166   0.655   2.620
25218WAT     H175896   5.109   0.650   2.538
25218WAT     H275897   5.219   0.570   2.628
25219WAT      O75898   5.412   4.771   8.241
25219WAT     H175899   5.348   4.843   8.267
25219WAT     H275900   5.504   4.809   8.234
25220WAT      O75901   7.593   7.055   0.654
25220WAT     H175902   7.672   7.049   0.715
25220WAT     H275903   7.521   7.109   0.698
25221WAT      O75904   5.594   2.025   8.146
25221WAT     H175905   5.602   2.052   8.242
25221WAT     H275906   5.545   2.095   8.095
25222WAT      O75907   7.338   2.629   2.308
25222WAT     H175908   7.254   2.575   2.313
25222WAT     H275909   7.328   2.700   2.238
25223WAT      O75910   3.150   5.991   7.376
25223WAT     H175911   3.111   6.083   7.372
25223WAT     H275912   3.149   5.951   7.284
25224WAT      O75913   9.018   0.691   3.287
25224WAT     H175914   9.107   0.735   3.304
25224WAT     H275915   8.964   0.693   3.370
25225WAT      O75916   6.658   2.507   1.854
25225WAT     H175917   6.743   2.468   1.819
25225WAT     H275918   6.628   2.580   1.792
25226WAT      O75919   9.266   8.979   9.000
25226WAT     H175920   9.276   9.027   9.087
25226WAT     H275921   9.312   9.029   8.928
25227WAT      O75922   2.276   9.026   6.274
25227WAT     H175923   2.209   9.098   6.291
25227WAT     H275924   2.357   9.041   6.331
25228WAT      O75925   4.497   9.250   8.384
25228WAT     H175926   4.537   9.303   8.459
25228WAT     H275927   4.558   9.175   8.359
25229WAT      O75928   7.352   7.352   1.002
25229WAT     H175929   7.282   7.295   1.046
25229WAT     H275930   7.321   7.447   1.000
25230WAT      O75931   2.360   1.023   2.525
25230WAT     H175932   2.373   1.122   2.522
25230WAT     H275933   2.267   1.002   2.555
25231WAT      O75934   8.013   7.946   2.336
25231WAT     H175935   7.969   7.901   2.414
25231WAT     H275936   7.955   7.935   2.255
25232WAT      O75937   7.962   8.892   3.788
25232WAT     H175938   7.923   8.835   3.860
25232WAT     H275939   8.017   8.836   3.726
25233WAT      O75940   0.835   8.337   1.422
25233WAT     H175941   0.807   8.415   1.480
25233WAT     H275942   0.898   8.369   1.352
25234WAT      O75943   3.621   7.548   7.816
25234WAT     H175944   3.705   7.494   7.820
25234WAT     H275945   3.544   7.488   7.793
25235WAT      O75946   7.126   4.705   1.558
25235WAT     H175947   7.209   4.760   1.569
25235WAT     H275948   7.085   4.725   1.469
25236WAT      O75949   1.047   6.948   8.144
25236WAT     H175950   1.093   7.036   8.132
25236WAT     H275951   1.046   6.924   8.241
25237WAT      O75952   5.916   2.366   6.948
25237WAT     H175953   5.923   2.464   6.965
25237WAT     H275954   5.894   2.350   6.852
25238WAT      O75955   1.172   8.988   6.443
25238WAT     H175956   1.234   9.003   6.520
25238WAT     H275957   1.145   9.076   6.405
25239WAT      O75958   0.818   2.867   0.234
25239WAT     H175959   0.746   2.935   0.249
25239WAT     H275960   0.812   2.796   0.304
25240WAT      O75961   1.195   4.546   9.687
25240WAT     H175962   1.126   4.568   9.755
25240WAT     H275963   1.245   4.464   9.715
25241WAT      O75964   6.870   1.083   9.869
25241WAT     H175965   6.920   1.116   9.950
25241WAT     H275966   6.775   1.112   9.875
25242WAT      O75967   3.448   2.787   3.505
25242WAT     H175968   3.481   2.835   3.423
25242WAT     H275969   3.440   2.852   3.580
25243WAT      O75970   8.463   1.942   2.322
25243WAT     H175971   8.479   1.923   2.225
25243WAT     H275972   8.421   2.033   2.331
25244WAT      O75973   6.910   2.487   3.735
25244WAT     H175974   6.979   2.535   3.788
25244WAT     H275975   6.838   2.452   3.796
25245WAT      O75976   7.569   7.847   3.235
25245WAT     H175977   7.525   7.776   3.291
25245WAT     H275978   7.608   7.806   3.153
25246WAT      O75979   4.295   9.289   3.101
25246WAT     H175980   4.334   9.226   3.167
25246WAT     H275981   4.313   9.256   3.008
25247WAT      O75982   8.115   9.273   6.014
25247WAT     H175983   8.016   9.270   6.031
25247WAT     H275984   8.163   9.228   6.088
25248WAT      O75985   9.197   6.161   4.317
25248WAT     H175986   9.183   6.260   4.324
25248WAT     H275987   9.272   6.142   4.254
25249WAT      O75988   7.203   7.438   2.092
25249WAT     H175989   7.217   7.536   2.078
25249WAT     H275990   7.264   7.405   2.164
25250WAT      O75991   1.594   2.860   9.608
25250WAT     H175992   1.605   2.890   9.703
25250WAT     H275993   1.623   2.764   9.601
25251WAT      O75994   7.341   1.418   7.124
25251WAT     H175995   7.383   1.412   7.214
25251WAT     H275996   7.397   1.476   7.065
25252WAT      O75997   9.109   5.796   0.916
25252WAT     H175998   9.120   5.835   1.007
25252WAT     H275999   9.013   5.774   0.901
25253WAT      O76000   3.740   2.306   3.542
25253WAT     H176001   3.696   2.274   3.626
25253WAT     H276002   3.715   2.401   3.524
25254WAT      O76003   5.707   5.438   1.607
25254WAT     H176004   5.722   5.498   1.685
25254WAT     H276005   5.710   5.342   1.638
25255WAT      O76006   2.789   6.711   4.671
25255WAT     H176007   2.789   6.704   4.571
25255WAT     H276008   2.779   6.619   4.710
25256WAT      O76009   8.422   8.538   5.298
25256WAT     H176010   8.414   8.564   5.202
25256WAT     H276011   8.502   8.479   5.311
25257WAT      O76012   8.428   3.300   0.888
25257WAT     H176013   8.415   3.330   0.983
25257WAT     H276014   8.510   3.342   0.850
25258WAT      O76015   2.813   5.465   9.179
25258WAT     H176016   2.787   5.532   9.110
25258WAT     H276017   2.771   5.377   9.157
25259WAT      O76018   3.850   2.155   8.223
25259WAT     H176019   3.832   2.185   8.129
25259WAT     H276020   3.848   2.233   8.284
25260WAT      O76021   4.389   8.314   1.546
25260WAT     H176022   4.412   8.223   1.581
25260WAT     H276023   4.290   8.323   1.540
25261WAT      O76024   5.518   0.346   9.566
25261WAT     H176025   5.530   0.445   9.559
25261WAT     H276026   5.475   0.311   9.482
25262WAT      O76027   3.316   3.463   3.467
25262WAT     H176028   3.313   3.505   3.558
25262WAT     H276029   3.332   3.535   3.398
25263WAT      O76030   3.530   5.724   8.298
25263WAT     H176031   3.563   5.640   8.256
25263WAT     H276032   3.433   5.737   8.275
25264WAT      O76033   9.196   7.905   2.734
25264WAT     H176034   9.206   7.944   2.643
25264WAT     H276035   9.236   7.814   2.736
25265WAT      O76036   3.045   2.955   8.582
25265WAT     H176037   2.954   2.918   8.601
25265WAT     H276038   3.046   2.998   8.492
25266WAT      O76039   3.908   0.111   9.064
25266WAT     H176040   3.957   0.190   9.027
25266WAT     H276041   3.969   0.033   9.069
25267WAT      O76042   9.204   5.294   3.951
25267WAT     H176043   9.267   5.269   4.024
25267WAT     H276044   9.114   5.254   3.968
25268WAT      O76045   8.773   1.040   2.195
25268WAT     H176046   8.778   1.117   2.258
25268WAT     H276047   8.808   1.068   2.105
25269WAT      O76048   2.789   4.977   9.001
25269WAT     H176049   2.795   4.877   9.003
25269WAT     H276050   2.841   5.013   8.924
25270WAT      O76051   9.248   3.004   3.370
25270WAT     H176052   9.160   3.008   3.418
25270WAT     H276053   9.249   2.924   3.310
25271WAT      O76054   7.471   9.248   3.288
25271WAT     H176055   7.492   9.325   3.348
25271WAT     H276056   7.549   9.186   3.284
25272WAT      O76057   8.615   1.308   3.230
25272WAT     H176058   8.649   1.304   3.136
25272WAT     H276059   8.661   1.382   3.278
25273WAT      O76060   2.671   0.845   0.640
25273WAT     H176061   2.618   0.813   0.561
25273WAT     H276062   2.634   0.804   0.723
25274WAT      O76063   6.235   6.975   1.087
25274WAT     H176064   6.221   6.941   0.994
25274WAT     H276065   6.208   6.906   1.153
25275WAT      O76066   7.049   8.825   7.496
25275WAT     H176067   7.045   8.728   7.519
25275WAT     H276068   6.957   8.858   7.476
25276WAT      O76069   1.801   0.218   3.753
25276WAT     H176070   1.746   0.193   3.832
25276WAT     H276071   1.746   0.211   3.670
25277WAT      O76072   0.080   8.548   2.566
25277WAT     H176073   0.151   8.556   2.635
25277WAT     H276074   0.119   8.510   2.482
25278WAT      O76075   5.962   8.294   2.060
25278WAT     H176076   5.902   8.373   2.071
25278WAT     H276077   6.036   8.299   2.128
25279WAT      O76078   7.234   8.188   1.923
25279WAT     H176079   7.159   8.253   1.919
25279WAT     H276080   7.318   8.236   1.950
25280WAT      O76081   2.019   8.748   1.319
25280WAT     H176082   1.973   8.823   1.271
25280WAT     H276083   2.114   8.743   1.289
25281WAT      O76084   3.253   5.012   0.923
25281WAT     H176085   3.163   4.998   0.962
25281WAT     H276086   3.276   5.109   0.924
25282WAT      O76087   8.847   5.646   7.644
25282WAT     H176088   8.760   5.656   7.596
25282WAT     H276089   8.917   5.618   7.578
25283WAT      O76090   1.198   3.589   5.489
25283WAT     H176091   1.297   3.598   5.497
25283WAT     H276092   1.157   3.590   5.580
25284WAT      O76093   6.721   2.118   6.157
25284WAT     H176094   6.783   2.043   6.135
25284WAT     H276095   6.663   2.091   6.234
25285WAT      O76096   9.257   0.163   1.658
25285WAT     H176097   9.313   0.084   1.682
25285WAT     H276098   9.173   0.162   1.712
25286WAT      O76099   1.241   2.861   4.886
25286WAT     H176100   1.316   2.900   4.833
25286WAT     H276101   1.254   2.762   4.894
25287WAT      O76102   3.614   0.776   2.227
25287WAT     H176103   3.593   0.715   2.151
25287WAT     H276104   3.599   0.728   2.314
25288WAT      O76105   2.553   8.396   3.556
25288WAT     H176106   2.645   8.356   3.561
25288WAT     H276107   2.485   8.323   3.548
25289WAT      O76108   8.358   4.146   4.846
25289WAT     H176109   8.340   4.207   4.769
25289WAT     H276110   8.439   4.090   4.825
25290WAT      O76111   0.829   9.313   8.884
25290WAT     H176112   0.798   9.352   8.971
25290WAT     H276113   0.887   9.379   8.836
25291WAT      O76114   5.356   3.906   6.937
25291WAT     H176115   5.384   3.843   6.865
25291WAT     H276116   5.338   3.996   6.898
25292WAT      O76117   8.910   6.340   4.526
25292WAT     H176118   8.924   6.331   4.625
25292WAT     H276119   8.842   6.411   4.509
25293WAT      O76120   5.505   6.155   9.735
25293WAT     H176121   5.492   6.062   9.702
25293WAT     H276122   5.557   6.208   9.667
25294WAT      O76123   2.110   3.400   8.377
25294WAT     H176124   2.043   3.439   8.313
25294WAT     H276125   2.062   3.346   8.446
25295WAT      O76126   6.319   1.538   8.841
25295WAT     H176127   6.248   1.487   8.890
25295WAT     H276128   6.381   1.581   8.908
25296WAT      O76129   6.272   9.623   4.845
25296WAT     H176130   6.297   9.707   4.798
25296WAT     H276131   6.266   9.639   4.943
25297WAT      O76132   4.769   3.902   7.622
25297WAT     H176133   4.835   3.935   7.555
25297WAT     H276134   4.683   3.881   7.576
25298WAT      O76135   2.799   9.219   5.217
25298WAT     H176136   2.716   9.237   5.271
25298WAT     H276137   2.880   9.240   5.272
25299WAT      O76138   6.725   4.299   2.244
25299WAT     H176139   6.648   4.238   2.225
25299WAT     H276140   6.805   4.245   2.270
25300WAT      O76141   4.305   9.134   5.359
25300WAT     H176142   4.220   9.115   5.407
25300WAT     H276143   4.371   9.177   5.421
25301WAT      O76144   7.655   3.204   7.485
25301WAT     H176145   7.744   3.159   7.491
25301WAT     H276146   7.618   3.192   7.393
25302WAT      O76147   3.432   3.196   2.666
25302WAT     H176148   3.372   3.233   2.595
25302WAT     H276149   3.496   3.131   2.624
25303WAT      O76150   0.192   0.929   4.685
25303WAT     H176151   0.105   0.977   4.683
25303WAT     H276152   0.264   0.987   4.647
25304WAT      O76153   6.512   0.158   0.943
25304WAT     H176154   6.431   0.218   0.950
25304WAT     H276155   6.572   0.174   1.021
25305WAT      O76156   5.359   9.801   7.473
25305WAT     H176157   5.280   9.777   7.417
25305WAT     H276158   5.356   9.899   7.494
25306WAT      O76159   6.638   1.984   1.861
25306WAT     H176160   6.665   2.072   1.900
25306WAT     H276161   6.572   1.999   1.787
25307WAT      O76162   9.236   6.366   3.805
25307WAT     H176163   9.203   6.272   3.812
25307WAT     H276164   9.289   6.389   3.886
25308WAT      O76165   4.371   1.491   6.934
25308WAT     H176166   4.295   1.467   6.995
25308WAT     H276167   4.356   1.581   6.895
25309WAT      O76168   2.541   8.830   5.818
25309WAT     H176169   2.606   8.904   5.839
25309WAT     H276170   2.448   8.866   5.820
25310WAT      O76171   9.146   9.419   8.312
25310WAT     H176172   9.193   9.352   8.254
25310WAT     H276173   9.211   9.487   8.344
25311WAT      O76174   9.809   2.519   4.934
25311WAT     H176175   9.901   2.481   4.944
25311WAT     H276176   9.811   2.594   4.868
25312WAT      O76177   4.160   9.775   9.097
25312WAT     H176178   4.239   9.740   9.148
25312WAT     H276179   4.148   9.722   9.013
25313WAT      O76180   6.092   4.821   0.463
25313WAT     H176181   6.157   4.887   0.427
25313WAT     H276182   6.088   4.828   0.562
25314WAT      O76183   9.720   1.775   7.572
25314WAT     H176184   9.760   1.704   7.629
25314WAT     H276185   9.790   1.814   7.512
25315WAT      O76186   1.521   3.692   0.065
25315WAT     H176187   1.546   3.786   0.088
25315WAT     H276188   1.603   3.641   0.038
25316WAT      O76189   9.869   3.122   3.332
25316WAT     H176190   9.798   3.059   3.364
25316WAT     H276191   9.954   3.072   3.319
25317WAT      O76192   7.813   3.777   9.342
25317WAT     H176193   7.899   3.812   9.305
25317WAT     H276194   7.816   3.778   9.442
25318WAT      O76195   7.486   6.080   0.583
25318WAT     H176196   7.526   6.164   0.619
25318WAT     H276197   7.545   6.044   0.510
25319WAT      O76198   4.994   1.513   2.591
25319WAT     H176199   4.924   1.575   2.628
25319WAT     H276200   4.950   1.444   2.533
25320WAT      O76201   1.867   5.752   3.730
25320WAT     H176202   1.929   5.818   3.687
25320WAT     H276203   1.781   5.798   3.753
25321WAT      O76204   4.366   8.322   6.763
25321WAT     H176205   4.354   8.362   6.672
25321WAT     H276206   4.405   8.230   6.754
25322WAT      O76207   1.988   6.253   1.245
25322WAT     H176208   2.043   6.309   1.307
25322WAT     H276209   2.015   6.272   1.150
25323WAT      O76210   8.937   8.328   7.433
25323WAT     H176211   8.934   8.311   7.531
25323WAT     H276212   9.022   8.292   7.395
25324WAT      O76213   6.090   5.322   7.077
25324WAT     H176214   6.079   5.280   6.986
25324WAT     H276215   6.121   5.253   7.142
25325WAT      O76216   1.974   4.043   1.678
25325WAT     H176217   1.931   3.985   1.747
25325WAT     H276218   2.000   3.988   1.599
25326WAT      O76219   5.435   9.737   1.125
25326WAT     H176220   5.515   9.765   1.071
25326WAT     H276221   5.434   9.787   1.211
25327WAT      O76222   9.024   8.097   8.431
25327WAT     H176223   9.091   8.098   8.357
25327WAT     H276224   8.944   8.152   8.405
25328WAT      O76225   6.410   9.606   2.815
25328WAT     H176226   6.471   9.528   2.832
25328WAT     H276227   6.386   9.650   2.901
25329WAT      O76228   9.664   8.422   6.305
25329WAT     H176229   9.593   8.380   6.361
25329WAT     H276230   9.707   8.496   6.356
25330WAT      O76231   3.546   3.748   9.881
25330WAT     H176232   3.559   3.840   9.918
25330WAT     H276233   3.549   3.681   9.955
25331WAT      O76234   1.885   0.073   0.909
25331WAT     H176235   1.964   0.133   0.925
25331WAT     H276236   1.803   0.114   0.948
25332WAT      O76237   8.597   0.558   2.140
25332WAT     H176238   8.636   0.501   2.068
25332WAT     H276239   8.523   0.614   2.103
25333WAT      O76240   8.334   2.028   9.859
25333WAT     H176241   8.358   1.933   9.877
25333WAT     H276242   8.360   2.052   9.766
25334WAT      O76243   5.739   4.461   9.045
25334WAT     H176244   5.686   4.467   8.960
25334WAT     H276245   5.755   4.365   9.068
25335WAT      O76246   0.364   8.061   1.720
25335WAT     H176247   0.337   8.154   1.698
25335WAT     H276248   0.325   7.998   1.653
25336WAT      O76249   0.597   7.472   7.904
25336WAT     H176250   0.593   7.561   7.950
25336WAT     H276251   0.591   7.486   7.805
25337WAT      O76252   4.710   4.396   6.975
25337WAT     H176253   4.780   4.364   6.911
25337WAT     H276254   4.688   4.491   6.954
25338WAT      O76255   5.899   5.919   0.949
25338WAT     H176256   5.899   5.868   0.863
25338WAT     H276257   5.824   5.888   1.007
25339WAT      O76258   0.132   3.689   0.693
25339WAT     H176259   0.088   3.603   0.719
25339WAT     H276260   0.199   3.671   0.621
25340WAT      O76261   6.905   5.330   4.338
25340WAT     H176262   6.954   5.384   4.406
25340WAT     H276263   6.878   5.390   4.262
25341WAT      O76264   4.546   4.715   2.142
25341WAT     H176265   4.448   4.718   2.126
25341WAT     H276266   4.574   4.791   2.200
25342WAT      O76267   5.063   8.954   3.777
25342WAT     H176268   5.124   8.941   3.699
25342WAT     H276269   5.044   9.052   3.787
25343WAT      O76270   1.473   5.888   9.035
25343WAT     H176271   1.554   5.834   9.015
25343WAT     H276272   1.427   5.914   8.950
25344WAT      O76273   0.410   3.564   3.375
25344WAT     H176274   0.351   3.621   3.318
25344WAT     H276275   0.454   3.621   3.445
25345WAT      O76276   4.939   8.847   3.340
25345WAT     H176277   4.910   8.943   3.330
25345WAT     H276278   4.859   8.787   3.333
25346WAT      O76279   1.862   9.345   8.744
25346WAT     H176280   1.827   9.292   8.821
25346WAT     H276281   1.838   9.299   8.658
25347WAT      O76282   3.698   0.969   3.082
25347WAT     H176283   3.637   0.969   3.161
25347WAT     H276284   3.646   0.990   3.000
25348WAT      O76285   4.583   5.146   6.194
25348WAT     H176286   4.632   5.158   6.108
25348WAT     H276287   4.533   5.059   6.193
25349WAT      O76288   3.797   3.232   5.351
25349WAT     H176289   3.834   3.220   5.443
25349WAT     H276290   3.856   3.294   5.300
25350WAT      O76291   4.746   0.762   9.796
25350WAT     H176292   4.696   0.675   9.802
25350WAT     H276293   4.789   0.782   9.884
25351WAT      O76294   3.267   5.414   2.128
25351WAT     H176295   3.204   5.492   2.129
25351WAT     H276296   3.234   5.344   2.191
25352WAT      O76297   6.958   8.277   7.350
25352WAT     H176298   7.020   8.337   7.300
25352WAT     H276299   6.904   8.223   7.286
25353WAT      O76300   0.614   4.390   4.459
25353WAT     H176301   0.541   4.445   4.419
25353WAT     H276302   0.575   4.306   4.498
25354WAT      O76303   6.733   0.877   9.588
25354WAT     H176304   6.659   0.816   9.559
25354WAT     H276305   6.794   0.827   9.651
25355WAT      O76306   5.391   3.190   7.233
25355WAT     H176307   5.450   3.117   7.197
25355WAT     H276308   5.445   3.253   7.287
25356WAT      O76309   7.296   3.549   6.861
25356WAT     H176310   7.209   3.501   6.869
25356WAT     H276311   7.299   3.599   6.774
25357WAT      O76312   7.470   6.758   3.493
25357WAT     H176313   7.390   6.700   3.488
25357WAT     H276314   7.541   6.724   3.431
25358WAT      O76315   3.938   5.761   8.296
25358WAT     H176316   3.998   5.782   8.218
25358WAT     H276317   3.993   5.756   8.379
25359WAT      O76318   2.428   8.350   4.690
25359WAT     H176319   2.405   8.253   4.705
25359WAT     H276320   2.357   8.393   4.636
25360WAT      O76321   4.024   4.984   3.875
25360WAT     H176322   4.029   4.929   3.792
25360WAT     H276323   4.066   4.935   3.951
25361WAT      O76324   7.513   8.257   8.793
25361WAT     H176325   7.472   8.232   8.880
25361WAT     H276326   7.577   8.185   8.764
25362WAT      O76327   9.596   3.374   5.365
25362WAT     H176328   9.529   3.446   5.349
25362WAT     H276329   9.549   3.289   5.389
25363WAT      O76330   1.737   1.619   3.756
25363WAT     H176331   1.712   1.657   3.845
25363WAT     H276332   1.732   1.690   3.686
25364WAT      O76333   7.704   9.138   9.698
25364WAT     H176334   7.628   9.179   9.749
25364WAT     H276335   7.680   9.134   9.601
25365WAT      O76336   0.907   2.497   1.178
25365WAT     H176337   0.906   2.517   1.080
25365WAT     H276338   0.853   2.415   1.197
25366WAT      O76339   9.645   5.001   3.240
25366WAT     H176340   9.729   4.995   3.185
25366WAT     H276341   9.670   5.003   3.337
25367WAT      O76342   7.882   8.389   0.282
25367WAT     H176343   7.861   8.292   0.267
25367WAT     H276344   7.942   8.421   0.208
25368WAT      O76345   2.429   7.109   2.501
25368WAT     H176346   2.493   7.184   2.486
25368WAT     H276347   2.339   7.146   2.525
25369WAT      O76348   3.973   6.911   4.327
25369WAT     H176349   3.985   6.918   4.228
25369WAT     H276350   4.032   6.978   4.372
25370WAT      O76351   3.663   0.398   6.588
25370WAT     H176352   3.648   0.409   6.490
25370WAT     H276353   3.601   0.458   6.638
25371WAT      O76354   0.410   0.850   2.926
25371WAT     H176355   0.451   0.793   2.998
25371WAT     H276356   0.375   0.791   2.853
25372WAT      O76357   8.604   0.770   1.402
25372WAT     H176358   8.671   0.842   1.421
25372WAT     H276359   8.606   0.748   1.304
25373WAT      O76360   5.952   4.005   6.274
25373WAT     H176361   5.962   3.908   6.292
25373WAT     H276362   5.984   4.025   6.181
25374WAT      O76363   7.714   9.818   6.700
25374WAT     H176364   7.786   9.828   6.632
25374WAT     H276365   7.648   9.892   6.690
25375WAT      O76366   7.181   4.235   6.559
25375WAT     H176367   7.109   4.301   6.581
25375WAT     H276368   7.224   4.260   6.472
25376WAT      O76369   2.240   7.326   5.078
25376WAT     H176370   2.322   7.349   5.131
25376WAT     H276371   2.257   7.242   5.026
25377WAT      O76372   7.802   0.296   2.318
25377WAT     H176373   7.774   0.363   2.249
25377WAT     H276374   7.862   0.340   2.385
25378WAT      O76375   4.320   8.655   5.209
25378WAT     H176376   4.408   8.609   5.216
25378WAT     H276377   4.249   8.600   5.252
25379WAT      O76378   8.902   8.607   0.379
25379WAT     H176379   8.874   8.541   0.310
25379WAT     H276380   8.833   8.612   0.452
25380WAT      O76381   8.405   2.316   7.731
25380WAT     H176382   8.315   2.280   7.707
25380WAT     H276383   8.476   2.264   7.683
25381WAT      O76384   0.567   9.586   9.746
25381WAT     H176385   0.616   9.588   9.659
25381WAT     H276386   0.576   9.495   9.787
25382WAT      O76387   6.689   7.363   8.207
25382WAT     H176388   6.774   7.408   8.181
25382WAT     H276389   6.685   7.272   8.165
25383WAT      O76390   5.964   5.473   2.380
25383WAT     H176391   5.923   5.382   2.384
25383WAT     H276392   5.911   5.536   2.436
25384WAT      O76393   0.411   6.249   1.679
25384WAT     H176394   0.326   6.259   1.730
25384WAT     H276395   0.442   6.339   1.646
25385WAT      O76396   8.890   4.171   2.977
25385WAT     H176397   8.968   4.153   2.917
25385WAT     H276398   8.869   4.088   3.029
25386WAT      O76399   7.078   4.458   8.958
25386WAT     H176400   6.986   4.485   8.986
25386WAT     H276401   7.106   4.378   9.011
25387WAT      O76402   5.882   3.645   7.624
25387WAT     H176403   5.887   3.556   7.670
25387WAT     H276404   5.830   3.709   7.680
25388WAT      O76405   9.108   3.400   2.838
25388WAT     H176406   9.148   3.439   2.922
25388WAT     H276407   9.166   3.326   2.805
25389WAT      O76408   3.870   9.422   8.875
25389WAT     H176409   3.930   9.502   8.882
25389WAT     H276410   3.915   9.351   8.821
25390WAT      O76411   4.332   3.083   5.055
25390WAT     H176412   4.336   3.065   5.153
25390WAT     H276413   4.270   3.018   5.012
25391WAT      O76414   3.112   9.151   1.309
25391WAT     H176415   3.190   9.131   1.368
25391WAT     H276416   3.029   9.113   1.350
25392WAT      O76417   2.467   0.660   4.430
25392WAT     H176418   2.464   0.755   4.400
25392WAT     H276419   2.403   0.647   4.506
25393WAT      O76420   8.031   4.347   9.699
25393WAT     H176421   7.961   4.393   9.754
25393WAT     H276422   8.071   4.413   9.634
25394WAT      O76423   6.525   0.649   9.518
25394WAT     H176424   6.576   0.618   9.438
25394WAT     H276425   6.465   0.724   9.492
25395WAT      O76426   2.587   6.385   9.327
25395WAT     H176427   2.515   6.448   9.299
25395WAT     H276428   2.623   6.412   9.417
25396WAT      O76429   3.446   5.289   6.973
25396WAT     H176430   3.472   5.346   7.051
25396WAT     H276431   3.407   5.347   6.902
25397WAT      O76432   7.980   6.732   4.779
25397WAT     H176433   8.041   6.810   4.760
25397WAT     H276434   8.035   6.648   4.785
25398WAT      O76435   7.346   2.710   9.258
25398WAT     H176436   7.388   2.699   9.348
25398WAT     H276437   7.374   2.797   9.218
25399WAT      O76438   5.372   5.890   5.627
25399WAT     H176439   5.340   5.882   5.533
25399WAT     H276440   5.416   5.979   5.640
25400WAT      O76441   6.286   7.336   5.553
25400WAT     H176442   6.312   7.427   5.586
25400WAT     H276443   6.210   7.344   5.489
25401WAT      O76444   6.850   5.060   4.671
25401WAT     H176445   6.897   4.991   4.727
25401WAT     H276446   6.914   5.133   4.648
25402WAT      O76447   1.136   0.632   7.558
25402WAT     H176448   1.235   0.650   7.558
25402WAT     H276449   1.097   0.665   7.644
25403WAT      O76450   0.764   0.532   0.652
25403WAT     H176451   0.716   0.605   0.603
25403WAT     H276452   0.793   0.566   0.741
25404WAT      O76453   3.340   2.683   4.414
25404WAT     H176454   3.289   2.681   4.328
25404WAT     H276455   3.323   2.599   4.464
25405WAT      O76456   7.076   5.411   5.263
25405WAT     H176457   7.170   5.408   5.297
25405WAT     H276458   7.069   5.357   5.179
25406WAT      O76459   5.939   6.501   2.988
25406WAT     H176460   5.971   6.501   3.082
25406WAT     H276461   6.014   6.527   2.926
25407WAT      O76462   7.386   0.440   1.157
25407WAT     H176463   7.479   0.475   1.162
25407WAT     H276464   7.351   0.450   1.064
25408WAT      O76465   7.007   9.286   8.465
25408WAT     H176466   7.054   9.249   8.545
25408WAT     H276467   7.034   9.382   8.453
25409WAT      O76468   2.730   2.104   1.064
25409WAT     H176469   2.781   2.190   1.067
25409WAT     H276470   2.699   2.080   1.156
25410WAT      O76471   5.867   5.193   8.502
25410WAT     H176472   5.951   5.147   8.472
25410WAT     H276473   5.875   5.291   8.484
25411WAT      O76474   5.292   8.565   8.667
25411WAT     H176475   5.390   8.557   8.645
25411WAT     H276476   5.282   8.594   8.762
25412WAT      O76477   5.677   6.838   5.939
25412WAT     H176478   5.742   6.818   6.012
25412WAT     H276479   5.605   6.768   5.939
25413WAT      O76480   8.880   4.028   7.805
25413WAT     H176481   8.976   4.003   7.790
25413WAT     H276482   8.873   4.083   7.888
25414WAT      O76483   7.093   2.012   8.653
25414WAT     H176484   7.161   2.075   8.691
25414WAT     H276485   7.132   1.920   8.650
25415WAT      O76486   6.405   6.797   4.153
25415WAT     H176487   6.468   6.800   4.230
25415WAT     H276488   6.378   6.703   4.134
25416WAT      O76489   1.864   1.398   1.411
25416WAT     H176490   1.785   1.381   1.469
25416WAT     H276491   1.846   1.478   1.353
25417WAT      O76492   7.814   8.671   6.568
25417WAT     H176493   7.809   8.713   6.478
25417WAT     H276494   7.886   8.715   6.622
25418WAT      O76495   6.133   2.426   3.641
25418WAT     H176496   6.112   2.345   3.695
25418WAT     H276497   6.075   2.427   3.559
25419WAT      O76498   3.494   1.639   0.060
25419WAT     H176499   3.399   1.669   0.064
25419WAT     H276500   3.506   1.558   0.117
25420WAT      O76501   7.993   6.258   8.733
25420WAT     H176502   7.907   6.283   8.778
25420WAT     H276503   8.005   6.159   8.736
25421WAT      O76504   3.202   1.771   1.799
25421WAT     H176505   3.191   1.703   1.727
25421WAT     H276506   3.268   1.737   1.867
25422WAT      O76507   4.776   5.267   7.142
25422WAT     H176508   4.831   5.234   7.065
25422WAT     H276509   4.802   5.219   7.226
25423WAT      O76510   2.272   3.922   1.261
25423WAT     H176511   2.304   3.854   1.196
25423WAT     H276512   2.336   3.928   1.337
25424WAT      O76513   4.127   1.619   8.087
25424WAT     H176514   4.192   1.635   8.161
25424WAT     H276515   4.034   1.614   8.124
25425WAT      O76516   6.369   1.851   8.875
25425WAT     H176517   6.276   1.820   8.853
25425WAT     H276518   6.411   1.787   8.939
25426WAT      O76519   6.126   3.977   1.587
25426WAT     H176520   6.065   3.994   1.509
25426WAT     H276521   6.159   4.064   1.623
25427WAT      O76522   7.013   1.723   2.642
25427WAT     H176523   7.073   1.793   2.681
25427WAT     H276524   6.980   1.664   2.716
25428WAT      O76525   5.593   3.008   6.325
25428WAT     H176526   5.588   2.910   6.308
25428WAT     H276527   5.501   3.047   6.324
25429WAT      O76528   6.929   1.179   0.239
25429WAT     H176529   7.027   1.178   0.224
25429WAT     H276530   6.904   1.264   0.286
25430WAT      O76531   9.341   3.601   3.295
25430WAT     H176532   9.343   3.665   3.372
25430WAT     H276533   9.433   3.589   3.259
25431WAT      O76534   2.582   9.652   9.505
25431WAT     H176535   2.499   9.643   9.451
25431WAT     H276536   2.559   9.651   9.602
25432WAT      O76537   8.049   6.130   5.929
25432WAT     H176538   8.111   6.205   5.952
25432WAT     H276539   8.022   6.082   6.012
25433WAT      O76540   3.590   3.959   0.807
25433WAT     H176541   3.595   4.059   0.818
25433WAT     H276542   3.559   3.937   0.714
25434WAT      O76543   2.185   9.227   5.274
25434WAT     H176544   2.144   9.268   5.355
25434WAT     H276545   2.211   9.299   5.209
25435WAT      O76546   1.735   3.534   0.051
25435WAT     H176547   1.797   3.598   0.096
25435WAT     H276548   1.788   3.467  -0.001
25436WAT      O76549   6.708   9.523   1.068
25436WAT     H176550   6.659   9.443   1.104
25436WAT     H276551   6.651   9.604   1.076
25437WAT      O76552   7.314   6.178   1.899
25437WAT     H176553   7.326   6.222   1.989
25437WAT     H276554   7.226   6.205   1.861
25438WAT      O76555   2.815   8.543   9.778
25438WAT     H176556   2.832   8.568   9.683
25438WAT     H276557   2.816   8.444   9.788
25439WAT      O76558   8.668   9.753   0.896
25439WAT     H176559   8.644   9.849   0.902
25439WAT     H276560   8.637   9.705   0.979
25440WAT      O76561   1.904   7.753   8.341
25440WAT     H176562   1.893   7.696   8.259
25440WAT     H276563   1.815   7.767   8.384
25441WAT      O76564   3.505   5.680   2.845
25441WAT     H176565   3.515   5.597   2.790
25441WAT     H276566   3.433   5.668   2.913
25442WAT      O76567   5.794   2.723   7.911
25442WAT     H176568   5.774   2.665   7.832
25442WAT     H276569   5.721   2.713   7.979
25443WAT      O76570   0.244   5.714   7.876
25443WAT     H176571   0.149   5.712   7.848
25443WAT     H276572   0.272   5.809   7.894
25444WAT      O76573   9.466   0.873   1.349
25444WAT     H176574   9.444   0.963   1.312
25444WAT     H276575   9.559   0.873   1.386
25445WAT      O76576   7.923   7.159   5.650
25445WAT     H176577   7.863   7.203   5.716
25445WAT     H276578   7.992   7.224   5.618
25446WAT      O76579   0.714   9.418   4.518
25446WAT     H176580   0.766   9.499   4.488
25446WAT     H276581   0.704   9.355   4.442
25447WAT      O76582   3.004   5.825   1.357
25447WAT     H176583   2.939   5.779   1.297
25447WAT     H276584   3.031   5.763   1.431
25448WAT      O76585   2.083   9.048   0.137
25448WAT     H176586   2.001   9.076   0.187
25448WAT     H276587   2.076   8.951   0.114
25449WAT      O76588   6.865   3.386   5.696
25449WAT     H176589   6.796   3.357   5.762
25449WAT     H276590   6.902   3.475   5.724
25450WAT      O76591   0.435   8.579   4.511
25450WAT     H176592   0.457   8.482   4.521
25450WAT     H276593   0.490   8.618   4.438
25451WAT      O76594   4.020   9.420   7.814
25451WAT     H176595   3.938   9.470   7.786
25451WAT     H276596   4.097   9.447   7.756
25452WAT      O76597   7.109   4.237   9.138
25452WAT     H176598   7.197   4.248   9.186
25452WAT     H276599   7.035   4.235   9.205
25453WAT      O76600   5.018   7.574   3.904
25453WAT     H176601   4.940   7.609   3.852
25453WAT     H276602   4.999   7.583   4.002
25454WAT      O76603   6.344   5.054   0.091
25454WAT     H176604   6.411   5.120   0.126
25454WAT     H276605   6.392   4.972   0.060
25455WAT      O76606   2.433   3.867   3.570
25455WAT     H176607   2.479   3.893   3.485
25455WAT     H276608   2.499   3.821   3.630
25456WAT      O76609   6.539   7.247   1.962
25456WAT     H176610   6.453   7.197   1.959
25456WAT     H276611   6.558   7.285   1.872
25457WAT      O76612   3.112   1.506   9.299
25457WAT     H176613   3.202   1.504   9.343
25457WAT     H276614   3.095   1.418   9.254
25458WAT      O76615   7.507   1.443   9.554
25458WAT     H176616   7.431   1.439   9.490
25458WAT     H276617   7.536   1.538   9.567
25459WAT      O76618   6.491   4.815   0.943
25459WAT     H176619   6.508   4.834   0.846
25459WAT     H276620   6.526   4.724   0.966
25460WAT      O76621   5.795   1.687   2.095
25460WAT     H176622   5.733   1.764   2.113
25460WAT     H276623   5.878   1.722   2.052
25461WAT      O76624   8.381   5.555   3.489
25461WAT     H176625   8.431   5.565   3.404
25461WAT     H276626   8.340   5.463   3.494
25462WAT      O76627   6.296   4.653   5.095
25462WAT     H176628   6.362   4.603   5.039
25462WAT     H276629   6.205   4.613   5.082
25463WAT      O76630   3.305   8.858   8.405
25463WAT     H176631   3.212   8.893   8.415
25463WAT     H276632   3.355   8.870   8.491
25464WAT      O76633   8.643   4.664   4.773
25464WAT     H176634   8.705   4.699   4.703
25464WAT     H276635   8.548   4.684   4.746
25465WAT      O76636   5.903   5.905   0.174
25465WAT     H176637   5.862   5.939   0.259
25465WAT     H276638   5.996   5.940   0.166
25466WAT      O76639   4.368   5.969   6.305
25466WAT     H176640   4.289   5.957   6.245
25466WAT     H276641   4.359   5.909   6.385
25467WAT      O76642   0.953   0.230   8.897
25467WAT     H176643   0.899   0.156   8.858
25467WAT     H276644   1.005   0.196   8.975
25468WAT      O76645   8.631   3.622   6.702
25468WAT     H176646   8.599   3.566   6.778
25468WAT     H276647   8.556   3.681   6.671
25469WAT      O76648   5.731   3.574   8.543
25469WAT     H176649   5.733   3.665   8.502
25469WAT     H276650   5.657   3.521   8.501
25470WAT      O76651   7.613   6.065   7.691
25470WAT     H176652   7.691   6.090   7.748
25470WAT     H276653   7.645   6.019   7.609
25471WAT      O76654   0.439   7.298   8.059
25471WAT     H176655   0.479   7.370   8.002
25471WAT     H276656   0.346   7.324   8.086
25472WAT      O76657   6.089   9.448   0.096
25472WAT     H176658   6.075   9.546   0.112
25472WAT     H276659   6.181   9.433   0.061
25473WAT      O76660   3.727   8.940   4.634
25473WAT     H176661   3.811   8.885   4.634
25473WAT     H276662   3.674   8.920   4.552
25474WAT      O76663   8.653   0.382   1.960
25474WAT     H176664   8.589   0.306   1.950
25474WAT     H276665   8.712   0.387   1.880
25475WAT      O76666   4.525   5.020   6.993
25475WAT     H176667   4.616   4.987   7.018
25475WAT     H276668   4.486   5.070   7.070
25476WAT      O76669   1.247   0.217   3.595
25476WAT     H176670   1.153   0.244   3.576
25476WAT     H276671   1.249   0.123   3.629
25477WAT      O76672   3.862   1.968   8.934
25477WAT     H176673   3.789   1.977   9.002
25477WAT     H276674   3.928   1.900   8.966
25478WAT      O76675   0.148   2.543   8.917
25478WAT     H176676   0.137   2.522   8.820
25478WAT     H276677   0.211   2.479   8.959
25479WAT      O76678   2.896   5.991   8.177
25479WAT     H176679   2.968   6.058   8.161
25479WAT     H276680   2.918   5.938   8.259
25480WAT      O76681   2.192   4.434   7.529
25480WAT     H176682   2.096   4.434   7.559
25480WAT     H276683   2.232   4.524   7.547
25481WAT      O76684   8.401   4.221   9.569
25481WAT     H176685   8.348   4.251   9.649
25481WAT     H276686   8.345   4.160   9.513
25482WAT      O76687   2.158   1.263   0.512
25482WAT     H176688   2.212   1.341   0.479
25482WAT     H276689   2.081   1.297   0.565
25483WAT      O76690   2.954   1.133   3.419
25483WAT     H176691   2.974   1.065   3.489
25483WAT     H276692   2.975   1.095   3.329
25484WAT      O76693   6.797   0.895   8.424
25484WAT     H176694   6.750   0.817   8.382
25484WAT     H276695   6.759   0.980   8.388
25485WAT      O76696   3.544   5.107   6.007
25485WAT     H176697   3.529   5.163   6.088
25485WAT     H276698   3.505   5.016   6.023
25486WAT      O76699   5.869   1.341   3.642
25486WAT     H176700   5.956   1.390   3.653
25486WAT     H276701   5.859   1.276   3.718
25487WAT      O76702   5.901   8.365   0.216
25487WAT     H176703   5.870   8.457   0.239
25487WAT     H276704   5.822   8.303   0.213
25488WAT      O76705   4.262   9.057   4.368
25488WAT     H176706   4.257   9.123   4.292
25488WAT     H276707   4.320   9.095   4.440
25489WAT      O76708   3.367   9.382   7.623
25489WAT     H176709   3.338   9.333   7.541
25489WAT     H276710   3.295   9.378   7.692
25490WAT      O76711   0.956   3.251   7.292
25490WAT     H176712   0.960   3.167   7.238
25490WAT     H276713   0.867   3.295   7.279
25491WAT      O76714   2.871   1.978   6.871
25491WAT     H176715   2.930   2.051   6.905
25491WAT     H276716   2.923   1.918   6.810
25492WAT      O76717   3.818   5.032   9.295
25492WAT     H176718   3.761   5.080   9.361
25492WAT     H276719   3.914   5.037   9.325
25493WAT      O76720   2.160   6.107   6.309
25493WAT     H176721   2.130   6.080   6.217
25493WAT     H276722   2.235   6.173   6.301
25494WAT      O76723   4.170   3.371   9.048
25494WAT     H176724   4.230   3.435   8.999
25494WAT     H276725   4.186   3.278   9.014
25495WAT      O76726   8.866   2.163   3.388
25495WAT     H176727   8.912   2.251   3.399
25495WAT     H276728   8.784   2.175   3.332
25496WAT      O76729   8.478   8.458   9.433
25496WAT     H176730   8.487   8.496   9.525
25496WAT     H276731   8.553   8.492   9.376
25497WAT      O76732   5.202   1.962   3.518
25497WAT     H176733   5.189   2.006   3.607
25497WAT     H276734   5.214   2.033   3.448
25498WAT      O76735   0.990   4.127   3.922
25498WAT     H176736   0.892   4.117   3.903
25498WAT     H276737   1.013   4.073   4.003
25499WAT      O76738   9.290   3.351   2.111
25499WAT     H176739   9.337   3.407   2.043
25499WAT     H276740   9.297   3.395   2.201
25500WAT      O76741   8.812   4.591   2.762
25500WAT     H176742   8.854   4.549   2.682
25500WAT     H276743   8.825   4.533   2.842
25501WAT      O76744   1.307   0.363   4.511
25501WAT     H176745   1.338   0.360   4.416
25501WAT     H276746   1.374   0.319   4.570
25502WAT      O76747   4.763   3.402   5.060
25502WAT     H176748   4.793   3.479   5.004
25502WAT     H276749   4.777   3.423   5.157
25503WAT      O76750   8.374   7.742   8.069
25503WAT     H176751   8.310   7.667   8.049
25503WAT     H276752   8.447   7.708   8.128
25504WAT      O76753   7.120   8.894   6.094
25504WAT     H176754   7.203   8.840   6.078
25504WAT     H276755   7.139   8.967   6.159
25505WAT      O76756   6.908   4.176   8.370
25505WAT     H176757   6.875   4.180   8.465
25505WAT     H276758   7.005   4.200   8.368
25506WAT      O76759   4.083   6.695   2.370
25506WAT     H176760   4.019   6.672   2.297
25506WAT     H276761   4.036   6.750   2.439
25507WAT      O76762   8.321   2.315   3.398
25507WAT     H176763   8.223   2.302   3.411
25507WAT     H276764   8.368   2.227   3.405
25508WAT      O76765   1.386   6.334   5.839
25508WAT     H176766   1.475   6.336   5.795
25508WAT     H276767   1.327   6.404   5.800
25509WAT      O76768   8.690   9.018   1.043
25509WAT     H176769   8.591   9.030   1.040
25509WAT     H276770   8.716   8.939   0.987
25510WAT      O76771   7.912   5.143   6.583
25510WAT     H176772   7.934   5.226   6.530
25510WAT     H276773   7.992   5.117   6.638
25511WAT      O76774   0.492   3.451   1.738
25511WAT     H176775   0.507   3.412   1.647
25511WAT     H276776   0.559   3.413   1.802
25512WAT      O76777   5.778   2.256   2.705
25512WAT     H176778   5.878   2.255   2.702
25512WAT     H276779   5.747   2.304   2.787
25513WAT      O76780   4.310   9.489   9.114
25513WAT     H176781   4.375   9.502   9.189
25513WAT     H276782   4.340   9.414   9.055
25514WAT      O76783   9.453   4.278   3.691
25514WAT     H176784   9.430   4.190   3.732
25514WAT     H276785   9.510   4.330   3.754
25515WAT      O76786   2.838   4.885   7.569
25515WAT     H176787   2.784   4.904   7.652
25515WAT     H276788   2.888   4.967   7.542
25516WAT      O76789   4.538   3.175   5.980
25516WAT     H176790   4.496   3.257   6.019
25516WAT     H276791   4.513   3.167   5.884
25517WAT      O76792   0.650   3.265   2.195
25517WAT     H176793   0.551   3.251   2.203
25517WAT     H276794   0.689   3.282   2.286
25518WAT      O76795   5.197   5.460   2.843
25518WAT     H176796   5.165   5.471   2.937
25518WAT     H276797   5.164   5.536   2.787
25519WAT      O76798   7.835   4.118   7.241
25519WAT     H176799   7.924   4.071   7.242
25519WAT     H276800   7.762   4.050   7.237
25520WAT      O76801   2.120   0.812   4.329
25520WAT     H176802   2.214   0.826   4.359
25520WAT     H276803   2.057   0.857   4.393
25521WAT      O76804   4.979   1.363   0.847
25521WAT     H176805   5.005   1.325   0.758
25521WAT     H276806   4.963   1.288   0.911
25522WAT      O76807   5.090   3.974   8.159
25522WAT     H176808   5.105   3.946   8.064
25522WAT     H276809   5.177   4.003   8.199
25523WAT      O76810   4.845   6.817   7.298
25523WAT     H176811   4.840   6.886   7.370
25523WAT     H276812   4.776   6.747   7.314
25524WAT      O76813   0.729   6.085   7.873
25524WAT     H176814   0.663   6.143   7.921
25524WAT     H276815   0.804   6.061   7.935
25525WAT      O76816   8.192   4.821   8.945
25525WAT     H176817   8.252   4.771   9.007
25525WAT     H276818   8.235   4.830   8.856
25526WAT      O76819   7.648   8.523   0.282
25526WAT     H176820   7.723   8.460   0.302
25526WAT     H276821   7.589   8.483   0.211
25527WAT      O76822   6.447   3.390   7.844
25527WAT     H176823   6.494   3.318   7.894
25527WAT     H276824   6.507   3.427   7.773
25528WAT      O76825   2.172   0.987   6.465
25528WAT     H176826   2.187   1.024   6.373
25528WAT     H276827   2.120   1.053   6.519
25529WAT      O76828   3.787   7.430   1.980
25529WAT     H176829   3.877   7.460   2.012
25529WAT     H276830   3.718   7.451   2.048
25530WAT      O76831   2.590   2.492   0.127
25530WAT     H176832   2.597   2.536   0.038
25530WAT     H276833   2.538   2.552   0.189
25531WAT      O76834   0.685   6.461   9.627
25531WAT     H176835   0.608   6.429   9.682
25531WAT     H276836   0.666   6.445   9.530
25532WAT      O76837   2.936   5.071   8.785
25532WAT     H176838   2.980   5.146   8.735
25532WAT     H276839   2.923   4.993   8.724
25533WAT      O76840   1.309   3.116   5.128
25533WAT     H176841   1.250   3.135   5.049
25533WAT     H276842   1.347   3.201   5.162
25534WAT      O76843   5.452   0.868   9.166
25534WAT     H176844   5.457   0.778   9.122
25534WAT     H276845   5.425   0.936   9.099
25535WAT      O76846   6.894   2.715   9.665
25535WAT     H176847   6.901   2.803   9.617
25535WAT     H276848   6.983   2.690   9.702
25536WAT      O76849   3.886   6.103   2.766
25536WAT     H176850   3.850   6.069   2.679
25536WAT     H276851   3.812   6.141   2.820
25537WAT      O76852   7.921   5.281   0.444
25537WAT     H176853   7.999   5.344   0.447
25537WAT     H276854   7.938   5.205   0.507
25538WAT      O76855   5.866   2.276   6.671
25538WAT     H176856   5.954   2.294   6.627
25538WAT     H276857   5.854   2.177   6.683
25539WAT      O76858   7.974   2.466   3.539
25539WAT     H176859   7.974   2.390   3.474
25539WAT     H276860   8.065   2.476   3.578
25540WAT      O76861   4.141   5.562   3.108
25540WAT     H176862   4.207   5.632   3.137
25540WAT     H276863   4.075   5.547   3.182
25541WAT      O76864   8.184   0.023   7.110
25541WAT     H176865   8.259  -0.002   7.172
25541WAT     H276866   8.099   0.029   7.161
25542WAT      O76867   7.659   0.443   4.105
25542WAT     H176868   7.633   0.350   4.130
25542WAT     H276869   7.733   0.474   4.164
25543WAT      O76870   5.811   4.585   6.564
25543WAT     H176871   5.753   4.545   6.493
25543WAT     H276872   5.847   4.673   6.532
25544WAT      O76873   0.380   4.073   3.517
25544WAT     H176874   0.427   3.986   3.502
25544WAT     H276875   0.431   4.147   3.473
25545WAT      O76876   5.676   1.172   6.768
25545WAT     H176877   5.752   1.227   6.802
25545WAT     H276878   5.663   1.093   6.827
25546WAT      O76879   6.851   3.387   6.521
25546WAT     H176880   6.950   3.395   6.514
25546WAT     H276881   6.814   3.355   6.434
25547WAT      O76882   1.644   4.520   4.215
25547WAT     H176883   1.693   4.433   4.210
25547WAT     H276884   1.614   4.547   4.124
25548WAT      O76885   2.930   3.731   0.155
25548WAT     H176886   2.983   3.656   0.193
25548WAT     H276887   2.853   3.695   0.102
25549WAT      O76888   4.671   5.870   0.778
25549WAT     H176889   4.722   5.785   0.788
25549WAT     H276890   4.636   5.898   0.868
25550WAT      O76891   2.399   8.604   5.944
25550WAT     H176892   2.440   8.683   5.899
25550WAT     H276893   2.470   8.548   5.987
25551WAT      O76894   4.654   1.543   3.986
25551WAT     H176895   4.676   1.500   3.898
25551WAT     H276896   4.669   1.476   4.060
25552WAT      O76897   8.666   7.674   5.838
25552WAT     H176898   8.649   7.582   5.874
25552WAT     H276899   8.705   7.667   5.746
25553WAT      O76900   9.081   7.954   3.448
25553WAT     H176901   9.025   7.873   3.465
25553WAT     H276902   9.056   8.026   3.512
25554WAT      O76903   4.012   5.561   8.939
25554WAT     H176904   3.919   5.530   8.956
25554WAT     H276905   4.074   5.516   9.004
25555WAT      O76906   4.067   0.650   9.346
25555WAT     H176907   4.108   0.731   9.388
25555WAT     H276908   4.125   0.618   9.272
25556WAT      O76909   6.161   7.362   1.024
25556WAT     H176910   6.153   7.310   1.108
25556WAT     H276911   6.091   7.433   1.021
25557WAT      O76912   5.380   2.993   6.605
25557WAT     H176913   5.370   2.905   6.651
25557WAT     H276914   5.298   3.049   6.622
25558WAT      O76915   7.978   2.912   0.174
25558WAT     H176916   7.979   2.964   0.089
25558WAT     H276917   7.958   2.974   0.251
25559WAT      O76918   8.921   6.438   3.823
25559WAT     H176919   8.864   6.357   3.807
25559WAT     H276920   9.017   6.413   3.812
25560WAT      O76921   9.483   5.666   7.510
25560WAT     H176922   9.575   5.631   7.530
25560WAT     H276923   9.489   5.738   7.441
25561WAT      O76924   0.816   8.778   1.344
25561WAT     H176925   0.786   8.873   1.341
25561WAT     H276926   0.752   8.721   1.292
25562WAT      O76927   8.684   8.525   8.721
25562WAT     H176928   8.651   8.498   8.812
25562WAT     H276929   8.612   8.576   8.674
25563WAT      O76930   1.690   8.288   5.534
25563WAT     H176931   1.768   8.226   5.542
25563WAT     H276932   1.724   8.381   5.523
25564WAT      O76933   4.769   1.423   1.991
25564WAT     H176934   4.691   1.478   2.020
25564WAT     H276935   4.743   1.326   1.991
25565WAT      O76936   7.645   2.268   3.750
25565WAT     H176937   7.685   2.181   3.722
25565WAT     H276938   7.545   2.262   3.743
25566WAT      O76939   8.913   8.791   9.113
25566WAT     H176940   8.852   8.713   9.101
25566WAT     H276941   9.003   8.769   9.076
25567WAT      O76942   9.308   3.338   0.522
25567WAT     H176943   9.384   3.402   0.506
25567WAT     H276944   9.224   3.390   0.540
25568WAT      O76945   7.414   0.050   3.767
25568WAT     H176946   7.467   0.124   3.808
25568WAT     H276947   7.384  -0.013   3.839
25569WAT      O76948   2.704   6.233   2.208
25569WAT     H176949   2.797   6.266   2.225
25569WAT     H276950   2.673   6.180   2.288
25570WAT      O76951   3.871   1.300   6.342
25570WAT     H176952   3.889   1.384   6.291
25570WAT     H276953   3.876   1.319   6.440
25571WAT      O76954   3.301   6.148   2.737
25571WAT     H176955   3.264   6.059   2.763
25571WAT     H276956   3.396   6.137   2.706
25572WAT      O76957   2.393   6.637   4.573
25572WAT     H176958   2.341   6.574   4.515
25572WAT     H276959   2.430   6.588   4.652
25573WAT      O76960   6.747   4.984   1.635
25573WAT     H176961   6.773   4.889   1.621
25573WAT     H276962   6.664   4.988   1.691
25574WAT      O76963   4.363   2.259   0.860
25574WAT     H176964   4.376   2.357   0.865
25574WAT     H276965   4.433   2.218   0.803
25575WAT      O76966   4.587   3.502   8.578
25575WAT     H176967   4.677   3.532   8.548
25575WAT     H276968   4.591   3.407   8.609
25576WAT      O76969   2.751   7.945   2.326
25576WAT     H176970   2.782   7.870   2.268
25576WAT     H276971   2.657   7.971   2.300
25577WAT      O76972   6.040   8.906   0.953
25577WAT     H176973   5.953   8.861   0.932
25577WAT     H276974   6.112   8.870   0.893
25578WAT      O76975   3.169   0.118   5.780
25578WAT     H176976   3.207   0.031   5.748
25578WAT     H276977   3.094   0.100   5.844
25579WAT      O76978   8.775   5.101   7.783
25579WAT     H176979   8.786   5.177   7.719
25579WAT     H276980   8.728   5.133   7.866
25580WAT      O76981   8.353   7.900   4.381
25580WAT     H176982   8.279   7.957   4.347
25580WAT     H276983   8.315   7.822   4.430
25581WAT      O76984   2.025   0.651   9.715
25581WAT     H176985   2.053   0.564   9.756
25581WAT     H276986   2.107   0.704   9.690
25582WAT      O76987   8.854   4.236   3.277
25582WAT     H176988   8.945   4.213   3.313
25582WAT     H276989   8.860   4.256   3.179
25583WAT      O76990   1.142   5.507   0.501
25583WAT     H176991   1.189   5.595   0.506
25583WAT     H276992   1.057   5.511   0.553
25584WAT      O76993   5.713   1.699   4.355
25584WAT     H176994   5.655   1.766   4.402
25584WAT     H276995   5.673   1.608   4.368
25585WAT      O76996   2.517   0.761   3.836
25585WAT     H176997   2.518   0.760   3.936
25585WAT     H276998   2.445   0.821   3.803
25586WAT      O76999   7.490   3.413   0.695
25586WAT     H177000   7.543   3.426   0.612
25586WAT     H277001   7.453   3.320   0.697
25587WAT      O77002   4.453   3.440   1.411
25587WAT     H177003   4.530   3.382   1.387
25587WAT     H277004   4.480   3.536   1.404
25588WAT      O77005   1.906   0.448   9.419
25588WAT     H177006   1.880   0.490   9.505
25588WAT     H277007   1.916   0.519   9.349
25589WAT      O77008   3.114   7.935   1.660
25589WAT     H177009   3.099   7.944   1.759
25589WAT     H277010   3.179   7.861   1.643
25590WAT      O77011   4.191   2.854   0.976
25590WAT     H177012   4.177   2.878   1.073
25590WAT     H277013   4.133   2.776   0.953
25591WAT      O77014   3.376   1.119   4.956
25591WAT     H177015   3.299   1.056   4.962
25591WAT     H277016   3.450   1.087   5.015
25592WAT      O77017   3.002   2.281   6.283
25592WAT     H177018   3.055   2.307   6.364
25592WAT     H277019   3.043   2.324   6.202
25593WAT      O77020   3.998   8.836   4.326
25593WAT     H177021   4.039   8.906   4.385
25593WAT     H277022   3.967   8.878   4.241
25594WAT      O77023   5.759   4.360   7.024
25594WAT     H177024   5.778   4.359   6.926
25594WAT     H277025   5.738   4.453   7.053
25595WAT      O77026   1.782   2.722   3.648
25595WAT     H177027   1.833   2.636   3.655
25595WAT     H277028   1.781   2.753   3.554
25596WAT      O77029   0.268   8.310   4.712
25596WAT     H177030   0.240   8.333   4.619
25596WAT     H277031   0.232   8.377   4.776
25597WAT      O77032   4.073   2.711   6.906
25597WAT     H177033   4.060   2.759   6.820
25597WAT     H277034   4.131   2.631   6.891
25598WAT      O77035   4.757   0.820   1.463
25598WAT     H177036   4.815   0.781   1.534
25598WAT     H277037   4.809   0.888   1.411
25599WAT      O77038   4.926   5.492   7.136
25599WAT     H177039   4.838   5.445   7.128
25599WAT     H277040   4.914   5.588   7.114
25600WAT      O77041   7.620   6.445   9.399
25600WAT     H177042   7.646   6.349   9.403
25600WAT     H277043   7.682   6.499   9.456
25601WAT      O77044   1.308   7.785   0.474
25601WAT     H177045   1.225   7.836   0.494
25601WAT     H277046   1.292   7.724   0.396
25602WAT      O77047   6.779   3.842   2.685
25602WAT     H177048   6.837   3.861   2.606
25602WAT     H277049   6.765   3.743   2.693
25603WAT      O77050   8.831   4.878   7.459
25603WAT     H177051   8.909   4.834   7.414
25603WAT     H277052   8.851   4.890   7.556
25604WAT      O77053   7.415   9.146   4.398
25604WAT     H177054   7.439   9.140   4.495
25604WAT     H277055   7.471   9.216   4.353
25605WAT      O77056   7.200   7.897   5.202
25605WAT     H177057   7.114   7.935   5.167
25605WAT     H277058   7.225   7.817   5.147
25606WAT      O77059   3.654   8.680   8.515
25606WAT     H177060   3.674   8.583   8.502
25606WAT     H277061   3.652   8.726   8.426
25607WAT      O77062   2.707   9.024   8.571
25607WAT     H177063   2.793   8.996   8.613
25607WAT     H277064   2.715   9.119   8.539
25608WAT      O77065   9.052   8.913   2.219
25608WAT     H177066   9.137   8.890   2.266
25608WAT     H277067   9.024   8.836   2.162
25609WAT      O77068   6.310   2.275   5.211
25609WAT     H177069   6.310   2.372   5.186
25609WAT     H277070   6.217   2.246   5.233
25610WAT      O77071   0.010   2.882   0.739
25610WAT     H177072   0.065   2.802   0.765
25610WAT     H277073  -0.086   2.855   0.733
25611WAT      O77074   5.795   6.003   2.042
25611WAT     H177075   5.887   6.039   2.056
25611WAT     H277076   5.734   6.077   2.017
25612WAT      O77077   7.489   9.216   3.981
25612WAT     H177078   7.564   9.238   3.919
25612WAT     H277079   7.451   9.127   3.957
25613WAT      O77080   1.272   2.585   9.722
25613WAT     H177081   1.307   2.504   9.674
25613WAT     H277082   1.250   2.656   9.656
25614WAT      O77083   8.216   6.852   2.205
25614WAT     H177084   8.267   6.809   2.279
25614WAT     H277085   8.143   6.908   2.243
25615WAT      O77086   6.039   4.931   3.243
25615WAT     H177087   6.131   4.919   3.206
25615WAT     H277088   6.031   5.022   3.283
25616WAT      O77089   6.935   0.606   5.777
25616WAT     H177090   6.836   0.593   5.786
25616WAT     H277091   6.981   0.517   5.776
25617WAT      O77092   2.540   4.951   5.474
25617WAT     H177093   2.543   4.991   5.382
25617WAT     H277094   2.596   5.007   5.535
25618WAT      O77095   9.750   4.482   6.644
25618WAT     H177096   9.742   4.528   6.556
25618WAT     H277097   9.696   4.398   6.644
25619WAT      O77098   0.738   7.662   9.397
25619WAT     H177099   0.693   7.579   9.429
25619WAT     H277100   0.761   7.651   9.300
25620WAT      O77101   8.887   0.751   7.381
25620WAT     H177102   8.834   0.785   7.459
25620WAT     H277103   8.980   0.786   7.387
25621WAT      O77104   4.690   3.912   0.399
25621WAT     H177105   4.706   3.939   0.494
25621WAT     H277106   4.769   3.936   0.344
25622WAT      O77107   7.807   6.173   9.362
25622WAT     H177108   7.796   6.074   9.361
25622WAT     H277109   7.904   6.196   9.370
25623WAT      O77110   7.077   2.082   5.884
25623WAT     H177111   7.005   2.097   5.816
25623WAT     H277112   7.055   2.132   5.967
25624WAT      O77113   5.855   4.205   9.128
25624WAT     H177114   5.892   4.175   9.040
25624WAT     H277115   5.930   4.230   9.189
25625WAT      O77116   3.366   0.027   5.204
25625WAT     H177117   3.374   0.125   5.184
25625WAT     H277118   3.297   0.014   5.275
25626WAT      O77119   0.831   2.338   8.404
25626WAT     H177120   0.848   2.336   8.305
25626WAT     H277121   0.908   2.295   8.452
25627WAT      O77122   7.342   9.764   4.597
25627WAT     H177123   7.439   9.782   4.583
25627WAT     H277124   7.317   9.788   4.691
25628WAT      O77125   6.741   1.694   5.759
25628WAT     H177126   6.670   1.631   5.790
25628WAT     H277127   6.827   1.645   5.746
25629WAT      O77128   7.493   5.677   6.817
25629WAT     H177129   7.548   5.761   6.815
25629WAT     H277130   7.437   5.672   6.734
25630WAT      O77131   3.590   7.037   4.238
25630WAT     H177132   3.521   7.096   4.196
25630WAT     H277133   3.626   7.081   4.320
25631WAT      O77134   0.226   2.975   3.306
25631WAT     H177135   0.269   2.885   3.300
25631WAT     H277136   0.250   3.017   3.394
25632WAT      O77137   4.703   4.476   9.445
25632WAT     H177138   4.726   4.524   9.530
25632WAT     H277139   4.616   4.427   9.457
25633WAT      O77140   4.364   3.507   7.174
25633WAT     H177141   4.413   3.587   7.207
25633WAT     H277142   4.408   3.424   7.207
25634WAT      O77143   6.187   8.177   3.588
25634WAT     H177144   6.188   8.247   3.660
25634WAT     H277145   6.124   8.205   3.516
25635WAT      O77146   7.093   6.057   5.898
25635WAT     H177147   7.049   6.098   5.978
25635WAT     H277148   7.087   6.119   5.821
25636WAT      O77149   6.198   6.033   5.067
25636WAT     H177150   6.271   5.985   5.116
25636WAT     H277151   6.169   6.112   5.120
25637WAT      O77152   9.776   5.910   2.270
25637WAT     H177153   9.744   5.976   2.201
25637WAT     H277154   9.705   5.842   2.286
25638WAT      O77155   1.605   2.532   9.599
25638WAT     H177156   1.521   2.482   9.579
25638WAT     H277157   1.635   2.581   9.518
25639WAT      O77158   3.693   3.156   8.043
25639WAT     H177159   3.709   3.135   8.139
25639WAT     H277160   3.654   3.247   8.034
25640WAT      O77161   0.623   7.904   1.537
25640WAT     H177162   0.585   7.816   1.510
25640WAT     H277163   0.688   7.891   1.612
25641WAT      O77164   8.385   6.789   8.226
25641WAT     H177165   8.463   6.781   8.165
25641WAT     H277166   8.362   6.886   8.238
25642WAT      O77167   8.163   7.443   2.345
25642WAT     H177168   8.197   7.463   2.437
25642WAT     H277169   8.162   7.344   2.331
25643WAT      O77170   2.547   6.119   2.417
25643WAT     H177171   2.550   6.161   2.508
25643WAT     H277172   2.467   6.154   2.368
25644WAT      O77173   9.064   4.791   6.331
25644WAT     H177174   9.017   4.705   6.355
25644WAT     H277175   9.116   4.778   6.246
25645WAT      O77176   2.286   4.138   6.267
25645WAT     H177177   2.271   4.237   6.259
25645WAT     H277178   2.382   4.118   6.252
25646WAT      O77179   5.451   0.337   6.885
25646WAT     H177180   5.449   0.325   6.985
25646WAT     H277181   5.436   0.249   6.841
25647WAT      O77182   1.751   1.814   1.042
25647WAT     H177183   1.823   1.882   1.056
25647WAT     H277184   1.754   1.779   0.948
25648WAT      O77185   8.630   4.295   0.004
25648WAT     H177186   8.555   4.356   0.028
25648WAT     H277187   8.623   4.210   0.057
25649WAT      O77188   0.336   9.816   2.423
25649WAT     H177189   0.325   9.839   2.326
25649WAT     H277190   0.431   9.827   2.449
25650WAT      O77191   7.870   5.772   5.177
25650WAT     H177192   7.900   5.725   5.260
25650WAT     H277193   7.846   5.704   5.108
25651WAT      O77194   8.603   2.926   2.523
25651WAT     H177195   8.556   2.869   2.456
25651WAT     H277196   8.692   2.885   2.545
25652WAT      O77197   2.734   6.149   7.211
25652WAT     H177198   2.685   6.236   7.212
25652WAT     H277199   2.668   6.073   7.210
25653WAT      O77200   9.149   8.273   2.456
25653WAT     H177201   9.126   8.338   2.383
25653WAT     H277202   9.070   8.213   2.473
25654WAT      O77203   8.977   2.442   7.580
25654WAT     H177204   9.030   2.358   7.566
25654WAT     H277205   9.033   2.521   7.558
25655WAT      O77206   0.921   9.764   9.683
25655WAT     H177207   0.854   9.790   9.753
25655WAT     H277208   0.919   9.664   9.671
25656WAT      O77209   9.235   7.464   7.713
25656WAT     H177210   9.320   7.413   7.710
25656WAT     H277211   9.160   7.406   7.683
25657WAT      O77212   9.070   5.417   1.054
25657WAT     H177213   9.030   5.502   1.088
25657WAT     H277214   9.118   5.436   0.968
25658WAT      O77215   8.559   6.306   4.478
25658WAT     H177216   8.585   6.234   4.413
25658WAT     H277217   8.597   6.393   4.449
25659WAT      O77218   5.408   7.284   6.652
25659WAT     H177219   5.465   7.230   6.714
25659WAT     H277220   5.446   7.277   6.559
25660WAT      O77221   2.325   9.148   6.012
25660WAT     H177222   2.299   9.077   6.077
25660WAT     H277223   2.259   9.149   5.937
25661WAT      O77224   5.292   6.076   4.618
25661WAT     H177225   5.261   6.171   4.613
25661WAT     H277226   5.296   6.048   4.713
25662WAT      O77227   8.130   6.480   7.982
25662WAT     H177228   8.042   6.456   7.942
25662WAT     H277229   8.152   6.415   8.056
25663WAT      O77230   2.205   2.897   9.761
25663WAT     H177231   2.199   2.941   9.851
25663WAT     H277232   2.179   2.800   9.769
25664WAT      O77233   4.306   0.313   4.343
25664WAT     H177234   4.346   0.244   4.404
25664WAT     H277235   4.373   0.338   4.273
25665WAT      O77236   1.414   6.140   7.426
25665WAT     H177237   1.432   6.225   7.375
25665WAT     H277238   1.418   6.063   7.363
25666WAT      O77239   2.768   8.969   5.540
25666WAT     H177240   2.861   8.979   5.576
25666WAT     H277241   2.705   9.025   5.594
25667WAT      O77242   5.966   3.879   1.149
25667WAT     H177243   6.028   3.805   1.176
25667WAT     H277244   5.934   3.926   1.231
25668WAT      O77245   9.610   9.550   7.888
25668WAT     H177246   9.680   9.557   7.817
25668WAT     H277247   9.634   9.609   7.965
25669WAT      O77248   7.396   3.994   9.229
25669WAT     H177249   7.390   4.093   9.218
25669WAT     H277250   7.490   3.964   9.215
25670WAT      O77251   9.334   6.690   3.369
25670WAT     H177252   9.390   6.607   3.368
25670WAT     H277253   9.253   6.675   3.425
25671WAT      O77254   4.096   0.281   6.022
25671WAT     H177255   4.115   0.229   5.938
25671WAT     H277256   4.129   0.229   6.101
25672WAT      O77257   2.141   1.031   7.620
25672WAT     H177258   2.192   0.957   7.663
25672WAT     H277259   2.137   1.110   7.681
25673WAT      O77260   2.250   8.168   8.011
25673WAT     H177261   2.160   8.125   8.015
25673WAT     H277262   2.293   8.163   8.101
25674WAT      O77263   6.346   2.032   0.454
25674WAT     H177264   6.351   1.932   0.456
25674WAT     H277265   6.420   2.070   0.510
25675WAT      O77266   7.636   9.783   5.283
25675WAT     H177267   7.717   9.841   5.288
25675WAT     H277268   7.663   9.689   5.265
25676WAT      O77269   2.668   9.216   7.148
25676WAT     H177270   2.589   9.199   7.089
25676WAT     H277271   2.653   9.300   7.200
25677WAT      O77272   4.566   7.735   9.124
25677WAT     H177273   4.471   7.748   9.150
25677WAT     H277274   4.591   7.802   9.054
25678WAT      O77275   3.051   7.255   2.323
25678WAT     H177276   2.982   7.276   2.253
25678WAT     H277277   3.120   7.194   2.285
25679WAT      O77278   2.732   0.864   2.434
25679WAT     H177279   2.780   0.794   2.380
25679WAT     H277280   2.655   0.899   2.381
25680WAT      O77281   9.035   6.587   0.849
25680WAT     H177282   8.971   6.537   0.791
25680WAT     H277283   9.127   6.552   0.834
25681WAT      O77284   9.287   6.166   4.609
25681WAT     H177285   9.256   6.162   4.514
25681WAT     H277286   9.371   6.220   4.614
25682WAT      O77287   3.790   8.335   2.654
25682WAT     H177288   3.761   8.400   2.585
25682WAT     H277289   3.777   8.374   2.745
25683WAT      O77290   5.448   5.677   0.454
25683WAT     H177291   5.376   5.622   0.412
25683WAT     H277292   5.432   5.774   0.433
25684WAT      O77293   6.186   3.287   0.695
25684WAT     H177294   6.249   3.348   0.646
25684WAT     H277295   6.093   3.304   0.664
25685WAT      O77296   2.796   1.707   2.754
25685WAT     H177297   2.763   1.662   2.837
25685WAT     H277298   2.821   1.802   2.774
25686WAT      O77299   2.146   3.167   8.778
25686WAT     H177300   2.234   3.206   8.804
25686WAT     H277301   2.151   3.067   8.785
25687WAT      O77302   8.364   2.046   7.193
25687WAT     H177303   8.463   2.053   7.209
25687WAT     H277304   8.318   2.121   7.240
25688WAT      O77305   1.969   2.199   3.793
25688WAT     H177306   1.943   2.212   3.697
25688WAT     H277307   1.899   2.239   3.852
25689WAT      O77308   2.252   8.262   2.800
25689WAT     H177309   2.208   8.281   2.712
25689WAT     H277310   2.227   8.333   2.866
25690WAT      O77311   4.083   7.910   7.948
25690WAT     H177312   4.150   7.859   8.002
25690WAT     H277313   4.130   7.983   7.898
25691WAT      O77314   1.077   7.120   5.900
25691WAT     H177315   1.059   7.189   5.970
25691WAT     H277316   1.149   7.058   5.931
25692WAT      O77317   3.555   5.002   4.362
25692WAT     H177318   3.568   5.095   4.397
25692WAT     H277319   3.617   4.987   4.285
25693WAT      O77320   7.495   3.239   6.379
25693WAT     H177321   7.589   3.239   6.413
25693WAT     H277322   7.433   3.270   6.452
25694WAT      O77323   8.393   4.435   6.092
25694WAT     H177324   8.445   4.505   6.043
25694WAT     H277325   8.315   4.407   6.037
25695WAT      O77326   5.778   1.476   4.966
25695WAT     H177327   5.848   1.547   4.959
25695WAT     H277328   5.706   1.506   5.029
25696WAT      O77329   5.859   2.849   8.687
25696WAT     H177330   5.797   2.909   8.737
25696WAT     H277331   5.906   2.902   8.616
25697WAT      O77332   1.243   7.824   6.922
25697WAT     H177333   1.257   7.774   7.008
25697WAT     H277334   1.258   7.763   6.845
25698WAT      O77335   8.347   7.032   5.047
25698WAT     H177336   8.443   7.020   5.071
25698WAT     H277337   8.290   6.988   5.116
25699WAT      O77338   4.868   6.960   3.343
25699WAT     H177339   4.968   6.964   3.344
25699WAT     H277340   4.831   7.050   3.318
25700WAT      O77341   9.541   3.161   5.751
25700WAT     H177342   9.637   3.148   5.728
25700WAT     H277343   9.509   3.085   5.807
25701WAT      O77344   8.588   6.701   8.018
25701WAT     H177345   8.630   6.610   8.026
25701WAT     H277346   8.657   6.771   8.037
25702WAT      O77347   8.193   7.027   3.393
25702WAT     H177348   8.271   7.089   3.385
25702WAT     H277349   8.204   6.970   3.474
25703WAT      O77350   3.489   6.373   5.737
25703WAT     H177351   3.390   6.379   5.724
25703WAT     H277352   3.518   6.278   5.724
25704WAT      O77353   1.162   1.201   7.049
25704WAT     H177354   1.182   1.216   6.952
25704WAT     H277355   1.203   1.275   7.103
25705WAT      O77356   8.098   2.804   1.092
25705WAT     H177357   8.149   2.789   1.007
25705WAT     H277358   8.009   2.845   1.071
25706WAT      O77359   2.622   9.317   2.944
25706WAT     H177360   2.642   9.245   2.877
25706WAT     H277361   2.679   9.397   2.924
25707WAT      O77362   8.016   9.593   4.761
25707WAT     H177363   8.089   9.620   4.824
25707WAT     H277364   7.936   9.651   4.776
25708WAT      O77365   5.129   8.168   8.710
25708WAT     H177366   5.197   8.204   8.646
25708WAT     H277367   5.176   8.116   8.782
25709WAT      O77368   1.741   8.349   6.935
25709WAT     H177369   1.775   8.262   6.898
25709WAT     H277370   1.685   8.394   6.865
25710WAT      O77371   9.669   9.672   9.559
25710WAT     H177372   9.628   9.586   9.589
25710WAT     H277373   9.673   9.673   9.459
25711WAT      O77374   4.249   8.329   3.120
25711WAT     H177375   4.267   8.278   3.036
25711WAT     H277376   4.316   8.302   3.189
25712WAT      O77377   2.338   3.326   8.525
25712WAT     H177378   2.333   3.375   8.612
25712WAT     H277379   2.260   3.350   8.468
25713WAT      O77380   8.624   0.397   1.225
25713WAT     H177381   8.704   0.424   1.279
25713WAT     H277382   8.552   0.364   1.286
25714WAT      O77383   3.345   3.423   1.812
25714WAT     H177384   3.352   3.326   1.786
25714WAT     H277385   3.322   3.429   1.909
25715WAT      O77386   5.683   2.433   3.234
25715WAT     H177387   5.754   2.378   3.191
25715WAT     H277388   5.694   2.430   3.333
25716WAT      O77389   6.639   6.308   8.418
25716WAT     H177390   6.540   6.327   8.417
25716WAT     H277391   6.665   6.275   8.509
25717WAT      O77392   7.175   6.318   0.316
25717WAT     H177393   7.205   6.413   0.313
25717WAT     H277394   7.075   6.314   0.308
25718WAT      O77395   5.892   2.996   1.658
25718WAT     H177396   5.900   2.912   1.710
25718WAT     H277397   5.855   2.976   1.567
25719WAT      O77398   1.342   9.595   3.796
25719WAT     H177399   1.416   9.571   3.859
25719WAT     H277400   1.333   9.524   3.727
25720WAT      O77401   8.396   2.751   4.608
25720WAT     H177402   8.397   2.658   4.643
25720WAT     H277403   8.301   2.783   4.600
25721WAT      O77404   6.012   0.270   5.153
25721WAT     H177405   6.051   0.357   5.184
25721WAT     H277406   5.936   0.289   5.090
25722WAT      O77407   3.903   8.270   8.706
25722WAT     H177408   3.966   8.196   8.681
25722WAT     H277409   3.809   8.239   8.691
25723WAT      O77410   9.586   5.331   7.644
25723WAT     H177411   9.598   5.237   7.676
25723WAT     H277412   9.490   5.347   7.622
25724WAT      O77413   8.258   7.885   6.141
25724WAT     H177414   8.352   7.855   6.122
25724WAT     H277415   8.216   7.823   6.208
25725WAT      O77416   7.870   6.612   5.159
25725WAT     H177417   7.877   6.547   5.084
25725WAT     H277418   7.897   6.568   5.245
25726WAT      O77419   1.985   7.493   0.566
25726WAT     H177420   1.907   7.431   0.565
25726WAT     H277421   1.979   7.555   0.487
25727WAT      O77422   0.908   4.119   0.272
25727WAT     H177423   0.885   4.216   0.280
25727WAT     H277424   0.829   4.064   0.300
25728WAT      O77425   6.625   8.190   8.475
25728WAT     H177426   6.665   8.267   8.425
25728WAT     H277427   6.607   8.115   8.412
25729WAT      O77428   0.294   0.612   1.270
25729WAT     H177429   0.219   0.587   1.332
25729WAT     H277430   0.276   0.702   1.231
25730WAT      O77431   3.287   4.890   0.483
25730WAT     H177432   3.245   4.978   0.506
25730WAT     H277433   3.314   4.890   0.387
25731WAT      O77434   7.841   9.356   6.696
25731WAT     H177435   7.803   9.448   6.686
25731WAT     H277436   7.771   9.295   6.734
25732WAT      O77437   3.794   5.080   6.125
25732WAT     H177438   3.721   5.073   6.057
25732WAT     H277439   3.755   5.094   6.216
25733WAT      O77440   6.244   3.776   5.118
25733WAT     H177441   6.208   3.764   5.210
25733WAT     H277442   6.173   3.814   5.059
25734WAT      O77443   5.923   2.824   4.396
25734WAT     H177444   5.959   2.741   4.439
25734WAT     H277445   5.924   2.815   4.297
25735WAT      O77446   0.493   5.460   6.346
25735WAT     H177447   0.413   5.418   6.305
25735WAT     H277448   0.466   5.541   6.398
25736WAT      O77449   9.560   4.842   1.267
25736WAT     H177450   9.583   4.911   1.336
25736WAT     H277451   9.607   4.757   1.288
25737WAT      O77452   3.445   1.272   2.402
25737WAT     H177453   3.354   1.294   2.366
25737WAT     H277454   3.463   1.174   2.389
25738WAT      O77455   5.076   0.241   6.683
25738WAT     H177456   5.098   0.276   6.592
25738WAT     H277457   5.003   0.297   6.723
25739WAT      O77458   0.082   5.083   5.854
25739WAT     H177459   0.175   5.093   5.890
25739WAT     H277460   0.047   5.173   5.828
25740WAT      O77461   8.717   5.265   0.367
25740WAT     H177462   8.633   5.233   0.322
25740WAT     H277463   8.796   5.234   0.315
25741WAT      O77464   8.539   6.799   5.199
25741WAT     H177465   8.615   6.740   5.226
25741WAT     H277466   8.575   6.881   5.154
25742WAT      O77467   3.219   0.358   5.077
25742WAT     H177468   3.302   0.307   5.055
25742WAT     H277469   3.173   0.386   4.993
25743WAT      O77470   3.586   7.694   2.395
25743WAT     H177471   3.601   7.742   2.309
25743WAT     H277472   3.583   7.761   2.470
25744WAT      O77473   4.673   4.655   6.914
25744WAT     H177474   4.579   4.686   6.898
25744WAT     H277475   4.733   4.689   6.842
25745WAT      O77476   6.206   1.312   9.241
25745WAT     H177477   6.286   1.320   9.182
25745WAT     H277478   6.232   1.269   9.327
25746WAT      O77479   9.741   9.180   7.057
25746WAT     H177480   9.823   9.166   7.112
25746WAT     H277481   9.765   9.224   6.971
25747WAT      O77482   4.134   8.716   4.020
25747WAT     H177483   4.224   8.692   3.983
25747WAT     H277484   4.083   8.632   4.040
25748WAT      O77485   8.290   6.876   5.471
25748WAT     H177486   8.348   6.837   5.543
25748WAT     H277487   8.218   6.811   5.447
25749WAT      O77488   6.049   2.676   1.486
25749WAT     H177489   6.106   2.758   1.481
25749WAT     H277490   5.983   2.686   1.560
25750WAT      O77491   7.499   1.558   3.979
25750WAT     H177492   7.506   1.518   4.071
25750WAT     H277493   7.479   1.656   3.987
25751WAT      O77494   6.167   8.400   2.229
25751WAT     H177495   6.115   8.470   2.279
25751WAT     H277496   6.219   8.444   2.156
25752WAT      O77497   9.763   0.953   3.159
25752WAT     H177498   9.736   0.885   3.092
25752WAT     H277499   9.843   1.003   3.126
25753WAT      O77500   5.701   5.632   6.252
25753WAT     H177501   5.772   5.687   6.296
25753WAT     H277502   5.643   5.691   6.197
25754WAT      O77503   9.336   3.316   4.237
25754WAT     H177504   9.428   3.276   4.236
25754WAT     H277505   9.318   3.355   4.327
25755WAT      O77506   4.061   5.044   7.402
25755WAT     H177507   3.977   5.053   7.456
25755WAT     H277508   4.040   5.060   7.306
25756WAT      O77509   5.798   4.512   3.255
25756WAT     H177510   5.868   4.582   3.244
25756WAT     H277511   5.800   4.450   3.176
25757WAT      O77512   2.875   3.272   7.427
25757WAT     H177513   2.822   3.351   7.459
25757WAT     H277514   2.919   3.228   7.504
25758WAT      O77515   7.191   3.649   5.895
25758WAT     H177516   7.271   3.588   5.895
25758WAT     H277517   7.218   3.739   5.862
25759WAT      O77518   1.493   7.612   8.020
25759WAT     H177519   1.564   7.676   7.988
25759WAT     H277520   1.405   7.660   8.025
25760WAT      O77521   1.483   6.348   5.409
25760WAT     H177522   1.510   6.425   5.351
25760WAT     H277523   1.516   6.263   5.369
25761WAT      O77524   5.005   3.295   1.802
25761WAT     H177525   4.947   3.339   1.870
25761WAT     H277526   5.044   3.364   1.741
25762WAT      O77527   2.965   6.954   8.821
25762WAT     H177528   2.866   6.936   8.820
25762WAT     H277529   2.994   6.984   8.730
25763WAT      O77530   4.841   2.503   0.565
25763WAT     H177531   4.830   2.598   0.595
25763WAT     H277532   4.757   2.452   0.583
25764WAT      O77533   9.091   8.656   6.689
25764WAT     H177534   9.073   8.727   6.621
25764WAT     H277535   9.149   8.693   6.762
25765WAT      O77536   9.795   8.448   0.595
25765WAT     H177537   9.818   8.373   0.657
25765WAT     H277538   9.788   8.412   0.501
25766WAT      O77539   3.533   1.020   2.842
25766WAT     H177540   3.615   1.054   2.796
25766WAT     H277541   3.457   1.016   2.777
25767WAT      O77542   9.581   3.929   5.127
25767WAT     H177543   9.557   3.904   5.033
25767WAT     H277544   9.500   3.966   5.173
25768WAT      O77545   3.819   6.722   4.453
25768WAT     H177546   3.877   6.798   4.421
25768WAT     H277547   3.759   6.694   4.379
25769WAT      O77548   0.489   6.370   4.128
25769WAT     H177549   0.551   6.299   4.096
25769WAT     H277550   0.531   6.419   4.205
25770WAT      O77551   8.522   2.818   3.111
25770WAT     H177552   8.525   2.918   3.105
25770WAT     H277553   8.436   2.785   3.073
25771WAT      O77554   6.799   0.883   3.698
25771WAT     H177555   6.887   0.845   3.725
25771WAT     H277556   6.765   0.945   3.769
25772WAT      O77557   6.894   8.086   0.087
25772WAT     H177558   6.954   8.166   0.096
25772WAT     H277559   6.944   8.005   0.118
25773WAT      O77560   2.505   1.801   5.723
25773WAT     H177561   2.441   1.725   5.725
25773WAT     H277562   2.514   1.839   5.815
25774WAT      O77563   9.513   3.866   4.363
25774WAT     H177564   9.488   3.770   4.375
25774WAT     H277565   9.457   3.905   4.290
25775WAT      O77566   6.475   3.707   0.953
25775WAT     H177567   6.534   3.785   0.934
25775WAT     H277568   6.451   3.705   1.050
25776WAT      O77569   3.935   6.452   6.886
25776WAT     H177570   3.963   6.362   6.851
25776WAT     H277571   3.898   6.442   6.978
25777WAT      O77572   7.012   8.867   1.733
25777WAT     H177573   6.951   8.849   1.656
25777WAT     H277574   7.081   8.934   1.707
25778WAT      O77575   0.241   2.212   7.959
25778WAT     H177576   0.315   2.276   7.981
25778WAT     H277577   0.224   2.153   8.038
25779WAT      O77578   3.229   3.711   0.298
25779WAT     H177579   3.238   3.709   0.398
25779WAT     H277580   3.161   3.643   0.270
25780WAT      O77581   9.645   8.059   4.832
25780WAT     H177582   9.715   7.992   4.809
25780WAT     H277583   9.569   8.051   4.768
25781WAT      O77584   6.356   5.888   7.195
25781WAT     H177585   6.265   5.846   7.193
25781WAT     H277586   6.425   5.816   7.199
25782WAT      O77587   3.640   3.282   4.151
25782WAT     H177588   3.575   3.206   4.151
25782WAT     H277589   3.682   3.291   4.061
25783WAT      O77590   0.456   4.004   7.267
25783WAT     H177591   0.485   3.915   7.231
25783WAT     H277592   0.428   3.994   7.362
25784WAT      O77593   7.397   3.095   0.105
25784WAT     H177594   7.362   3.168   0.164
25784WAT     H277595   7.397   3.008   0.156
25785WAT      O77596   2.045   7.498   8.639
25785WAT     H177597   2.101   7.543   8.570
25785WAT     H277598   2.084   7.409   8.661
25786WAT      O77599   7.733   2.583   9.527
25786WAT     H177600   7.699   2.491   9.505
25786WAT     H277601   7.799   2.577   9.602
25787WAT      O77602   4.903   8.533   5.770
25787WAT     H177603   4.875   8.451   5.819
25787WAT     H277604   4.858   8.536   5.681
25788WAT      O77605   9.434   3.146   0.683
25788WAT     H177606   9.398   3.233   0.648
25788WAT     H277607   9.414   3.139   0.780
25789WAT      O77608   2.849   9.830   6.771
25789WAT     H177609   2.804   9.746   6.740
25789WAT     H277610   2.942   9.833   6.736
25790WAT      O77611   6.957   7.625   5.762
25790WAT     H177612   6.879   7.580   5.804
25790WAT     H277613   6.991   7.697   5.823
25791WAT      O77614   2.570   7.802   0.636
25791WAT     H177615   2.538   7.897   0.639
25791WAT     H277616   2.523   7.749   0.707
25792WAT      O77617   7.453   6.287   5.444
25792WAT     H177618   7.542   6.316   5.410
25792WAT     H277619   7.382   6.350   5.413
25793WAT      O77620   1.075   2.234   8.499
25793WAT     H177621   1.090   2.249   8.597
25793WAT     H277622   1.106   2.314   8.448
25794WAT      O77623   7.445   7.580   4.033
25794WAT     H177624   7.392   7.496   4.048
25794WAT     H277625   7.530   7.557   3.985
25795WAT      O77626   7.859   7.318   7.143
25795WAT     H177627   7.791   7.380   7.182
25795WAT     H277628   7.859   7.232   7.196
25796WAT      O77629   1.017   5.566   8.001
25796WAT     H177630   0.939   5.540   7.944
25796WAT     H277631   1.084   5.615   7.946
25797WAT      O77632   3.077   7.971   3.487
25797WAT     H177633   3.096   8.059   3.443
25797WAT     H277634   3.001   7.982   3.551
25798WAT      O77635   5.806   9.332   7.562
25798WAT     H177636   5.708   9.349   7.553
25798WAT     H277637   5.857   9.416   7.544
25799WAT      O77638   9.514   1.895   7.759
25799WAT     H177639   9.552   1.806   7.736
25799WAT     H277640   9.474   1.936   7.677
25800WAT      O77641   7.740   5.869   2.636
25800WAT     H177642   7.738   5.965   2.661
25800WAT     H277643   7.656   5.845   2.587
25801WAT      O77644   2.611   0.352   3.504
25801WAT     H177645   2.573   0.260   3.515
25801WAT     H277646   2.668   0.375   3.584
25802WAT      O77647   2.848   6.866   0.404
25802WAT     H177648   2.796   6.826   0.329
25802WAT     H277649   2.944   6.876   0.376
25803WAT      O77650   9.047   0.442   1.630
25803WAT     H177651   9.145   0.465   1.628
25803WAT     H277652   9.026   0.381   1.554
25804WAT      O77653   1.802   1.574   1.176
25804WAT     H177654   1.737   1.516   1.128
25804WAT     H277655   1.786   1.670   1.151
25805WAT      O77656   4.491   1.184   1.449
25805WAT     H177657   4.523   1.091   1.432
25805WAT     H277658   4.421   1.182   1.521
25806WAT      O77659   6.842   8.661   6.492
25806WAT     H177660   6.937   8.649   6.461
25806WAT     H277661   6.842   8.685   6.589
25807WAT      O77662   0.162   5.165   9.492
25807WAT     H177663   0.064   5.152   9.476
25807WAT     H277664   0.190   5.108   9.569
25808WAT      O77665   3.273   6.958   5.912
25808WAT     H177666   3.255   7.039   5.856
25808WAT     H277667   3.359   6.970   5.961
25809WAT      O77668   4.165   1.937   2.575
25809WAT     H177669   4.201   1.974   2.661
25809WAT     H277670   4.072   1.904   2.589
25810WAT      O77671   7.097   8.578   1.324
25810WAT     H177672   7.090   8.519   1.404
25810WAT     H277673   7.050   8.536   1.246
25811WAT      O77674   1.785   1.250   3.058
25811WAT     H177675   1.797   1.168   3.113
25811WAT     H277676   1.774   1.225   2.962
25812WAT      O77677   3.693   5.027   8.601
25812WAT     H177678   3.756   4.957   8.567
25812WAT     H277679   3.745   5.104   8.638
25813WAT      O77680   0.071   1.220   6.193
25813WAT     H177681   0.091   1.142   6.253
25813WAT     H277682   0.140   1.224   6.120
25814WAT      O77683   2.188   1.841   1.024
25814WAT     H177684   2.143   1.771   1.080
25814WAT     H277685   2.266   1.800   0.976
25815WAT      O77686   7.296   0.051   6.512
25815WAT     H177687   7.365  -0.017   6.535
25815WAT     H277688   7.282   0.052   6.413
25816WAT      O77689   2.527   7.370   1.370
25816WAT     H177690   2.513   7.309   1.292
25816WAT     H277691   2.443   7.421   1.389
25817WAT      O77692   6.935   1.922   2.886
25817WAT     H177693   7.033   1.902   2.883
25817WAT     H277694   6.913   1.992   2.818
25818WAT      O77695   4.335   2.632   7.324
25818WAT     H177696   4.296   2.540   7.318
25818WAT     H277697   4.420   2.636   7.271
25819WAT      O77698   8.982   1.011   2.401
25819WAT     H177699   9.062   1.064   2.375
25819WAT     H277700   8.972   0.933   2.340
25820WAT      O77701   8.617   3.951   4.942
25820WAT     H177702   8.640   4.047   4.930
25820WAT     H277703   8.690   3.894   4.903
25821WAT      O77704   1.512   1.845   1.369
25821WAT     H177705   1.492   1.774   1.302
25821WAT     H277706   1.427   1.891   1.395
25822WAT      O77707   5.022   0.798   4.149
25822WAT     H177708   5.078   0.720   4.121
25822WAT     H277709   5.000   0.853   4.068
25823WAT      O77710   2.868   3.400   7.767
25823WAT     H177711   2.777   3.390   7.805
25823WAT     H277712   2.935   3.409   7.841
25824WAT      O77713   7.785   4.932   0.639
25824WAT     H177714   7.802   4.858   0.704
25824WAT     H277715   7.833   4.913   0.553
25825WAT      O77716   3.728   9.458   8.212
25825WAT     H177717   3.638   9.485   8.178
25825WAT     H277718   3.724   9.448   8.312
25826WAT      O77719   1.165   2.771   4.105
25826WAT     H177720   1.068   2.781   4.128
25826WAT     H277721   1.202   2.860   4.077
25827WAT      O77722   2.293   5.033   8.453
25827WAT     H177723   2.314   5.022   8.551
25827WAT     H277724   2.346   5.109   8.416
25828WAT      O77725   8.048   6.716   2.710
25828WAT     H177726   8.042   6.798   2.653
25828WAT     H277727   8.144   6.696   2.730
25829WAT      O77728   4.246   2.994   2.708
25829WAT     H177729   4.202   2.908   2.681
25829WAT     H277730   4.179   3.068   2.706
25830WAT      O77731   0.043   5.931   5.263
25830WAT     H177732   0.100   5.862   5.219
25830WAT     H277733  -0.049   5.894   5.276
25831WAT      O77734   6.546   4.028   8.669
25831WAT     H177735   6.563   3.965   8.594
25831WAT     H277736   6.499   3.979   8.743
25832WAT      O77737   4.071   5.441   0.208
25832WAT     H177738   4.152   5.436   0.266
25832WAT     H277739   4.049   5.537   0.190
25833WAT      O77740   6.909   7.852   7.470
25833WAT     H177741   6.844   7.839   7.545
25833WAT     H277742   6.973   7.775   7.469
25834WAT      O77743   5.999   5.531   6.149
25834WAT     H177744   5.899   5.533   6.155
25834WAT     H277745   6.027   5.481   6.067
25835WAT      O77746   9.067   7.865   3.914
25835WAT     H177747   9.062   7.964   3.906
25835WAT     H277748   9.029   7.836   4.002
25836WAT      O77749   4.902   4.349   5.922
25836WAT     H177750   4.838   4.337   5.998
25836WAT     H277751   4.861   4.410   5.854
25837WAT      O77752   0.123   2.729   3.612
25837WAT     H177753   0.187   2.799   3.644
25837WAT     H277754   0.174   2.648   3.581
25838WAT      O77755   6.211   5.523   1.906
25838WAT     H177756   6.166   5.513   1.817
25838WAT     H277757   6.190   5.442   1.962
25839WAT      O77758   2.011   4.652   0.719
25839WAT     H177759   2.104   4.619   0.735
25839WAT     H277760   1.975   4.611   0.635
25840WAT      O77761   5.889   7.316   2.735
25840WAT     H177762   5.829   7.257   2.681
25840WAT     H277763   5.921   7.392   2.677
25841WAT      O77764   7.907   7.657   8.126
25841WAT     H177765   7.868   7.597   8.197
25841WAT     H277766   7.942   7.740   8.169
25842WAT      O77767   1.311   2.664   5.646
25842WAT     H177768   1.219   2.670   5.607
25842WAT     H277769   1.334   2.567   5.662
25843WAT      O77770   7.416   9.173   5.799
25843WAT     H177771   7.324   9.206   5.776
25843WAT     H277772   7.419   9.073   5.787
25844WAT      O77773   2.253   8.459   8.559
25844WAT     H177774   2.288   8.544   8.598
25844WAT     H277775   2.326   8.390   8.559
25845WAT      O77776   8.983   5.253   7.408
25845WAT     H177777   9.014   5.222   7.318
25845WAT     H277778   9.055   5.236   7.475
25846WAT      O77779   9.738   7.301   6.967
25846WAT     H177780   9.691   7.214   6.984
25846WAT     H277781   9.836   7.290   6.986
25847WAT      O77782   8.010   1.059   2.832
25847WAT     H177783   8.014   1.133   2.899
25847WAT     H277784   7.924   1.008   2.843
25848WAT      O77785   4.028   6.591   7.856
25848WAT     H177786   3.997   6.562   7.947
25848WAT     H277787   4.072   6.514   7.811
25849WAT      O77788   2.020   6.461   0.537
25849WAT     H177789   2.026   6.383   0.601
25849WAT     H277790   2.093   6.526   0.558
25850WAT      O77791   7.056   3.054   1.243
25850WAT     H177792   7.126   3.121   1.218
25850WAT     H277793   6.969   3.101   1.258
25851WAT      O77794   5.410   3.141   3.203
25851WAT     H177795   5.392   3.239   3.208
25851WAT     H277796   5.455   3.120   3.116
25852WAT      O77797   3.011   6.228   7.821
25852WAT     H177798   2.991   6.133   7.797
25852WAT     H277799   3.061   6.272   7.746
25853WAT      O77800   5.108   2.591   8.372
25853WAT     H177801   5.150   2.501   8.361
25853WAT     H277802   5.032   2.585   8.436
25854WAT      O77803   8.104   5.331   1.388
25854WAT     H177804   8.188   5.289   1.424
25854WAT     H277805   8.044   5.259   1.353
25855WAT      O77806   9.615   7.180   1.268
25855WAT     H177807   9.703   7.147   1.301
25855WAT     H277808   9.626   7.228   1.182
25856WAT      O77809   7.150   3.875   9.182
25856WAT     H177810   7.090   3.910   9.254
25856WAT     H277811   7.242   3.913   9.193
25857WAT      O77812   3.753   2.133   5.533
25857WAT     H177813   3.814   2.173   5.465
25857WAT     H277814   3.719   2.045   5.499
25858WAT      O77815   5.775   2.313   8.889
25858WAT     H177816   5.717   2.250   8.837
25858WAT     H277817   5.721   2.391   8.919
25859WAT      O77818   4.418   5.365   1.287
25859WAT     H177819   4.334   5.391   1.239
25859WAT     H277820   4.414   5.399   1.381
25860WAT      O77821   8.461   7.963   6.665
25860WAT     H177822   8.534   7.976   6.598
25860WAT     H277823   8.491   7.996   6.754
25861WAT      O77824   7.758   8.489   5.367
25861WAT     H177825   7.683   8.452   5.422
25861WAT     H277826   7.844   8.479   5.417
25862WAT      O77827   7.234   8.244   8.231
25862WAT     H177828   7.224   8.323   8.170
25862WAT     H277829   7.156   8.241   8.293
25863WAT      O77830   3.545   6.761   4.267
25863WAT     H177831   3.458   6.736   4.225
25863WAT     H277832   3.554   6.860   4.269
25864WAT      O77833   7.554   3.062   8.814
25864WAT     H177834   7.461   3.039   8.842
25864WAT     H277835   7.618   2.995   8.854
25865WAT      O77836   5.180   4.100   2.136
25865WAT     H177837   5.211   4.176   2.079
25865WAT     H277838   5.236   4.096   2.219
25866WAT      O77839   1.307   9.080   4.881
25866WAT     H177840   1.395   9.034   4.893
25866WAT     H277841   1.268   9.055   4.792
25867WAT      O77842   7.251   5.824   4.846
25867WAT     H177843   7.259   5.924   4.841
25867WAT     H277844   7.305   5.783   4.772
25868WAT      O77845   6.670   1.625   8.704
25868WAT     H177846   6.658   1.540   8.755
25868WAT     H277847   6.729   1.687   8.756
25869WAT      O77848   9.334   2.913   7.397
25869WAT     H177849   9.369   2.983   7.335
25869WAT     H277850   9.276   2.956   7.466
25870WAT      O77851   5.634   9.375   9.424
25870WAT     H177852   5.568   9.447   9.447
25870WAT     H277853   5.609   9.332   9.338
25871WAT      O77854   2.141   6.680   6.281
25871WAT     H177855   2.054   6.651   6.321
25871WAT     H277856   2.138   6.668   6.182
25872WAT      O77857   0.620   7.982   7.840
25872WAT     H177858   0.608   8.062   7.781
25872WAT     H277859   0.717   7.969   7.860
25873WAT      O77860   4.262   0.155   3.075
25873WAT     H177861   4.360   0.137   3.073
25873WAT     H277862   4.224   0.122   3.162
25874WAT      O77863   2.854   3.720   4.209
25874WAT     H177864   2.756   3.740   4.218
25874WAT     H277865   2.885   3.748   4.118
25875WAT      O77866   2.613   9.311   5.392
25875WAT     H177867   2.541   9.369   5.353
25875WAT     H277868   2.571   9.237   5.445
25876WAT      O77869   4.998   9.054   1.450
25876WAT     H177870   4.960   9.095   1.367
25876WAT     H277871   4.988   9.117   1.527
25877WAT      O77872   6.601   2.853   1.951
25877WAT     H177873   6.561   2.805   1.873
25877WAT     H277874   6.618   2.788   2.025
25878WAT      O77875   7.733   1.581   4.342
25878WAT     H177876   7.753   1.500   4.288
25878WAT     H277877   7.817   1.618   4.382
25879WAT      O77878   9.346   1.328   0.028
25879WAT     H177879   9.323   1.333   0.125
25879WAT     H277880   9.440   1.358   0.014
25880WAT      O77881   6.762   6.229   8.670
25880WAT     H177882   6.743   6.307   8.730
25880WAT     H277883   6.747   6.144   8.720
25881WAT      O77884   5.103   0.334   1.460
25881WAT     H177885   5.006   0.332   1.485
25881WAT     H277886   5.113   0.356   1.363
25882WAT      O77887   9.613   8.509   2.830
25882WAT     H177888   9.631   8.481   2.736
25882WAT     H277889   9.677   8.463   2.892
25883WAT      O77890   8.514   5.252   0.181
25883WAT     H177891   8.467   5.335   0.211
25883WAT     H277892   8.448   5.189   0.141
25884WAT      O77893   4.454   6.329   0.067
25884WAT     H177894   4.434   6.415   0.113
25884WAT     H277895   4.552   6.324   0.047
25885WAT      O77896   9.641   4.283   8.207
25885WAT     H177897   9.734   4.302   8.175
25885WAT     H277898   9.645   4.241   8.298
25886WAT      O77899   1.812   8.887   0.658
25886WAT     H177900   1.787   8.965   0.600
25886WAT     H277901   1.800   8.912   0.754
25887WAT      O77902   3.911   2.672   2.514
25887WAT     H177903   3.945   2.680   2.420
25887WAT     H277904   3.987   2.650   2.575
25888WAT      O77905   9.029   3.809   3.627
25888WAT     H177906   8.942   3.764   3.647
25888WAT     H277907   9.025   3.848   3.535
25889WAT      O77908   3.945   7.090   8.361
25889WAT     H177909   4.001   7.133   8.290
25889WAT     H277910   3.980   6.999   8.380
25890WAT      O77911   1.980   9.583   6.104
25890WAT     H177912   1.903   9.547   6.156
25890WAT     H277913   2.065   9.544   6.140
25891WAT      O77914   6.147   8.029   1.310
25891WAT     H177915   6.137   8.017   1.409
25891WAT     H277916   6.214   8.101   1.292
25892WAT      O77917   8.657   3.803   8.420
25892WAT     H177918   8.616   3.722   8.379
25892WAT     H277919   8.714   3.776   8.498
25893WAT      O77920   1.290   7.922   8.739
25893WAT     H177921   1.253   7.837   8.700
25893WAT     H277922   1.215   7.983   8.763
25894WAT      O77923   9.842   5.736   3.415
25894WAT     H177924   9.759   5.724   3.469
25894WAT     H277925   9.820   5.785   3.330
25895WAT      O77926   6.010   5.588   1.558
25895WAT     H177927   6.008   5.682   1.593
25895WAT     H277928   6.088   5.577   1.496
25896WAT      O77929   0.638   3.687   0.305
25896WAT     H177930   0.541   3.681   0.281
25896WAT     H277931   0.670   3.781   0.290
25897WAT      O77932   2.554   6.182   5.711
25897WAT     H177933   2.574   6.091   5.674
25897WAT     H277934   2.485   6.226   5.653
25898WAT      O77935   4.736   2.353   3.703
25898WAT     H177936   4.726   2.407   3.619
25898WAT     H277937   4.646   2.336   3.742
25899WAT      O77938   5.589   2.196   5.975
25899WAT     H177939   5.516   2.248   5.930
25899WAT     H277940   5.633   2.136   5.909
25900WAT      O77941   9.873   6.459   1.855
25900WAT     H177942   9.780   6.491   1.870
25900WAT     H277943   9.938   6.533   1.872
25901WAT      O77944   8.247   8.381   7.342
25901WAT     H177945   8.176   8.368   7.412
25901WAT     H277946   8.255   8.479   7.322
25902WAT      O77947   3.145   3.066   7.064
25902WAT     H177948   3.065   3.125   7.077
25902WAT     H277949   3.228   3.120   7.077
25903WAT      O77950   0.171   4.737   4.229
25903WAT     H177951   0.204   4.726   4.135
25903WAT     H277952   0.217   4.815   4.271
25904WAT      O77953   6.076   9.543   0.632
25904WAT     H177954   6.021   9.466   0.664
25904WAT     H277955   6.121   9.519   0.546
25905WAT      O77956   4.744   4.179   1.045
25905WAT     H177957   4.760   4.270   1.084
25905WAT     H277958   4.832   4.131   1.036
25906WAT      O77959   4.464   3.145   5.676
25906WAT     H177960   4.395   3.217   5.680
25906WAT     H277961   4.480   3.119   5.581
25907WAT      O77962   7.927   0.776   9.129
25907WAT     H177963   7.960   0.817   9.214
25907WAT     H277964   7.890   0.686   9.147
25908WAT      O77965   4.654   7.869   0.069
25908WAT     H177966   4.656   7.906   0.162
25908WAT     H277967   4.570   7.816   0.057
25909WAT      O77968   8.103   0.048   8.045
25909WAT     H177969   8.064   0.027   8.134
25909WAT     H277970   8.076   0.141   8.017
25910WAT      O77971   8.372   2.647   1.759
25910WAT     H177972   8.472   2.657   1.764
25910WAT     H277973   8.340   2.591   1.836
25911WAT      O77974   2.081   4.970   6.596
25911WAT     H177975   2.082   4.953   6.695
25911WAT     H277976   2.161   5.024   6.571
25912WAT      O77977   1.750   8.358   6.540
25912WAT     H177978   1.814   8.431   6.517
25912WAT     H277979   1.701   8.329   6.458
25913WAT      O77980   0.299   5.311   8.098
25913WAT     H177981   0.332   5.405   8.101
25913WAT     H277982   0.224   5.304   8.031
25914WAT      O77983   0.429   6.666   5.945
25914WAT     H177984   0.491   6.589   5.930
25914WAT     H277985   0.336   6.632   5.960
25915WAT      O77986   9.057   3.658   4.337
25915WAT     H177987   8.980   3.622   4.389
25915WAT     H277988   9.123   3.699   4.400
25916WAT      O77989   7.450   8.944   3.912
25916WAT     H177990   7.358   8.910   3.928
25916WAT     H277991   7.475   8.929   3.817
25917WAT      O77992   3.888   8.977   6.799
25917WAT     H177993   3.979   8.936   6.788
25917WAT     H277994   3.896   9.062   6.850
25918WAT      O77995   0.362   0.938   8.309
25918WAT     H177996   0.349   0.869   8.380
25918WAT     H277997   0.332   1.027   8.343
25919WAT      O77998   8.262   0.028   7.751
25919WAT     H177999   8.214  -0.028   7.818
25919WAT     H278000   8.342   0.070   7.794
25920WAT      O78001   6.156   7.353   3.682
25920WAT     H178002   6.233   7.403   3.724
25920WAT     H278003   6.172   7.345   3.584
25921WAT      O78004   7.594   9.202   2.033
25921WAT     H178005   7.516   9.185   2.093
25921WAT     H278006   7.675   9.157   2.071
25922WAT      O78007   5.619   9.603   8.018
25922WAT     H178008   5.687   9.671   8.043
25922WAT     H278009   5.551   9.644   7.957
25923WAT      O78010   7.345   8.107   3.485
25923WAT     H178011   7.278   8.171   3.522
25923WAT     H278012   7.391   8.147   3.406
25924WAT      O78013   4.386   9.791   6.508
25924WAT     H178014   4.357   9.725   6.577
25924WAT     H278015   4.372   9.884   6.543
25925WAT      O78016   6.170   9.674   2.992
25925WAT     H178017   6.112   9.610   3.043
25925WAT     H278018   6.249   9.700   3.048
25926WAT      O78019   5.305   5.439   6.582
25926WAT     H178020   5.216   5.440   6.629
25926WAT     H278021   5.372   5.393   6.640
25927WAT      O78022   0.599   4.644   6.153
25927WAT     H178023   0.552   4.706   6.216
25927WAT     H278024   0.535   4.609   6.085
25928WAT      O78025   1.068   9.737   0.239
25928WAT     H178026   1.056   9.816   0.179
25928WAT     H278027   1.016   9.751   0.323
25929WAT      O78028   4.364   2.077   6.564
25929WAT     H178029   4.326   2.149   6.622
25929WAT     H278030   4.432   2.117   6.502
25930WAT      O78031   5.280   8.904   3.619
25930WAT     H178032   5.284   8.954   3.532
25930WAT     H278033   5.323   8.814   3.606
25931WAT      O78034   3.972   9.470   4.038
25931WAT     H178035   3.982   9.538   4.111
25931WAT     H278036   4.063   9.443   4.005
25932WAT      O78037   9.831   0.578   5.348
25932WAT     H178038   9.763   0.557   5.419
25932WAT     H278039   9.839   0.500   5.285
25933WAT      O78040   4.102   0.166   3.713
25933WAT     H178041   4.011   0.179   3.673
25933WAT     H278042   4.122   0.068   3.718
25934WAT      O78043   5.709   2.997   2.503
25934WAT     H178044   5.634   3.029   2.447
25934WAT     H278045   5.752   2.917   2.459
25935WAT      O78046   4.355   5.847   4.376
25935WAT     H178047   4.386   5.925   4.429
25935WAT     H278048   4.426   5.822   4.309
25936WAT      O78049   5.410   5.318   8.433
25936WAT     H178050   5.399   5.234   8.487
25936WAT     H278051   5.324   5.339   8.387
25937WAT      O78052   5.156   2.769   0.716
25937WAT     H178053   5.225   2.841   0.721
25937WAT     H278054   5.130   2.755   0.620
25938WAT      O78055   6.782   4.552   2.176
25938WAT     H178056   6.757   4.455   2.183
25938WAT     H278057   6.861   4.562   2.116
25939WAT      O78058   4.010   8.232   6.572
25939WAT     H178059   4.028   8.283   6.656
25939WAT     H278060   4.033   8.136   6.586
25940WAT      O78061   2.695   9.606   2.271
25940WAT     H178062   2.727   9.645   2.358
25940WAT     H278063   2.596   9.597   2.273
25941WAT      O78064   2.208   7.089   1.201
25941WAT     H178065   2.269   7.038   1.141
25941WAT     H278066   2.119   7.042   1.206
25942WAT      O78067   7.991   2.464   2.195
25942WAT     H178068   7.996   2.546   2.252
25942WAT     H278069   8.057   2.397   2.227
25943WAT      O78070   3.466   8.598   1.143
25943WAT     H178071   3.554   8.588   1.190
25943WAT     H278072   3.428   8.688   1.162
25944WAT      O78073   8.590   1.656   5.410
25944WAT     H178074   8.623   1.749   5.398
25944WAT     H278075   8.501   1.646   5.366
25945WAT      O78076   9.473   1.344   5.242
25945WAT     H178077   9.438   1.430   5.279
25945WAT     H278078   9.456   1.270   5.306
25946WAT      O78079   6.873   6.617   0.154
25946WAT     H178080   6.779   6.628   0.121
25946WAT     H278081   6.874   6.626   0.253
25947WAT      O78082   5.041   4.230   7.665
25947WAT     H178083   5.016   4.139   7.699
25947WAT     H278084   4.960   4.277   7.631
25948WAT      O78085   8.672   2.443   1.392
25948WAT     H178086   8.671   2.542   1.400
25948WAT     H278087   8.671   2.401   1.483
25949WAT      O78088   0.358   7.177   5.328
25949WAT     H178089   0.299   7.243   5.374
25949WAT     H278090   0.444   7.168   5.379
25950WAT      O78091   5.702   0.970   7.914
25950WAT     H178092   5.783   1.001   7.863
25950WAT     H278093   5.677   1.041   7.980
25951WAT      O78094   5.663   1.384   8.524
25951WAT     H178095   5.578   1.357   8.480
25951WAT     H278096   5.736   1.389   8.456
25952WAT      O78097   3.972   9.585   1.746
25952WAT     H178098   3.980   9.631   1.658
25952WAT     H278099   3.898   9.628   1.799
25953WAT      O78100   2.376   4.879   0.517
25953WAT     H178101   2.413   4.796   0.557
25953WAT     H278102   2.279   4.888   0.541
25954WAT      O78103   8.867   3.181   0.367
25954WAT     H178104   8.957   3.152   0.400
25954WAT     H278105   8.841   3.267   0.410
25955WAT      O78106   9.401   1.142   5.904
25955WAT     H178107   9.309   1.183   5.900
25955WAT     H278108   9.396   1.047   5.875
25956WAT      O78109   8.069   8.648   4.090
25956WAT     H178110   7.984   8.657   4.038
25956WAT     H278111   8.146   8.639   4.028
25957WAT      O78112   8.000   5.367   2.660
25957WAT     H178113   8.051   5.314   2.729
25957WAT     H278114   7.909   5.328   2.648
25958WAT      O78115   2.358   7.388   3.194
25958WAT     H178116   2.328   7.379   3.099
25958WAT     H278117   2.315   7.467   3.236
25959WAT      O78118   4.101   7.174   8.616
25959WAT     H178119   4.077   7.269   8.597
25959WAT     H278120   4.068   7.115   8.542
25960WAT      O78121   7.648   9.723   4.042
25960WAT     H178122   7.604   9.662   4.108
25960WAT     H278123   7.722   9.773   4.088
25961WAT      O78124   2.868   4.241   4.928
25961WAT     H178125   2.829   4.332   4.941
25961WAT     H278126   2.809   4.188   4.867
25962WAT      O78127   0.540   1.538   0.817
25962WAT     H178128   0.547   1.513   0.720
25962WAT     H278129   0.459   1.596   0.830
25963WAT      O78130   0.113   1.201   5.429
25963WAT     H178131   0.137   1.260   5.352
25963WAT     H278132   0.129   1.105   5.406
25964WAT      O78133   1.613   6.765   8.954
25964WAT     H178134   1.550   6.728   8.886
25964WAT     H278135   1.567   6.838   9.005
25965WAT      O78136   0.855   1.446   4.935
25965WAT     H178137   0.908   1.530   4.922
25965WAT     H278138   0.911   1.367   4.914
25966WAT      O78139   0.366   2.245   4.099
25966WAT     H178140   0.419   2.197   4.030
25966WAT     H278141   0.270   2.221   4.090
25967WAT      O78142   4.368   3.373   6.085
25967WAT     H178143   4.311   3.347   6.163
25967WAT     H278144   4.323   3.445   6.033
25968WAT      O78145   1.911   5.338   0.327
25968WAT     H178146   1.858   5.394   0.263
25968WAT     H278147   2.008   5.358   0.316
25969WAT      O78148   7.700   3.692   8.835
25969WAT     H178149   7.624   3.715   8.774
25969WAT     H278150   7.747   3.776   8.863
25970WAT      O78151   8.442   4.427   8.361
25970WAT     H178152   8.394   4.439   8.448
25970WAT     H278153   8.498   4.344   8.365
25971WAT      O78154   9.868   9.232   2.012
25971WAT     H178155   9.823   9.204   2.097
25971WAT     H278156   9.937   9.301   2.033
25972WAT      O78157   2.666   6.850   2.212
25972WAT     H178158   2.572   6.824   2.235
25972WAT     H278159   2.714   6.879   2.295
25973WAT      O78160   2.651   3.163   4.331
25973WAT     H178161   2.673   3.225   4.406
25973WAT     H278162   2.728   3.159   4.267
25974WAT      O78163   7.821   3.804   2.765
25974WAT     H178164   7.856   3.720   2.807
25974WAT     H278165   7.847   3.882   2.821
25975WAT      O78166   6.472   8.772   8.845
25975WAT     H178167   6.533   8.722   8.783
25975WAT     H278168   6.393   8.805   8.795
25976WAT      O78169   9.292   2.237   8.474
25976WAT     H178170   9.304   2.317   8.533
25976WAT     H278171   9.380   2.213   8.433
25977WAT      O78172   2.357   2.267   4.108
25977WAT     H178173   2.430   2.199   4.101
25977WAT     H278174   2.313   2.278   4.019
25978WAT      O78175   2.649   4.363   1.348
25978WAT     H178176   2.579   4.332   1.285
25978WAT     H278177   2.614   4.358   1.442
25979WAT      O78178   2.341   7.626   7.591
25979WAT     H178179   2.377   7.707   7.545
25979WAT     H278180   2.241   7.629   7.590
25980WAT      O78181   0.225   7.101   7.075
25980WAT     H178182   0.260   7.035   7.008
25980WAT     H278183   0.191   7.053   7.155
25981WAT      O78184   2.065   5.862   6.410
25981WAT     H178185   2.041   5.827   6.320
25981WAT     H278186   2.103   5.954   6.401
25982WAT      O78187   7.916   5.141   1.300
25982WAT     H178188   7.896   5.059   1.353
25982WAT     H278189   7.832   5.177   1.261
25983WAT      O78190   3.222   5.295   3.158
25983WAT     H178191   3.190   5.367   3.096
25983WAT     H278192   3.191   5.206   3.124
25984WAT      O78193   2.673   3.331   8.183
25984WAT     H178194   2.730   3.412   8.171
25984WAT     H278195   2.626   3.337   8.271
25985WAT      O78196   9.456   7.844   9.155
25985WAT     H178197   9.408   7.861   9.069
25985WAT     H278198   9.549   7.883   9.150
25986WAT      O78199   5.104   4.191   6.025
25986WAT     H178200   5.031   4.244   5.981
25986WAT     H278201   5.099   4.203   6.124
25987WAT      O78202   3.507   5.828   6.476
25987WAT     H178203   3.557   5.912   6.496
25987WAT     H278204   3.439   5.845   6.404
25988WAT      O78205   5.283   1.463   9.388
25988WAT     H178206   5.381   1.463   9.407
25988WAT     H278207   5.251   1.557   9.378
25989WAT      O78208   4.187   2.761   8.206
25989WAT     H178209   4.220   2.855   8.218
25989WAT     H278210   4.203   2.731   8.112
25990WAT      O78211   7.163   3.905   2.373
25990WAT     H178212   7.203   3.894   2.282
25990WAT     H278213   7.132   3.817   2.407
25991WAT      O78214   4.557   3.251   1.937
25991WAT     H178215   4.516   3.247   1.846
25991WAT     H278216   4.488   3.281   2.003
25992WAT      O78217   8.428   6.713   3.331
25992WAT     H178218   8.415   6.776   3.255
25992WAT     H278219   8.352   6.648   3.333
25993WAT      O78220   8.217   5.413   9.005
25993WAT     H178221   8.304   5.440   9.048
25993WAT     H278222   8.226   5.321   8.967
25994WAT      O78223   5.800   4.805   0.986
25994WAT     H178224   5.709   4.773   0.961
25994WAT     H278225   5.818   4.784   1.082
25995WAT      O78226   6.796   5.848   6.258
25995WAT     H178227   6.737   5.768   6.245
25995WAT     H278228   6.818   5.858   6.355
25996WAT      O78229   8.370   8.749   1.012
25996WAT     H178230   8.432   8.689   0.962
25996WAT     H278231   8.396   8.752   1.108
25997WAT      O78232   3.744   3.674   8.379
25997WAT     H178233   3.742   3.624   8.466
25997WAT     H278234   3.739   3.773   8.398
25998WAT      O78235   7.339   6.731   3.114
25998WAT     H178236   7.297   6.678   3.040
25998WAT     H278237   7.346   6.827   3.086
25999WAT      O78238   4.993   7.695   8.310
25999WAT     H178239   5.050   7.637   8.253
25999WAT     H278240   5.040   7.715   8.396
26000WAT      O78241   7.040   5.704   4.648
26000WAT     H178242   7.035   5.791   4.599
26000WAT     H278243   7.029   5.629   4.583
26001WAT      O78244   3.251   4.580   3.691
26001WAT     H178245   3.274   4.663   3.640
26001WAT     H278246   3.152   4.568   3.692
26002WAT      O78247   4.905   0.718   6.454
26002WAT     H178248   4.967   0.764   6.391
26002WAT     H278249   4.814   0.712   6.413
26003WAT      O78250   9.659   5.450   9.492
26003WAT     H178251   9.617   5.525   9.441
26003WAT     H278252   9.670   5.478   9.588
26004WAT      O78253   8.524   4.151   2.193
26004WAT     H178254   8.428   4.163   2.171
26004WAT     H278255   8.581   4.189   2.120
26005WAT      O78256   1.427   4.092   1.786
26005WAT     H178257   1.442   4.150   1.706
26005WAT     H278258   1.497   4.110   1.854
26006WAT      O78259   2.983   3.001   0.069
26006WAT     H178260   2.955   2.938   0.141
26006WAT     H278261   3.062   3.054   0.100
26007WAT      O78262   2.445   5.271   2.954
26007WAT     H178263   2.422   5.191   3.010
26007WAT     H278264   2.424   5.355   3.005
26008WAT      O78265   0.138   3.526   5.087
26008WAT     H178266   0.183   3.445   5.049
26008WAT     H278267   0.054   3.498   5.134
26009WAT      O78268   1.520   1.804   8.963
26009WAT     H178269   1.477   1.732   9.017
26009WAT     H278270   1.526   1.887   9.017
26010WAT      O78271   5.684   7.293   0.572
26010WAT     H178272   5.637   7.342   0.499
26010WAT     H278273   5.782   7.287   0.551
26011WAT      O78274   0.964   6.412   8.600
26011WAT     H178275   1.040   6.406   8.536
26011WAT     H278276   0.884   6.365   8.561
26012WAT      O78277   5.337   6.593   8.158
26012WAT     H178278   5.238   6.595   8.146
26012WAT     H278279   5.379   6.653   8.090
26013WAT      O78280   3.709   1.757   9.464
26013WAT     H178281   3.649   1.747   9.544
26013WAT     H278282   3.706   1.852   9.433
26014WAT      O78283   5.290   4.123   2.777
26014WAT     H178284   5.361   4.183   2.742
26014WAT     H278285   5.259   4.156   2.866
26015WAT      O78286   4.064   9.007   2.769
26015WAT     H178287   3.970   8.974   2.766
26015WAT     H278288   4.119   8.946   2.826
26016WAT      O78289   7.460   2.215   6.667
26016WAT     H178290   7.478   2.145   6.598
26016WAT     H278291   7.361   2.227   6.677
26017WAT      O78292   7.057   3.229   3.500
26017WAT     H178293   7.004   3.258   3.579
26017WAT     H278294   7.153   3.255   3.512
26018WAT      O78295   9.795   1.922   6.772
26018WAT     H178296   9.765   1.957   6.684
26018WAT     H278297   9.715   1.900   6.828
26019WAT      O78298   4.689   9.441   8.128
26019WAT     H178299   4.734   9.501   8.062
26019WAT     H278300   4.654   9.496   8.204
26020WAT      O78301   2.206   8.602   9.184
26020WAT     H178302   2.119   8.554   9.174
26020WAT     H278303   2.273   8.562   9.121
26021WAT      O78304   0.936   9.158   4.042
26021WAT     H178305   0.927   9.089   3.970
26021WAT     H278306   1.010   9.221   4.018
26022WAT      O78307   8.732   8.617   6.741
26022WAT     H178308   8.787   8.608   6.824
26022WAT     H278309   8.761   8.547   6.675
26023WAT      O78310   5.885   1.844   1.118
26023WAT     H178311   5.884   1.923   1.179
26023WAT     H278312   5.797   1.838   1.070
26024WAT      O78313   8.038   9.192   0.211
26024WAT     H178314   7.962   9.157   0.156
26024WAT     H278315   8.080   9.116   0.261
26025WAT      O78316   1.590   3.565   6.762
26025WAT     H178317   1.672   3.620   6.748
26025WAT     H278318   1.539   3.559   6.676
26026WAT      O78319   2.111   4.804   8.791
26026WAT     H178320   2.014   4.785   8.775
26026WAT     H278321   2.146   4.861   8.717
26027WAT      O78322   7.447   4.131   3.793
26027WAT     H178323   7.386   4.122   3.714
26027WAT     H278324   7.392   4.137   3.876
26028WAT      O78325   2.549   5.219   8.927
26028WAT     H178326   2.467   5.169   8.955
26028WAT     H278327   2.618   5.212   9.000
26029WAT      O78328   1.658   5.227   7.166
26029WAT     H178329   1.656   5.293   7.092
26029WAT     H278330   1.609   5.145   7.139
26030WAT      O78331   6.251   0.078   6.437
26030WAT     H178332   6.247  -0.020   6.413
26030WAT     H278333   6.163   0.107   6.473
26031WAT      O78334   8.165   9.790   8.633
26031WAT     H178335   8.114   9.795   8.546
26031WAT     H278336   8.136   9.708   8.683
26032WAT      O78337   0.029   5.506   3.519
26032WAT     H178338   0.028   5.594   3.471
26032WAT     H278339  -0.050   5.452   3.490
26033WAT      O78340   6.846   8.130   2.151
26033WAT     H178341   6.883   8.181   2.228
26033WAT     H278342   6.914   8.064   2.119
26034WAT      O78343   7.990   0.584   1.483
26034WAT     H178344   8.049   0.565   1.404
26034WAT     H278345   7.933   0.503   1.501
26035WAT      O78346   9.146   0.104   6.653
26035WAT     H178347   9.239   0.074   6.671
26035WAT     H278348   9.083   0.054   6.713
26036WAT      O78349   8.244   8.684   9.835
26036WAT     H178350   8.263   8.709   9.740
26036WAT     H278351   8.329   8.655   9.879
26037WAT      O78352   1.726   6.159   4.011
26037WAT     H178353   1.760   6.208   3.931
26037WAT     H278354   1.745   6.062   4.002
26038WAT      O78355   6.157   1.678   3.916
26038WAT     H178356   6.124   1.765   3.880
26038WAT     H278357   6.238   1.694   3.973
26039WAT      O78358   8.209   4.752   2.896
26039WAT     H178359   8.291   4.807   2.911
26039WAT     H278360   8.170   4.726   2.984
26040WAT      O78361   3.216   2.259   2.091
26040WAT     H178362   3.198   2.169   2.052
26040WAT     H278363   3.217   2.327   2.017
26041WAT      O78364   1.169   1.226   9.191
26041WAT     H178365   1.263   1.246   9.163
26041WAT     H278366   1.105   1.280   9.136
26042WAT      O78367   4.455   5.823   8.178
26042WAT     H178368   4.389   5.864   8.242
26042WAT     H278369   4.547   5.856   8.200
26043WAT      O78370   0.706   0.631   3.478
26043WAT     H178371   0.713   0.580   3.392
26043WAT     H278372   0.665   0.721   3.461
26044WAT      O78373   4.082   7.238   9.222
26044WAT     H178374   4.115   7.253   9.315
26044WAT     H278375   4.040   7.147   9.217
26045WAT      O78376   2.182   6.908   2.733
26045WAT     H178377   2.236   6.837   2.779
26045WAT     H278378   2.149   6.873   2.645
26046WAT      O78379   4.361   1.029   0.931
26046WAT     H178380   4.386   1.005   0.837
26046WAT     H278381   4.285   1.095   0.929
26047WAT      O78382   7.742   4.511   6.459
26047WAT     H178383   7.682   4.581   6.419
26047WAT     H278384   7.807   4.479   6.391
26048WAT      O78385   6.745   2.468   3.536
26048WAT     H178386   6.814   2.468   3.608
26048WAT     H278387   6.701   2.378   3.532
26049WAT      O78388   8.478   7.139   3.118
26049WAT     H178389   8.442   7.211   3.059
26049WAT     H278390   8.510   7.178   3.204
26050WAT      O78391   0.396   1.544   7.752
26050WAT     H178392   0.439   1.603   7.684
26050WAT     H278393   0.387   1.593   7.839
26051WAT      O78394   7.606   6.420   0.895
26051WAT     H178395   7.512   6.392   0.910
26051WAT     H278396   7.652   6.432   0.984
26052WAT      O78397   8.023   9.290   6.499
26052WAT     H178398   7.964   9.316   6.576
26052WAT     H278399   8.116   9.322   6.516
26053WAT      O78400   5.302   2.801   9.323
26053WAT     H178401   5.362   2.874   9.292
26053WAT     H278402   5.355   2.734   9.376
26054WAT      O78403   2.306   3.849   4.851
26054WAT     H178404   2.363   3.826   4.930
26054WAT     H278405   2.215   3.810   4.863
26055WAT      O78406   4.286   7.806   4.679
26055WAT     H178407   4.353   7.747   4.724
26055WAT     H278408   4.233   7.855   4.748
26056WAT      O78409   2.909   3.743   2.323
26056WAT     H178410   2.864   3.686   2.390
26056WAT     H278411   2.983   3.692   2.279
26057WAT      O78412   3.191   7.948   8.906
26057WAT     H178413   3.155   7.856   8.889
26057WAT     H278414   3.157   7.982   8.993
26058WAT      O78415   1.951   4.667   2.115
26058WAT     H178416   1.908   4.580   2.142
26058WAT     H278417   1.920   4.692   2.024
26059WAT      O78418   8.022   3.951   6.410
26059WAT     H178419   7.963   3.895   6.353
26059WAT     H278420   8.061   4.025   6.355
26060WAT      O78421   7.072   6.476   6.478
26060WAT     H178422   7.112   6.499   6.567
26060WAT     H278423   7.106   6.540   6.409
26061WAT      O78424   9.497   5.246   0.527
26061WAT     H178425   9.566   5.215   0.593
26061WAT     H278426   9.411   5.264   0.575
26062WAT      O78427   4.782   9.441   4.741
26062WAT     H178428   4.846   9.517   4.746
26062WAT     H278429   4.776   9.396   4.830
26063WAT      O78430   7.437   9.002   2.710
26063WAT     H178431   7.516   8.954   2.670
26063WAT     H278432   7.424   9.088   2.661
26064WAT      O78433   4.391   1.227   3.017
26064WAT     H178434   4.366   1.169   2.939
26064WAT     H278435   4.483   1.204   3.048
26065WAT      O78436   9.672   2.979   3.444
26065WAT     H178437   9.596   3.034   3.479
26065WAT     H278438   9.638   2.888   3.419
26066WAT      O78439   1.962   8.454   7.973
26066WAT     H178440   1.961   8.549   7.941
26066WAT     H278441   2.051   8.413   7.953
26067WAT      O78442   9.464   6.715   7.938
26067WAT     H178443   9.376   6.672   7.957
26067WAT     H278444   9.510   6.667   7.864
26068WAT      O78445   5.960   2.766   6.175
26068WAT     H178446   6.048   2.780   6.131
26068WAT     H278447   5.942   2.841   6.239
26069WAT      O78448   6.745   1.122   1.719
26069WAT     H178449   6.647   1.125   1.700
26069WAT     H278450   6.784   1.214   1.710
26070WAT      O78451   9.179   3.913   7.488
26070WAT     H178452   9.232   3.944   7.567
26070WAT     H278453   9.085   3.945   7.495
26071WAT      O78454   0.117   6.427   8.292
26071WAT     H178455   0.111   6.395   8.197
26071WAT     H278456   0.025   6.443   8.327
26072WAT      O78457   3.706   8.243   9.524
26072WAT     H178458   3.630   8.184   9.552
26072WAT     H278459   3.782   8.231   9.587
26073WAT      O78460   9.296   8.636   0.928
26073WAT     H178461   9.287   8.724   0.974
26073WAT     H278462   9.390   8.624   0.897
26074WAT      O78463   6.173   1.747   8.456
26074WAT     H178464   6.096   1.752   8.393
26074WAT     H278465   6.198   1.840   8.486
26075WAT      O78466   3.810   4.247   4.919
26075WAT     H178467   3.803   4.252   5.018
26075WAT     H278468   3.860   4.327   4.885
26076WAT      O78469   1.474   8.507   5.687
26076WAT     H178470   1.434   8.420   5.657
26076WAT     H278471   1.472   8.510   5.787
26077WAT      O78472   9.488   9.011   5.595
26077WAT     H178473   9.420   9.019   5.668
26077WAT     H278474   9.540   9.096   5.589
26078WAT      O78475   0.794   2.489   4.602
26078WAT     H178476   0.769   2.495   4.699
26078WAT     H278477   0.852   2.566   4.578
26079WAT      O78478   1.692   9.494   2.830
26079WAT     H178479   1.613   9.485   2.889
26079WAT     H278480   1.764   9.546   2.877
26080WAT      O78481   6.811   3.978   1.966
26080WAT     H178482   6.824   4.076   1.953
26080WAT     H278483   6.724   3.962   2.014
26081WAT      O78484   2.040   8.993   2.027
26081WAT     H178485   2.022   9.036   2.115
26081WAT     H278486   1.962   9.008   1.965
26082WAT      O78487   4.891   6.875   3.921
26082WAT     H178488   4.792   6.873   3.926
26082WAT     H278489   4.928   6.934   3.993
26083WAT      O78490   1.788   2.237   7.071
26083WAT     H178491   1.881   2.217   7.041
26083WAT     H278492   1.783   2.229   7.171
26084WAT      O78493   2.565   1.097   0.615
26084WAT     H178494   2.612   1.009   0.628
26084WAT     H278495   2.466   1.084   0.624
26085WAT      O78496   5.770   1.745   1.635
26085WAT     H178497   5.847   1.733   1.698
26085WAT     H278498   5.772   1.673   1.566
26086WAT      O78499   7.476   5.535   8.208
26086WAT     H178500   7.534   5.500   8.282
26086WAT     H278501   7.527   5.604   8.156
26087WAT      O78502   0.409   6.917   4.966
26087WAT     H178503   0.333   6.855   4.949
26087WAT     H278504   0.493   6.879   4.927
26088WAT      O78505   8.744   2.472   4.252
26088WAT     H178506   8.660   2.426   4.221
26088WAT     H278507   8.801   2.406   4.301
26089WAT      O78508   1.548   9.495   3.959
26089WAT     H178509   1.545   9.515   4.056
26089WAT     H278510   1.590   9.571   3.910
26090WAT      O78511   8.439   0.418   5.547
26090WAT     H178512   8.369   0.375   5.604
26090WAT     H278513   8.395   0.484   5.485
26091WAT      O78514   3.484   8.895   8.614
26091WAT     H178515   3.547   8.821   8.592
26091WAT     H278516   3.533   8.969   8.660
26092WAT      O78517   8.997   8.732   4.732
26092WAT     H178518   9.069   8.791   4.696
26092WAT     H278519   8.920   8.787   4.764
26093WAT      O78520   7.062   4.027   0.651
26093WAT     H178521   6.963   4.024   0.665
26093WAT     H278522   7.092   4.123   0.645
26094WAT      O78523   4.096   7.687   3.733
26094WAT     H178524   4.043   7.736   3.665
26094WAT     H278525   4.051   7.693   3.822
26095WAT      O78526   4.651   0.881   4.756
26095WAT     H178527   4.553   0.884   4.737
26095WAT     H278528   4.667   0.904   4.852
26096WAT      O78529   0.351   7.894   1.937
26096WAT     H178530   0.338   7.965   1.868
26096WAT     H278531   0.441   7.852   1.926
26097WAT      O78532   4.121   9.772   5.998
26097WAT     H178533   4.037   9.777   6.052
26097WAT     H278534   4.116   9.837   5.922
26098WAT      O78535   5.831   1.578   2.344
26098WAT     H178536   5.920   1.535   2.360
26098WAT     H278537   5.833   1.627   2.256
26099WAT      O78538   7.132   4.279   5.528
26099WAT     H178539   7.195   4.266   5.605
26099WAT     H278540   7.104   4.375   5.523
26100WAT      O78541   5.195   7.270   7.024
26100WAT     H178542   5.228   7.184   7.063
26100WAT     H278543   5.270   7.336   7.020
26101WAT      O78544   1.224   8.854   7.082
26101WAT     H178545   1.185   8.824   7.169
26101WAT     H278546   1.283   8.782   7.045
26102WAT      O78547   8.953   6.943   7.496
26102WAT     H178548   8.890   6.983   7.562
26102WAT     H278549   9.002   7.016   7.448
26103WAT      O78550   8.927   7.544   4.870
26103WAT     H178551   8.930   7.643   4.856
26103WAT     H278552   8.840   7.519   4.915
26104WAT      O78553   1.044   5.310   4.957
26104WAT     H178554   1.003   5.349   4.874
26104WAT     H278555   1.140   5.337   4.962
26105WAT      O78556   6.241   6.562   2.940
26105WAT     H178557   6.307   6.615   2.887
26105WAT     H278558   6.217   6.611   3.023
26106WAT      O78559   6.759   7.581   8.692
26106WAT     H178560   6.684   7.637   8.728
26106WAT     H278561   6.721   7.507   8.636
26107WAT      O78562   9.691   1.261   5.137
26107WAT     H178563   9.606   1.288   5.181
26107WAT     H278564   9.758   1.335   5.143
26108WAT      O78565   1.898   8.990   2.962
26108WAT     H178566   1.956   9.044   3.024
26108WAT     H278567   1.816   9.043   2.939
26109WAT      O78568   4.364   4.508   0.794
26109WAT     H178569   4.401   4.456   0.870
26109WAT     H278570   4.373   4.456   0.709
26110WAT      O78571   3.580   3.427   7.663
26110WAT     H178572   3.630   3.503   7.621
26110WAT     H278573   3.519   3.463   7.734
26111WAT      O78574   8.401   3.491   4.841
26111WAT     H178575   8.390   3.584   4.878
26111WAT     H278576   8.356   3.485   4.752
26112WAT      O78577   3.340   4.340   7.042
26112WAT     H178578   3.431   4.376   7.021
26112WAT     H278579   3.273   4.414   7.042
26113WAT      O78580   7.490   4.338   4.104
26113WAT     H178581   7.460   4.378   4.191
26113WAT     H278582   7.413   4.292   4.060
26114WAT      O78583   4.736   0.815   0.221
26114WAT     H178584   4.828   0.830   0.186
26114WAT     H278585   4.720   0.717   0.233
26115WAT      O78586   5.165   3.255   0.838
26115WAT     H178587   5.191   3.267   0.742
26115WAT     H278588   5.127   3.164   0.851
26116WAT      O78589   9.810   8.928   9.155
26116WAT     H178590   9.724   8.921   9.105
26116WAT     H278591   9.814   9.016   9.201
26117WAT      O78592   8.845   7.769   9.291
26117WAT     H178593   8.791   7.701   9.242
26117WAT     H278594   8.909   7.812   9.227
26118WAT      O78595   5.336   6.208   5.071
26118WAT     H178596   5.401   6.224   5.145
26118WAT     H278597   5.261   6.274   5.079
26119WAT      O78598   9.654   5.800   9.804
26119WAT     H178599   9.639   5.701   9.794
26119WAT     H278600   9.595   5.849   9.739
26120WAT      O78601   7.852   8.122   0.247
26120WAT     H178602   7.893   8.063   0.178
26120WAT     H278603   7.767   8.080   0.280
26121WAT      O78604   6.787   9.212   6.012
26121WAT     H178605   6.759   9.306   5.991
26121WAT     H278606   6.730   9.148   5.961
26122WAT      O78607   8.680   3.523   5.120
26122WAT     H178608   8.603   3.585   5.131
26122WAT     H278609   8.763   3.567   5.154
26123WAT      O78610   1.619   8.132   1.609
26123WAT     H178611   1.610   8.121   1.708
26123WAT     H278612   1.571   8.215   1.581
26124WAT      O78613   1.909   8.659   2.548
26124WAT     H178614   2.001   8.685   2.518
26124WAT     H278615   1.915   8.607   2.632
26125WAT      O78616   8.905   9.617   4.849
26125WAT     H178617   8.826   9.672   4.821
26125WAT     H278618   8.988   9.658   4.813
26126WAT      O78619   8.832   8.270   1.155
26126WAT     H178620   8.828   8.209   1.077
26126WAT     H278621   8.928   8.285   1.181
26127WAT      O78622   0.480   7.351   1.277
26127WAT     H178623   0.401   7.400   1.315
26127WAT     H278624   0.550   7.417   1.252
26128WAT      O78625   0.212   6.936   1.282
26128WAT     H178626   0.199   6.845   1.242
26128WAT     H278627   0.230   7.002   1.209
26129WAT      O78628   7.605   2.863   9.855
26129WAT     H178629   7.584   2.934   9.788
26129WAT     H278630   7.687   2.889   9.906
26130WAT      O78631   9.815   5.981   6.226
26130WAT     H178632   9.904   5.938   6.211
26130WAT     H278633   9.811   6.069   6.177
26131WAT      O78634   9.436   3.179   7.198
26131WAT     H178635   9.376   3.146   7.125
26131WAT     H278636   9.531   3.161   7.174
26132WAT      O78637   3.826   8.428   5.173
26132WAT     H178638   3.889   8.365   5.217
26132WAT     H278639   3.735   8.386   5.167
26133WAT      O78640   5.611   4.930   8.171
26133WAT     H178641   5.710   4.934   8.154
26133WAT     H278642   5.562   4.939   8.085
26134WAT      O78643   1.328   1.695   8.522
26134WAT     H178644   1.253   1.736   8.574
26134WAT     H278645   1.373   1.625   8.577
26135WAT      O78646   8.033   2.104   8.902
26135WAT     H178647   7.959   2.143   8.847
26135WAT     H278648   8.115   2.161   8.892
26136WAT      O78649   8.972   4.804   8.002
26136WAT     H178650   8.872   4.794   8.002
26136WAT     H278651   9.006   4.801   8.096
26137WAT      O78652   2.831   2.190   6.508
26137WAT     H178653   2.902   2.161   6.573
26137WAT     H278654   2.873   2.205   6.418
26138WAT      O78655   0.428   5.782   6.947
26138WAT     H178656   0.408   5.869   6.991
26138WAT     H278657   0.387   5.707   7.000
26139WAT      O78658   1.483   6.155   4.093
26139WAT     H178659   1.581   6.162   4.071
26139WAT     H278660   1.464   6.064   4.131
26140WAT      O78661   9.573   4.686   3.413
26140WAT     H178662   9.487   4.683   3.363
26140WAT     H278663   9.602   4.593   3.435
26141WAT      O78664   4.648   4.591   3.143
26141WAT     H178665   4.708   4.613   3.066
26141WAT     H278666   4.703   4.577   3.225
26142WAT      O78667   8.461   2.169   0.444
26142WAT     H178668   8.422   2.166   0.352
26142WAT     H278669   8.432   2.089   0.496
26143WAT      O78670   5.702   7.383   1.943
26143WAT     H178671   5.613   7.419   1.916
26143WAT     H278672   5.750   7.451   1.998
26144WAT      O78673   7.528   5.667   7.955
26144WAT     H178674   7.469   5.745   7.974
26144WAT     H278675   7.567   5.677   7.863
26145WAT      O78676   4.530   0.928   1.372
26145WAT     H178677   4.442   0.880   1.376
26145WAT     H278678   4.603   0.867   1.403
26146WAT      O78679   3.487   8.917   7.465
26146WAT     H178680   3.574   8.870   7.480
26146WAT     H278681   3.500   8.991   7.399
26147WAT      O78682   9.318   6.053   8.020
26147WAT     H178683   9.276   6.139   8.049
26147WAT     H278684   9.302   6.039   7.922
26148WAT      O78685   8.867   7.211   2.510
26148WAT     H178686   8.826   7.141   2.569
26148WAT     H278687   8.853   7.186   2.415
26149WAT      O78688   7.481   8.222   2.916
26149WAT     H178689   7.424   8.301   2.937
26149WAT     H278690   7.576   8.243   2.937
26150WAT      O78691   6.959   3.201   5.250
26150WAT     H178692   6.902   3.192   5.168
26150WAT     H278693   6.988   3.110   5.281
26151WAT      O78694   8.208   3.302   0.721
26151WAT     H178695   8.268   3.295   0.801
26151WAT     H278696   8.140   3.229   0.724
26152WAT      O78697   6.367   0.271   9.498
26152WAT     H178698   6.408   0.181   9.512
26152WAT     H278699   6.269   0.267   9.518
26153WAT      O78700   9.191   2.745   4.370
26153WAT     H178701   9.167   2.700   4.284
26153WAT     H278702   9.278   2.709   4.404
26154WAT      O78703   1.213   9.258   1.503
26154WAT     H178704   1.311   9.253   1.483
26154WAT     H278705   1.198   9.248   1.602
26155WAT      O78706   3.733   7.711   1.906
26155WAT     H178707   3.749   7.612   1.909
26155WAT     H278708   3.696   7.736   1.817
26156WAT      O78709   7.604   5.072   6.102
26156WAT     H178710   7.645   5.164   6.095
26156WAT     H278711   7.676   5.006   6.121
26157WAT      O78712   7.170   8.925   2.633
26157WAT     H178713   7.139   8.992   2.566
26157WAT     H278714   7.264   8.947   2.661
26158WAT      O78715   2.579   9.708   3.946
26158WAT     H178716   2.504   9.771   3.929
26158WAT     H278717   2.571   9.670   4.038
26159WAT      O78718   0.122   4.687   1.416
26159WAT     H178719   0.114   4.623   1.492
26159WAT     H278720   0.199   4.662   1.359
26160WAT      O78721   8.350   0.405   7.213
26160WAT     H178722   8.314   0.498   7.200
26160WAT     H278723   8.295   0.358   7.282
26161WAT      O78724   5.426   5.371   7.317
26161WAT     H178725   5.473   5.283   7.319
26161WAT     H278726   5.352   5.368   7.250
26162WAT      O78727   1.307   6.699   5.527
26162WAT     H178728   1.404   6.723   5.515
26162WAT     H278729   1.257   6.724   5.445
26163WAT      O78730   2.775   4.034   4.758
26163WAT     H178731   2.844   4.043   4.687
26163WAT     H278732   2.786   3.947   4.806
26164WAT      O78733   5.862   9.326   6.498
26164WAT     H178734   5.956   9.296   6.514
26164WAT     H278735   5.819   9.348   6.586
26165WAT      O78736   5.930   2.272   0.464
26165WAT     H178737   5.867   2.293   0.389
26165WAT     H278738   6.023   2.265   0.429
26166WAT      O78739   0.594   9.480   1.312
26166WAT     H178740   0.563   9.412   1.378
26166WAT     H278741   0.676   9.447   1.265
26167WAT      O78742   7.397   4.512   2.775
26167WAT     H178743   7.448   4.478   2.696
26167WAT     H278744   7.372   4.436   2.834
26168WAT      O78745   8.826   7.084   5.719
26168WAT     H178746   8.872   7.122   5.799
26168WAT     H278747   8.893   7.062   5.648
26169WAT      O78748   2.776   7.357   2.919
26169WAT     H178749   2.756   7.342   2.822
26169WAT     H278750   2.873   7.375   2.931
26170WAT      O78751   1.705   9.697   6.356
26170WAT     H178752   1.606   9.712   6.367
26170WAT     H278753   1.721   9.606   6.320
26171WAT      O78754   7.283   6.628   2.859
26171WAT     H178755   7.213   6.556   2.854
26171WAT     H278756   7.351   6.613   2.787
26172WAT      O78757   9.720   7.067   5.946
26172WAT     H178758   9.720   6.976   5.988
26172WAT     H278759   9.643   7.120   5.982
26173WAT      O78760  -0.003   7.033   0.159
26173WAT     H178761   0.045   6.965   0.214
26173WAT     H278762   0.037   7.036   0.067
26174WAT      O78763   9.858   1.096   9.369
26174WAT     H178764   9.787   1.026   9.376
26174WAT     H278765   9.815   1.186   9.362
26175WAT      O78766   2.167   2.765   1.712
26175WAT     H178767   2.238   2.833   1.693
26175WAT     H278768   2.099   2.804   1.775
26176WAT      O78769   1.479   8.406   1.096
26176WAT     H178770   1.385   8.371   1.092
26176WAT     H278771   1.542   8.338   1.060
26177WAT      O78772   2.612   3.026   3.937
26177WAT     H178773   2.545   2.971   3.886
26177WAT     H278774   2.657   2.968   4.005
26178WAT      O78775   1.841   5.777   1.901
26178WAT     H178776   1.802   5.694   1.861
26178WAT     H278777   1.898   5.753   1.980
26179WAT      O78778   0.425   9.008   3.096
26179WAT     H178779   0.356   9.068   3.055
26179WAT     H278780   0.504   9.064   3.123
26180WAT      O78781   7.600   9.097   7.448
26180WAT     H178782   7.505   9.127   7.452
26180WAT     H278783   7.616   9.026   7.516
26181WAT      O78784   8.905   4.578   1.793
26181WAT     H178785   8.955   4.560   1.878
26181WAT     H278786   8.834   4.646   1.810
26182WAT      O78787   0.275   6.590   6.809
26182WAT     H178788   0.256   6.660   6.740
26182WAT     H278789   0.245   6.501   6.775
26183WAT      O78790   3.836   2.815   0.696
26183WAT     H178791   3.749   2.778   0.663
26183WAT     H278792   3.905   2.743   0.694
26184WAT      O78793   2.861   2.916   4.459
26184WAT     H178794   2.857   2.972   4.542
26184WAT     H278795   2.854   2.976   4.379
26185WAT      O78796   2.949   9.362   2.610
26185WAT     H178797   2.933   9.439   2.672
26185WAT     H278798   2.861   9.328   2.576
26186WAT      O78799   5.493   6.071   4.427
26186WAT     H178800   5.478   6.146   4.363
26186WAT     H278801   5.412   6.060   4.486
26187WAT      O78802   8.574   8.020   6.924
26187WAT     H178803   8.671   8.000   6.932
26187WAT     H278804   8.554   8.109   6.965
26188WAT      O78805   4.771   5.456   0.801
26188WAT     H178806   4.721   5.434   0.718
26188WAT     H278807   4.824   5.540   0.787
26189WAT      O78808   3.108   8.276   9.374
26189WAT     H178809   3.108   8.192   9.320
26189WAT     H278810   3.044   8.266   9.450
26190WAT      O78811   3.655   6.357   4.556
26190WAT     H178812   3.583   6.424   4.570
26190WAT     H278813   3.738   6.385   4.605
26191WAT      O78814   1.588   3.621   3.759
26191WAT     H178815   1.532   3.627   3.676
26191WAT     H278816   1.579   3.706   3.811
26192WAT      O78817   5.880   1.654   8.664
26192WAT     H178818   5.891   1.721   8.737
26192WAT     H278819   5.828   1.575   8.698
26193WAT      O78820   5.100   5.995   6.342
26193WAT     H178821   5.040   5.946   6.406
26193WAT     H278822   5.052   6.009   6.255
26194WAT      O78823   3.357   0.824   4.107
26194WAT     H178824   3.345   0.876   4.023
26194WAT     H278825   3.268   0.801   4.146
26195WAT      O78826   4.162   2.289   4.657
26195WAT     H178827   4.170   2.228   4.737
26195WAT     H278828   4.076   2.339   4.663
26196WAT      O78829   1.220   7.194   2.304
26196WAT     H178830   1.273   7.173   2.387
26196WAT     H278831   1.134   7.143   2.306
26197WAT      O78832   4.029   3.440   2.256
26197WAT     H178833   4.062   3.358   2.303
26197WAT     H278834   4.001   3.417   2.164
26198WAT      O78835   9.031   6.274   0.720
26198WAT     H178836   9.122   6.237   0.702
26198WAT     H278837   9.011   6.269   0.818
26199WAT      O78838   7.336   3.783   3.497
26199WAT     H178839   7.359   3.792   3.594
26199WAT     H278840   7.414   3.814   3.442
26200WAT      O78841   6.063   7.479   4.099
26200WAT     H178842   6.004   7.537   4.155
26200WAT     H278843   6.141   7.448   4.153
26201WAT      O78844   1.663   2.642   8.942
26201WAT     H178845   1.572   2.685   8.944
26201WAT     H278846   1.719   2.678   9.016
26202WAT      O78847   0.017   1.838   1.521
26202WAT     H178848   0.048   1.744   1.536
26202WAT     H278849   0.033   1.864   1.426
26203WAT      O78850   9.402   9.490   8.682
26203WAT     H178851   9.445   9.411   8.725
26203WAT     H278852   9.418   9.572   8.737
26204WAT      O78853   2.104   5.010   7.767
26204WAT     H178854   2.088   4.912   7.774
26204WAT     H278855   2.199   5.030   7.790
26205WAT      O78856   3.301   9.292   5.151
26205WAT     H178857   3.398   9.266   5.156
26205WAT     H278858   3.293   9.381   5.107
26206WAT      O78859   7.671   3.328   3.316
26206WAT     H178860   7.760   3.286   3.298
26206WAT     H278861   7.628   3.353   3.229
26207WAT      O78862   4.545   2.496   8.647
26207WAT     H178863   4.504   2.425   8.703
26207WAT     H278864   4.542   2.469   8.551
26208WAT      O78865   0.963   4.804   5.873
26208WAT     H178866   0.887   4.827   5.812
26208WAT     H278867   1.050   4.823   5.828
26209WAT      O78868   9.854   7.238   8.832
26209WAT     H178869   9.796   7.174   8.782
26209WAT     H278870   9.883   7.311   8.770
26210WAT      O78871   2.773   8.293   9.846
26210WAT     H178872   2.797   8.324   9.938
26210WAT     H278873   2.839   8.225   9.815
26211WAT      O78874   4.134   0.914   3.089
26211WAT     H178875   4.128   0.829   3.038
26211WAT     H278876   4.085   0.986   3.039
26212WAT      O78877   0.527   3.768   2.562
26212WAT     H178878   0.562   3.732   2.649
26212WAT     H278879   0.499   3.863   2.575
26213WAT      O78880   4.975   6.404   6.483
26213WAT     H178881   4.991   6.357   6.397
26213WAT     H278882   4.923   6.345   6.545
26214WAT      O78883   2.051   5.914   8.755
26214WAT     H178884   1.952   5.931   8.757
26214WAT     H278885   2.096   5.983   8.698
26215WAT      O78886   6.593   0.272   5.338
26215WAT     H178887   6.600   0.282   5.437
26215WAT     H278888   6.609   0.361   5.294
26216WAT      O78889   0.038   3.051   2.352
26216WAT     H178890   0.023   3.044   2.451
26216WAT     H278891   0.051   3.147   2.327
26217WAT      O78892   1.562   8.404   4.144
26217WAT     H178893   1.533   8.348   4.067
26217WAT     H278894   1.489   8.468   4.169
26218WAT      O78895   7.106   4.468   8.700
26218WAT     H178896   7.088   4.480   8.798
26218WAT     H278897   7.081   4.552   8.652
26219WAT      O78898   0.503   6.511   1.688
26219WAT     H178899   0.601   6.526   1.675
26219WAT     H278900   0.480   6.527   1.784
26220WAT      O78901   6.943   6.177   6.717
26220WAT     H178902   6.858   6.166   6.768
26220WAT     H278903   7.005   6.101   6.738
26221WAT      O78904   1.868   3.905   5.010
26221WAT     H178905   1.783   3.882   4.963
26221WAT     H278906   1.851   3.913   5.108
26222WAT      O78907   7.567   4.622   8.934
26222WAT     H178908   7.589   4.555   9.005
26222WAT     H278909   7.469   4.619   8.915
26223WAT      O78910   9.583   6.440   5.741
26223WAT     H178911   9.495   6.407   5.705
26223WAT     H278912   9.598   6.400   5.832
26224WAT      O78913   9.478   1.769   5.528
26224WAT     H178914   9.450   1.786   5.623
26224WAT     H278915   9.444   1.680   5.498
26225WAT      O78916   8.528   7.105   8.252
26225WAT     H178917   8.537   7.160   8.335
26225WAT     H278918   8.612   7.111   8.199
26226WAT      O78919   9.674   8.291   4.064
26226WAT     H178920   9.737   8.367   4.082
26226WAT     H278921   9.582   8.327   4.049
26227WAT      O78922   7.625   5.178   6.610
26227WAT     H178923   7.563   5.141   6.541
26227WAT     H278924   7.719   5.178   6.574
26228WAT      O78925   7.248   6.447   5.351
26228WAT     H178926   7.256   6.440   5.252
26228WAT     H278927   7.159   6.487   5.375
26229WAT      O78928   5.254   7.248   7.540
26229WAT     H178929   5.221   7.261   7.633
26229WAT     H278930   5.204   7.173   7.496
26230WAT      O78931   6.434   8.311   8.640
26230WAT     H178932   6.498   8.259   8.584
26230WAT     H278933   6.479   8.338   8.725
26231WAT      O78934   8.812   1.915   0.287
26231WAT     H178935   8.775   2.007   0.299
26231WAT     H278936   8.778   1.876   0.201
26232WAT      O78937   6.620   7.843   3.278
26232WAT     H178938   6.645   7.848   3.181
26232WAT     H278939   6.549   7.774   3.291
26233WAT      O78940   1.503   1.989   6.392
26233WAT     H178941   1.563   2.015   6.468
26233WAT     H278942   1.464   2.072   6.351
26234WAT      O78943   6.696   8.879   6.435
26234WAT     H178944   6.745   8.963   6.459
26234WAT     H278945   6.743   8.800   6.474
26235WAT      O78946   4.546   0.991   6.423
26235WAT     H178947   4.454   0.954   6.429
26235WAT     H278948   4.572   1.031   6.511
26236WAT      O78949   2.544   7.866   6.863
26236WAT     H178950   2.505   7.789   6.813
26236WAT     H278951   2.627   7.898   6.817
26237WAT      O78952   9.587   6.404   0.391
26237WAT     H178953   9.580   6.450   0.480
26237WAT     H278954   9.497   6.403   0.347
26238WAT      O78955   6.587   2.765   8.436
26238WAT     H178956   6.566   2.751   8.339
26238WAT     H278957   6.654   2.838   8.445
26239WAT      O78958   8.725   6.919   4.125
26239WAT     H178959   8.804   6.980   4.111
26239WAT     H278960   8.675   6.909   4.039
26240WAT      O78961   9.431   4.064   9.377
26240WAT     H178962   9.525   4.052   9.345
26240WAT     H278963   9.432   4.104   9.469
26241WAT      O78964   3.899   8.776   3.035
26241WAT     H178965   3.945   8.694   3.070
26241WAT     H278966   3.914   8.851   3.099
26242WAT      O78967   0.200   3.694   3.246
26242WAT     H178968   0.164   3.638   3.171
26242WAT     H278969   0.125   3.727   3.302
26243WAT      O78970   5.924   6.708   7.130
26243WAT     H178971   5.940   6.801   7.098
26243WAT     H278972   5.988   6.646   7.085
26244WAT      O78973   0.301   4.708   8.129
26244WAT     H178974   0.241   4.704   8.209
26244WAT     H278975   0.378   4.647   8.143
26245WAT      O78976   5.045   3.177   3.449
26245WAT     H178977   5.140   3.147   3.447
26245WAT     H278978   4.998   3.133   3.525
26246WAT      O78979   7.524   2.398   1.094
26246WAT     H178980   7.598   2.379   1.157
26246WAT     H278981   7.444   2.431   1.144
26247WAT      O78982   7.970   3.580   6.397
26247WAT     H178983   8.067   3.571   6.375
26247WAT     H278984   7.951   3.535   6.484
26248WAT      O78985   8.607   3.131   6.936
26248WAT     H178986   8.703   3.161   6.934
26248WAT     H278987   8.603   3.033   6.957
26249WAT      O78988   2.333   3.735   2.001
26249WAT     H178989   2.245   3.783   2.006
26249WAT     H278990   2.370   3.725   2.094
26250WAT      O78991   5.967   1.228   1.747
26250WAT     H178992   5.879   1.274   1.764
26250WAT     H278993   6.035   1.295   1.718
26251WAT      O78994   1.092   8.041   1.497
26251WAT     H178995   1.068   8.106   1.568
26251WAT     H278996   1.010   8.016   1.445
26252WAT      O78997   4.622   5.486   9.023
26252WAT     H178998   4.554   5.433   8.973
26252WAT     H278999   4.712   5.447   9.008
26253WAT      O79000   3.929   7.818   3.522
26253WAT     H179001   3.865   7.797   3.596
26253WAT     H279002   3.899   7.773   3.438
26254WAT      O79003   8.293   4.972   9.489
26254WAT     H179004   8.224   4.948   9.557
26254WAT     H279005   8.248   5.012   9.409
26255WAT      O79006   6.398   5.823   0.400
26255WAT     H179007   6.399   5.897   0.467
26255WAT     H279008   6.341   5.748   0.433
26256WAT      O79009   8.356   4.629   9.093
26256WAT     H179010   8.390   4.614   9.186
26256WAT     H279011   8.303   4.550   9.064
26257WAT      O79012   9.236   0.986   0.738
26257WAT     H179013   9.265   0.908   0.794
26257WAT     H279014   9.257   1.071   0.787
26258WAT      O79015   7.927   5.601   7.792
26258WAT     H179016   7.922   5.504   7.813
26258WAT     H279017   7.986   5.647   7.859
26259WAT      O79018   5.879   7.130   8.457
26259WAT     H179019   5.856   7.211   8.403
26259WAT     H279020   5.976   7.108   8.444
26260WAT      O79021   8.782   4.285   7.939
26260WAT     H179022   8.694   4.330   7.928
26260WAT     H279023   8.856   4.350   7.924
26261WAT      O79024   7.046   4.246   6.827
26261WAT     H179025   7.095   4.219   6.744
26261WAT     H279026   7.103   4.307   6.881
26262WAT      O79027   6.825   8.501   2.229
26262WAT     H179028   6.797   8.550   2.147
26262WAT     H279029   6.925   8.494   2.231
26263WAT      O79030   5.304   9.254   2.971
26263WAT     H179031   5.364   9.317   3.021
26263WAT     H279032   5.219   9.301   2.948
26264WAT      O79033   2.107   6.899   5.731
26264WAT     H179034   2.123   6.884   5.829
26264WAT     H279035   2.191   6.881   5.680
26265WAT      O79036   6.792   2.361   5.571
26265WAT     H179037   6.810   2.456   5.544
26265WAT     H279038   6.694   2.341   5.562
26266WAT      O79039   2.071   1.459   9.124
26266WAT     H179040   2.079   1.519   9.044
26266WAT     H279041   2.060   1.515   9.206
26267WAT      O79042   4.872   1.372   5.900
26267WAT     H179043   4.957   1.333   5.864
26267WAT     H279044   4.844   1.322   5.981
26268WAT      O79045   4.289   0.464   1.413
26268WAT     H179046   4.215   0.397   1.404
26268WAT     H279047   4.348   0.439   1.489
26269WAT      O79048   8.536   2.242   7.026
26269WAT     H179049   8.519   2.209   7.119
26269WAT     H279050   8.616   2.196   6.989
26270WAT      O79051   6.153   1.265   5.327
26270WAT     H179052   6.054   1.280   5.318
26270WAT     H279053   6.170   1.169   5.351
26271WAT      O79054   0.819   6.067   6.239
26271WAT     H179055   0.860   6.032   6.322
26271WAT     H279056   0.831   6.001   6.165
26272WAT      O79057   8.790   9.348   2.248
26272WAT     H179058   8.814   9.254   2.275
26272WAT     H279059   8.828   9.412   2.314
26273WAT      O79060   1.575   1.552   4.422
26273WAT     H179061   1.551   1.459   4.394
26273WAT     H279062   1.536   1.618   4.357
26274WAT      O79063   8.990   1.839   1.426
26274WAT     H179064   9.044   1.859   1.507
26274WAT     H279065   9.034   1.767   1.373
26275WAT      O79066   3.097   2.274   0.625
26275WAT     H179067   3.087   2.280   0.724
26275WAT     H279068   3.191   2.298   0.600
26276WAT      O79069   6.749   0.118   2.556
26276WAT     H179070   6.692   0.154   2.482
26276WAT     H279071   6.701   0.131   2.644
26277WAT      O79072   4.488   6.644   2.051
26277WAT     H179073   4.575   6.596   2.058
26277WAT     H279074   4.415   6.585   2.087
26278WAT      O79075   1.193   1.307   7.724
26278WAT     H179076   1.271   1.281   7.668
26278WAT     H279077   1.114   1.325   7.665
26279WAT      O79078   6.971   7.903   1.725
26279WAT     H179079   6.933   7.972   1.787
26279WAT     H279080   6.917   7.901   1.640
26280WAT      O79081   2.330   7.974   7.837
26280WAT     H179082   2.273   7.976   7.754
26280WAT     H279083   2.302   8.048   7.898
26281WAT      O79084   7.583   6.660   0.713
26281WAT     H179085   7.563   6.564   0.731
26281WAT     H279086   7.594   6.709   0.800
26282WAT      O79087   9.021   0.859   3.062
26282WAT     H179088   9.016   0.773   3.113
26282WAT     H279089   8.947   0.861   2.994
26283WAT      O79090   3.631   7.857   2.107
26283WAT     H179091   3.552   7.902   2.064
26283WAT     H279092   3.690   7.818   2.037
26284WAT      O79093   5.370   3.070   4.600
26284WAT     H179094   5.327   3.144   4.549
26284WAT     H279095   5.452   3.104   4.647
26285WAT      O79096   8.880   1.548   6.038
26285WAT     H179097   8.860   1.537   5.941
26285WAT     H279098   8.960   1.493   6.062
26286WAT      O79099   8.290   7.447   7.829
26286WAT     H179100   8.216   7.477   7.890
26286WAT     H279101   8.342   7.374   7.873
26287WAT      O79102   6.744   3.912   5.655
26287WAT     H179103   6.810   3.893   5.728
26287WAT     H279104   6.784   3.976   5.589
26288WAT      O79105   0.674   5.465   3.265
26288WAT     H179106   0.659   5.439   3.360
26288WAT     H279107   0.765   5.436   3.237
26289WAT      O79108   2.536   3.579   5.076
26289WAT     H179109   2.438   3.562   5.085
26289WAT     H279110   2.568   3.636   5.151
26290WAT      O79111   3.846   2.869   9.762
26290WAT     H179112   3.939   2.892   9.733
26290WAT     H279113   3.781   2.897   9.691
26291WAT      O79114   7.764   8.668   7.735
26291WAT     H179115   7.690   8.618   7.780
26291WAT     H279116   7.843   8.674   7.796
26292WAT      O79117   9.702   1.895   5.002
26292WAT     H179118   9.695   1.828   4.929
26292WAT     H279119   9.777   1.871   5.063
26293WAT      O79120   1.675   8.860   0.082
26293WAT     H179121   1.737   8.791   0.118
26293WAT     H279122   1.723   8.947   0.073
26294WAT      O79123   3.428   9.467   0.346
26294WAT     H179124   3.373   9.496   0.425
26294WAT     H279125   3.524   9.462   0.373
26295WAT      O79126   5.047   0.088   2.445
26295WAT     H179127   5.095   0.106   2.359
26295WAT     H279128   4.996   0.002   2.438
26296WAT      O79129   5.310   8.646   1.323
26296WAT     H179130   5.303   8.548   1.304
26296WAT     H279131   5.351   8.658   1.414
26297WAT      O79132   4.458   8.406   2.030
26297WAT     H179133   4.434   8.319   2.073
26297WAT     H279134   4.383   8.437   1.973
26298WAT      O79135   8.146   8.148   0.384
26298WAT     H179136   8.046   8.150   0.375
26298WAT     H279137   8.173   8.077   0.448
26299WAT      O79138   2.615   6.389   3.012
26299WAT     H179139   2.687   6.403   3.080
26299WAT     H279140   2.655   6.368   2.923
26300WAT      O79141   5.908   9.714   9.470
26300WAT     H179142   5.838   9.688   9.404
26300WAT     H279143   5.926   9.637   9.532
26301WAT      O79144   1.801   1.703   7.905
26301WAT     H179145   1.776   1.627   7.844
26301WAT     H279146   1.865   1.670   7.974
26302WAT      O79147   9.261   0.264   0.429
26302WAT     H179148   9.235   0.358   0.406
26302WAT     H279149   9.182   0.204   0.418
26303WAT      O79150   6.054   9.527   5.094
26303WAT     H179151   6.152   9.545   5.101
26303WAT     H279152   6.016   9.579   5.018
26304WAT      O79153   5.831   8.542   6.448
26304WAT     H179154   5.824   8.507   6.354
26304WAT     H279155   5.830   8.642   6.446
26305WAT      O79156   8.169   1.083   8.331
26305WAT     H179157   8.254   1.031   8.333
26305WAT     H279158   8.091   1.021   8.320
26306WAT      O79159   9.165   9.369   4.229
26306WAT     H179160   9.195   9.396   4.320
26306WAT     H279161   9.243   9.336   4.176
26307WAT      O79162   2.845   5.124   5.028
26307WAT     H179163   2.866   5.222   5.033
26307WAT     H279164   2.928   5.074   5.003
26308WAT      O79165   1.760   8.367   8.739
26308WAT     H179166   1.734   8.327   8.651
26308WAT     H279167   1.849   8.411   8.730
26309WAT      O79168   1.397   4.400   8.867
26309WAT     H179169   1.321   4.425   8.807
26309WAT     H279170   1.428   4.307   8.844
26310WAT      O79171   4.259   0.652   5.478
26310WAT     H179172   4.301   0.587   5.541
26310WAT     H279173   4.163   0.627   5.462
26311WAT      O79174   3.544   5.165   2.886
26311WAT     H179175   3.627   5.214   2.858
26311WAT     H279176   3.532   5.173   2.985
26312WAT      O79177   1.469   8.193   3.413
26312WAT     H179178   1.391   8.152   3.460
26312WAT     H279179   1.438   8.237   3.329
26313WAT      O79180   4.914   9.760   0.709
26313WAT     H179181   5.009   9.752   0.680
26313WAT     H279182   4.876   9.847   0.677
26314WAT      O79183   6.541   5.429   8.294
26314WAT     H179184   6.640   5.442   8.296
26314WAT     H279185   6.496   5.519   8.290
26315WAT      O79186   0.191   8.835   4.262
26315WAT     H179187   0.098   8.804   4.243
26315WAT     H279188   0.256   8.773   4.219
26316WAT      O79189   5.253   1.475   1.250
26316WAT     H179190   5.174   1.476   1.188
26316WAT     H279191   5.249   1.393   1.307
26317WAT      O79192   7.583   8.658   6.282
26317WAT     H179193   7.639   8.740   6.295
26317WAT     H279194   7.500   8.666   6.336
26318WAT      O79195   5.445   5.261   0.926
26318WAT     H179196   5.393   5.306   0.853
26318WAT     H279197   5.503   5.190   0.886
26319WAT      O79198   6.373   0.019   4.767
26319WAT     H179199   6.385   0.034   4.669
26319WAT     H279200   6.295   0.073   4.800
26320WAT      O79201   8.231   0.627   0.555
26320WAT     H179202   8.322   0.647   0.520
26320WAT     H279203   8.165   0.693   0.518
26321WAT      O79204   1.009   0.983   0.674
26321WAT     H179205   0.961   0.941   0.751
26321WAT     H279206   1.034   1.077   0.697
26322WAT      O79207   7.847   3.308   2.809
26322WAT     H179208   7.846   3.405   2.836
26322WAT     H279209   7.778   3.293   2.738
26323WAT      O79210   6.508   1.167   1.295
26323WAT     H179211   6.526   1.221   1.377
26323WAT     H279212   6.583   1.101   1.281
26324WAT      O79213   1.511   8.439   1.943
26324WAT     H179214   1.542   8.457   1.850
26324WAT     H279215   1.549   8.509   2.004
26325WAT      O79216   8.957   1.473   2.125
26325WAT     H179217   8.891   1.515   2.188
26325WAT     H279218   9.004   1.544   2.073
26326WAT      O79219   1.702   6.692   5.414
26326WAT     H179220   1.789   6.736   5.393
26326WAT     H279221   1.717   6.619   5.480
26327WAT      O79222   6.602   8.130   0.072
26327WAT     H179223   6.700   8.113   0.059
26327WAT     H279224   6.578   8.220   0.033
26328WAT      O79225   1.942   6.382   1.697
26328WAT     H179226   1.922   6.403   1.793
26328WAT     H279227   1.858   6.387   1.643
26329WAT      O79228   7.857   4.725   6.747
26329WAT     H179229   7.851   4.787   6.825
26329WAT     H279230   7.797   4.647   6.761
26330WAT      O79231   2.578   9.427   3.870
26330WAT     H179232   2.567   9.522   3.841
26330WAT     H279233   2.492   9.394   3.909
26331WAT      O79234   7.501   7.331   5.782
26331WAT     H179235   7.513   7.273   5.702
26331WAT     H279236   7.403   7.347   5.797
26332WAT      O79237   7.266   7.021   9.612
26332WAT     H179238   7.287   7.102   9.667
26332WAT     H279239   7.339   6.954   9.623
26333WAT      O79240   5.246   3.391   5.272
26333WAT     H179241   5.335   3.437   5.280
26333WAT     H279242   5.245   3.335   5.189
26334WAT      O79243   1.054   2.251   3.417
26334WAT     H179244   1.099   2.313   3.352
26334WAT     H279245   1.066   2.156   3.386
26335WAT      O79246   9.317   6.724   6.017
26335WAT     H179247   9.399   6.730   5.961
26335WAT     H279248   9.278   6.632   6.010
26336WAT      O79249   1.136   7.476   4.412
26336WAT     H179250   1.131   7.459   4.510
26336WAT     H279251   1.225   7.515   4.389
26337WAT      O79252   6.975   9.127   2.561
26337WAT     H179253   6.924   9.046   2.533
26337WAT     H279254   6.974   9.194   2.486
26338WAT      O79255   3.638   1.475   9.698
26338WAT     H179256   3.550   1.438   9.726
26338WAT     H279257   3.689   1.406   9.647
26339WAT      O79258   9.054   0.963   8.120
26339WAT     H179259   9.011   0.915   8.197
26339WAT     H279260   9.102   1.044   8.154
26340WAT      O79261   0.539   1.636   3.549
26340WAT     H179262   0.612   1.573   3.575
26340WAT     H279263   0.454   1.584   3.537
26341WAT      O79264   3.566   3.031   1.449
26341WAT     H179265   3.598   2.947   1.406
26341WAT     H279266   3.587   3.029   1.547
26342WAT      O79267   5.852   6.757   7.746
26342WAT     H179268   5.945   6.737   7.776
26342WAT     H279269   5.806   6.672   7.719
26343WAT      O79270   9.734   2.037   7.821
26343WAT     H179271   9.647   1.993   7.797
26343WAT     H279272   9.727   2.081   7.910
26344WAT      O79273   0.591   7.945   8.777
26344WAT     H179274   0.609   8.002   8.697
26344WAT     H279275   0.492   7.944   8.795
26345WAT      O79276   7.619   8.518   6.019
26345WAT     H179277   7.546   8.504   5.952
26345WAT     H279278   7.586   8.579   6.091
26346WAT      O79279   3.882   3.870   3.734
26346WAT     H179280   3.914   3.813   3.658
26346WAT     H279281   3.960   3.906   3.784
26347WAT      O79282   0.425   0.424   7.214
26347WAT     H179283   0.451   0.464   7.302
26347WAT     H279284   0.456   0.484   7.140
26348WAT      O79285   4.314   1.761   0.060
26348WAT     H179286   4.241   1.693   0.072
26348WAT     H279287   4.284   1.848   0.098
26349WAT      O79288   2.700   5.332   9.616
26349WAT     H179289   2.709   5.413   9.559
26349WAT     H279290   2.706   5.250   9.559
26350WAT      O79291   5.863   4.844   3.053
26350WAT     H179292   5.848   4.902   2.973
26350WAT     H279293   5.914   4.896   3.122
26351WAT      O79294   0.918   2.574   8.489
26351WAT     H179295   0.880   2.659   8.451
26351WAT     H279296   0.882   2.496   8.437
26352WAT      O79297   6.471   1.487   4.999
26352WAT     H179298   6.437   1.441   4.917
26352WAT     H279299   6.394   1.508   5.059
26353WAT      O79300   0.624   2.373   8.553
26353WAT     H179301   0.703   2.337   8.503
26353WAT     H279302   0.587   2.301   8.612
26354WAT      O79303   5.349   2.382   0.994
26354WAT     H179304   5.442   2.380   0.957
26354WAT     H279305   5.292   2.315   0.945
26355WAT      O79306   3.530   5.316   9.294
26355WAT     H179307   3.590   5.275   9.362
26355WAT     H279308   3.460   5.251   9.266
26356WAT      O79309   0.550   7.673   9.071
26356WAT     H179310   0.630   7.666   9.131
26356WAT     H279311   0.522   7.769   9.064
26357WAT      O79312   8.900   5.719   5.747
26357WAT     H179313   8.938   5.746   5.836
26357WAT     H279314   8.803   5.743   5.744
26358WAT      O79315   1.281   6.309   9.531
26358WAT     H179316   1.279   6.321   9.630
26358WAT     H279317   1.365   6.348   9.494
26359WAT      O79318   2.745   4.252   1.754
26359WAT     H179319   2.826   4.231   1.699
26359WAT     H279320   2.677   4.179   1.741
26360WAT      O79321   9.812   1.728   8.784
26360WAT     H179322   9.719   1.707   8.755
26360WAT     H279323   9.847   1.655   8.842
26361WAT      O79324   4.408   4.206   9.739
26361WAT     H179325   4.484   4.265   9.767
26361WAT     H279326   4.361   4.172   9.821
26362WAT      O79327   2.091   5.603   3.675
26362WAT     H179328   2.007   5.650   3.702
26362WAT     H279329   2.154   5.669   3.633
26363WAT      O79330   5.948   0.350   4.583
26363WAT     H179331   5.865   0.394   4.618
26363WAT     H279332   5.997   0.415   4.525
26364WAT      O79333   9.152   7.449   9.264
26364WAT     H179334   9.203   7.399   9.194
26364WAT     H279335   9.096   7.386   9.317
26365WAT      O79336   3.188   6.020   9.067
26365WAT     H179337   3.244   5.943   9.096
26365WAT     H279338   3.190   6.028   8.968
26366WAT      O79339   7.540   2.390   5.639
26366WAT     H179340   7.545   2.331   5.720
26366WAT     H279341   7.445   2.400   5.610
26367WAT      O79342   8.681   4.198   4.907
26367WAT     H179343   8.644   4.280   4.863
26367WAT     H279344   8.779   4.212   4.924
26368WAT      O79345   8.928   6.279   8.851
26368WAT     H179346   8.915   6.362   8.906
26368WAT     H279347   9.025   6.253   8.852
26369WAT      O79348   8.310   3.394   4.582
26369WAT     H179349   8.314   3.300   4.548
26369WAT     H279350   8.362   3.454   4.521
26370WAT      O79351   2.673   5.529   3.267
26370WAT     H179352   2.709   5.441   3.234
26370WAT     H279353   2.619   5.571   3.194
26371WAT      O79354   2.588   2.623   7.112
26371WAT     H179355   2.657   2.696   7.107
26371WAT     H279356   2.626   2.540   7.072
26372WAT      O79357   9.284   7.289   4.478
26372WAT     H179358   9.351   7.276   4.405
26372WAT     H279359   9.193   7.295   4.439
26373WAT      O79360   6.478   2.901   0.830
26373WAT     H179361   6.537   2.932   0.904
26373WAT     H279362   6.404   2.967   0.816
26374WAT      O79363   9.000   3.595   2.337
26374WAT     H179364   9.004   3.567   2.433
26374WAT     H279365   8.956   3.523   2.284
26375WAT      O79366   2.530   0.574   4.819
26375WAT     H179367   2.531   0.603   4.914
26375WAT     H279368   2.557   0.478   4.813
26376WAT      O79369   6.680   9.578   5.443
26376WAT     H179370   6.738   9.518   5.388
26376WAT     H279371   6.646   9.527   5.523
26377WAT      O79372   5.027   5.815   5.096
26377WAT     H179373   5.106   5.874   5.113
26377WAT     H279374   4.943   5.867   5.109
26378WAT      O79375   3.287   6.118   1.089
26378WAT     H179376   3.377   6.148   1.122
26378WAT     H279377   3.216   6.174   1.132
26379WAT      O79378   4.013   7.440   3.929
26379WAT     H179379   3.941   7.422   3.862
26379WAT     H279380   3.999   7.530   3.970
26380WAT      O79381   4.206   3.507   5.556
26380WAT     H179382   4.298   3.513   5.592
26380WAT     H279383   4.197   3.567   5.476
26381WAT      O79384   0.173   4.715   2.907
26381WAT     H179385   0.084   4.731   2.865
26381WAT     H279386   0.218   4.637   2.864
26382WAT      O79387   0.320   7.831   7.327
26382WAT     H179388   0.230   7.840   7.371
26382WAT     H279389   0.374   7.913   7.345
26383WAT      O79390   3.502   1.892   2.749
26383WAT     H179391   3.526   1.919   2.842
26383WAT     H279392   3.406   1.912   2.732
26384WAT      O79393   5.033   7.310   5.566
26384WAT     H179394   5.003   7.399   5.531
26384WAT     H279395   5.003   7.300   5.661
26385WAT      O79396   5.897   6.351   1.832
26385WAT     H179397   5.908   6.413   1.910
26385WAT     H279398   5.824   6.286   1.851
26386WAT      O79399   1.358   0.275   8.120
26386WAT     H179400   1.269   0.243   8.086
26386WAT     H279401   1.408   0.198   8.159
26387WAT      O79402   5.681   3.906   7.088
26387WAT     H179403   5.672   3.830   7.023
26387WAT     H279404   5.776   3.912   7.119
26388WAT      O79405   3.864   4.502   7.230
26388WAT     H179406   3.838   4.429   7.166
26388WAT     H279407   3.784   4.531   7.283
26389WAT      O79408   7.681   5.719   3.300
26389WAT     H179409   7.607   5.775   3.265
26389WAT     H279410   7.649   5.667   3.380
26390WAT      O79411   5.848   1.935   7.686
26390WAT     H179412   5.844   2.034   7.689
26390WAT     H279413   5.944   1.905   7.690
26391WAT      O79414   5.421   6.572   4.374
26391WAT     H179415   5.356   6.574   4.298
26391WAT     H279416   5.382   6.624   4.451
26392WAT      O79417   9.218   2.340   7.473
26392WAT     H179418   9.298   2.371   7.524
26392WAT     H279419   9.199   2.404   7.398
26393WAT      O79420   0.567   6.533   2.485
26393WAT     H179421   0.572   6.633   2.482
26393WAT     H279422   0.526   6.499   2.400
26394WAT      O79423   4.820   1.597   4.800
26394WAT     H179424   4.780   1.549   4.722
26394WAT     H279425   4.769   1.574   4.883
26395WAT      O79426   2.249   5.489   0.573
26395WAT     H179427   2.207   5.538   0.497
26395WAT     H279428   2.348   5.487   0.561
26396WAT      O79429   8.087   4.061   2.345
26396WAT     H179430   8.026   4.017   2.410
26396WAT     H279431   8.079   4.161   2.354
26397WAT      O79432   3.221   2.868   2.697
26397WAT     H179433   3.162   2.796   2.731
26397WAT     H279434   3.218   2.946   2.760
26398WAT      O79435   7.537   3.030   9.637
26398WAT     H179436   7.619   3.012   9.582
26398WAT     H279437   7.520   3.129   9.639
26399WAT      O79438   3.633   2.482   2.169
26399WAT     H179439   3.594   2.395   2.198
26399WAT     H279440   3.732   2.481   2.183
26400WAT      O79441   1.727   1.664   9.062
26400WAT     H179442   1.699   1.571   9.037
26400WAT     H279443   1.665   1.730   9.018
26401WAT      O79444   2.482   7.329   0.722
26401WAT     H179445   2.522   7.316   0.812
26401WAT     H279446   2.439   7.419   0.717
26402WAT      O79447   9.010   0.338   1.180
26402WAT     H179448   8.993   0.427   1.137
26402WAT     H279449   9.109   0.319   1.178
26403WAT      O79450   0.584   1.458   8.054
26403WAT     H179451   0.645   1.384   8.079
26403WAT     H279452   0.611   1.496   7.965
26404WAT      O79453   6.388   4.048   4.328
26404WAT     H179454   6.291   4.044   4.354
26404WAT     H279455   6.443   4.010   4.402
26405WAT      O79456   1.714   6.997   4.311
26405WAT     H179457   1.733   7.092   4.336
26405WAT     H279458   1.709   6.989   4.212
26406WAT      O79459   0.254   2.179   6.667
26406WAT     H179460   0.306   2.094   6.677
26406WAT     H279461   0.156   2.160   6.678
26407WAT      O79462   8.511   3.587   4.417
26407WAT     H179463   8.608   3.597   4.441
26407WAT     H279464   8.479   3.672   4.374
26408WAT      O79465   9.329   4.769   6.584
26408WAT     H179466   9.331   4.802   6.490
26408WAT     H279467   9.252   4.811   6.633
26409WAT      O79468   2.298   3.185   2.052
26409WAT     H179469   2.353   3.265   2.076
26409WAT     H279470   2.263   3.195   1.959
26410WAT      O79471   3.541   1.446   7.039
26410WAT     H179472   3.502   1.395   6.962
26410WAT     H279473   3.596   1.521   7.005
26411WAT      O79474   3.151   3.252   3.524
26411WAT     H179475   3.115   3.201   3.446
26411WAT     H279476   3.213   3.323   3.492
26412WAT      O79477   8.624   0.385   7.230
26412WAT     H179478   8.525   0.387   7.215
26412WAT     H279479   8.643   0.351   7.322
26413WAT      O79480   0.267   1.399   7.080
26413WAT     H179481   0.218   1.361   7.002
26413WAT     H279482   0.234   1.358   7.165
26414WAT      O79483   0.322   0.280   5.038
26414WAT     H179484   0.291   0.368   5.075
26414WAT     H279485   0.284   0.267   4.947
26415WAT      O79486   3.139   7.794   6.502
26415WAT     H179487   3.079   7.788   6.423
26415WAT     H279488   3.234   7.797   6.471
26416WAT      O79489   2.435   4.450   3.820
26416WAT     H179490   2.372   4.446   3.743
26416WAT     H279491   2.529   4.434   3.787
26417WAT      O79492   9.143   1.377   3.001
26417WAT     H179493   9.166   1.471   2.976
26417WAT     H279494   9.105   1.376   3.094
26418WAT      O79495   4.667   7.071   3.950
26418WAT     H179496   4.573   7.038   3.940
26418WAT     H279497   4.706   7.036   4.036
26419WAT      O79498   9.336   7.368   5.274
26419WAT     H179499   9.269   7.400   5.207
26419WAT     H279500   9.422   7.417   5.261
26420WAT      O79501   4.269   2.529   8.862
26420WAT     H179502   4.220   2.556   8.779
26420WAT     H279503   4.218   2.561   8.942
26421WAT      O79504   4.319   4.898   2.459
26421WAT     H179505   4.397   4.904   2.522
26421WAT     H279506   4.294   4.802   2.446
26422WAT      O79507   1.996   5.700   5.952
26422WAT     H179508   1.944   5.616   5.968
26422WAT     H279509   2.070   5.707   6.018
26423WAT      O79510   9.079   2.771   8.504
26423WAT     H179511   8.985   2.767   8.469
26423WAT     H279512   9.080   2.825   8.588
26424WAT      O79513   9.696   5.096   8.800
26424WAT     H179514   9.692   5.015   8.742
26424WAT     H279515   9.734   5.172   8.747
26425WAT      O79516   7.145   4.369   2.396
26425WAT     H179517   7.147   4.282   2.445
26425WAT     H279518   7.101   4.357   2.307
26426WAT      O79519   1.881   9.499   5.879
26426WAT     H179520   1.921   9.529   5.965
26426WAT     H279521   1.800   9.555   5.858
26427WAT      O79522   4.992   6.672   6.393
26427WAT     H179523   5.022   6.576   6.395
26427WAT     H279524   4.930   6.689   6.469
26428WAT      O79525   1.649   1.304   0.153
26428WAT     H179526   1.640   1.266   0.061
26428WAT     H279527   1.741   1.341   0.166
26429WAT      O79528   0.309   5.278   5.975
26429WAT     H179529   0.352   5.232   6.053
26429WAT     H279530   0.376   5.290   5.902
26430WAT      O79531   1.129   1.139   8.755
26430WAT     H179532   1.085   1.049   8.759
26430WAT     H279533   1.164   1.155   8.663
26431WAT      O79534   0.820   5.056   7.666
26431WAT     H179535   0.785   5.120   7.734
26431WAT     H279536   0.897   5.097   7.617
26432WAT      O79537   0.689   2.205   7.307
26432WAT     H179538   0.646   2.142   7.372
26432WAT     H279539   0.695   2.162   7.217
26433WAT      O79540   5.993   6.265   1.557
26433WAT     H179541   5.940   6.318   1.622
26433WAT     H279542   6.067   6.217   1.604
26434WAT      O79543   9.708   4.266   9.655
26434WAT     H179544   9.613   4.236   9.641
26434WAT     H279545   9.755   4.270   9.568
26435WAT      O79546   0.077   5.429   4.718
26435WAT     H179547  -0.013   5.387   4.733
26435WAT     H279548   0.131   5.369   4.659
26436WAT      O79549   2.937   1.376   4.584
26436WAT     H179550   2.956   1.285   4.548
26436WAT     H279551   3.003   1.398   4.656
26437WAT      O79552   4.831   6.709   3.279
26437WAT     H179553   4.845   6.802   3.313
26437WAT     H279554   4.915   6.676   3.235
26438WAT      O79555   8.191   8.385   9.419
26438WAT     H179556   8.288   8.406   9.428
26438WAT     H279557   8.143   8.462   9.378
26439WAT      O79558   4.415   8.961   0.312
26439WAT     H179559   4.326   8.992   0.278
26439WAT     H279560   4.488   9.009   0.264
26440WAT      O79561   3.474   7.658   5.533
26440WAT     H179562   3.430   7.740   5.497
26440WAT     H279563   3.566   7.682   5.566
26441WAT      O79564   5.282   1.372   3.216
26441WAT     H179565   5.193   1.347   3.254
26441WAT     H279566   5.289   1.338   3.122
26442WAT      O79567   0.304   6.684   9.185
26442WAT     H179568   0.301   6.593   9.226
26442WAT     H279569   0.373   6.740   9.232
26443WAT      O79570   2.638   2.432   6.525
26443WAT     H179571   2.708   2.472   6.584
26443WAT     H279572   2.581   2.370   6.578
26444WAT      O79573   9.011   5.629   2.996
26444WAT     H179574   8.936   5.688   2.964
26444WAT     H279575   9.096   5.656   2.951
26445WAT      O79576   6.395   4.494   1.242
26445WAT     H179577   6.490   4.475   1.216
26445WAT     H279578   6.393   4.533   1.334
26446WAT      O79579   2.355   0.085   3.103
26446WAT     H179580   2.296   0.027   3.047
26446WAT     H279581   2.340   0.181   3.079
26447WAT      O79582   3.751   3.042   3.260
26447WAT     H179583   3.769   3.071   3.166
26447WAT     H279584   3.662   2.998   3.264
26448WAT      O79585   8.113   9.208   0.567
26448WAT     H179586   8.136   9.126   0.515
26448WAT     H279587   8.025   9.243   0.535
26449WAT      O79588   1.875   3.343   7.595
26449WAT     H179589   1.876   3.271   7.664
26449WAT     H279590   1.781   3.361   7.566
26450WAT      O79591   7.600   2.746   1.835
26450WAT     H179592   7.625   2.807   1.910
26450WAT     H279593   7.601   2.652   1.866
26451WAT      O79594   6.839   0.553   3.936
26451WAT     H179595   6.741   0.557   3.915
26451WAT     H279596   6.853   0.518   4.029
26452WAT      O79597   9.287   7.544   1.464
26452WAT     H179598   9.308   7.453   1.430
26452WAT     H279599   9.364   7.605   1.446
26453WAT      O79600   8.220   0.285   6.689
26453WAT     H179601   8.241   0.290   6.787
26453WAT     H279602   8.123   0.264   6.677
26454WAT      O79603   7.361   5.234   1.642
26454WAT     H179604   7.363   5.272   1.550
26454WAT     H279605   7.332   5.138   1.638
26455WAT      O79606   9.295   0.019   0.020
26455WAT     H179607   9.321   0.075  -0.058
26455WAT     H279608   9.256   0.078   0.091
26456WAT      O79609   8.843   1.084   0.589
26456WAT     H179610   8.747   1.073   0.613
26456WAT     H279611   8.893   1.000   0.610
26457WAT      O79612   8.072   8.352   6.419
26457WAT     H179613   7.988   8.326   6.372
26457WAT     H279614   8.120   8.270   6.449
26458WAT      O79615   6.588   5.169   7.556
26458WAT     H179616   6.494   5.134   7.553
26458WAT     H279617   6.608   5.202   7.648
26459WAT      O79618   9.809   2.962   7.352
26459WAT     H179619   9.827   3.045   7.299
26459WAT     H279620   9.894   2.910   7.364
26460WAT      O79621   4.764   0.889   2.104
26460WAT     H179622   4.811   0.888   2.015
26460WAT     H279623   4.832   0.897   2.177
26461WAT      O79624   4.166   6.553   6.392
26461WAT     H179625   4.076   6.568   6.432
26461WAT     H279626   4.225   6.631   6.412
26462WAT      O79627   5.654   6.733   3.978
26462WAT     H179628   5.702   6.809   4.022
26462WAT     H279629   5.619   6.671   4.047
26463WAT      O79630   6.334   6.061   0.567
26463WAT     H179631   6.272   6.051   0.644
26463WAT     H279632   6.421   6.099   0.598
26464WAT      O79633   8.788   4.360   7.459
26464WAT     H179634   8.703   4.309   7.459
26464WAT     H279635   8.770   4.455   7.433
26465WAT      O79636   5.354   5.953   7.155
26465WAT     H179637   5.383   6.044   7.183
26465WAT     H279638   5.256   5.953   7.136
26466WAT      O79639   8.008   3.866   5.187
26466WAT     H179640   7.977   3.903   5.275
26466WAT     H279641   8.094   3.816   5.201
26467WAT      O79642   5.811   5.377   1.969
26467WAT     H179643   5.880   5.386   1.897
26467WAT     H279644   5.822   5.289   2.015
26468WAT      O79645   9.428   3.322   3.403
26468WAT     H179646   9.416   3.285   3.311
26468WAT     H279647   9.493   3.397   3.400
26469WAT      O79648   8.977   6.464   5.541
26469WAT     H179649   8.891   6.417   5.522
26469WAT     H279650   8.958   6.554   5.579
26470WAT      O79651   6.548   4.239   6.721
26470WAT     H179652   6.521   4.149   6.756
26470WAT     H279653   6.647   4.250   6.729
26471WAT      O79654   2.715   5.396   4.478
26471WAT     H179655   2.700   5.297   4.473
26471WAT     H279656   2.706   5.435   4.386
26472WAT      O79657   7.932   9.095   1.560
26472WAT     H179658   8.023   9.053   1.558
26472WAT     H279659   7.940   9.192   1.541
26473WAT      O79660   8.192   4.425   8.975
26473WAT     H179661   8.198   4.357   9.048
26473WAT     H279662   8.162   4.381   8.891
26474WAT      O79663   7.600   8.334   0.735
26474WAT     H179664   7.560   8.275   0.805
26474WAT     H279665   7.658   8.279   0.675
26475WAT      O79666   9.537   8.122   1.979
26475WAT     H179667   9.593   8.164   2.051
26475WAT     H279668   9.443   8.154   1.988
26476WAT      O79669   6.934   6.807   3.590
26476WAT     H179670   6.949   6.903   3.568
26476WAT     H279671   6.936   6.795   3.689
26477WAT      O79672   9.700   6.788   8.429
26477WAT     H179673   9.608   6.790   8.469
26477WAT     H279674   9.768   6.787   8.502
26478WAT      O79675   1.773   9.776   9.680
26478WAT     H179676   1.744   9.745   9.770
26478WAT     H279677   1.723   9.860   9.657
26479WAT      O79678   3.752   1.861   7.670
26479WAT     H179679   3.743   1.959   7.648
26479WAT     H279680   3.699   1.840   7.752
26480WAT      O79681   1.836   3.353   2.037
26480WAT     H179682   1.901   3.299   1.982
26480WAT     H279683   1.884   3.430   2.077
26481WAT      O79684   1.785   7.301   2.806
26481WAT     H179685   1.871   7.325   2.761
26481WAT     H279686   1.715   7.369   2.784
26482WAT      O79687   3.568   6.304   6.131
26482WAT     H179688   3.662   6.284   6.105
26482WAT     H279689   3.536   6.384   6.081
26483WAT      O79690   4.143   0.072   0.352
26483WAT     H179691   4.090   0.137   0.299
26483WAT     H279692   4.196   0.120   0.422
26484WAT      O79693   0.670   6.895   7.282
26484WAT     H179694   0.597   6.862   7.221
26484WAT     H279695   0.660   6.851   7.372
26485WAT      O79696   1.664   4.013   8.646
26485WAT     H179697   1.736   4.013   8.577
26485WAT     H279698   1.599   3.940   8.627
26486WAT      O79699   6.948   3.249   1.959
26486WAT     H179700   6.869   3.187   1.965
26486WAT     H279701   6.915   3.343   1.946
26487WAT      O79702   1.593   4.716   7.873
26487WAT     H179703   1.564   4.736   7.966
26487WAT     H279704   1.685   4.751   7.858
26488WAT      O79705   6.044   2.280   2.662
26488WAT     H179706   6.106   2.208   2.629
26488WAT     H279707   6.072   2.368   2.623
26489WAT      O79708   5.654   2.524   3.501
26489WAT     H179709   5.732   2.583   3.522
26489WAT     H279710   5.603   2.505   3.585
26490WAT      O79711   1.542   9.793   7.935
26490WAT     H179712   1.609   9.724   7.963
26490WAT     H279713   1.576   9.843   7.855
26491WAT      O79714   9.426   7.296   9.593
26491WAT     H179715   9.485   7.285   9.673
26491WAT     H279716   9.331   7.305   9.623
26492WAT      O79717   2.748   4.820   8.344
26492WAT     H179718   2.826   4.883   8.342
26492WAT     H279719   2.778   4.730   8.313
26493WAT      O79720   7.706   1.359   3.644
26493WAT     H179721   7.784   1.313   3.686
26493WAT     H279722   7.710   1.457   3.665
26494WAT      O79723   9.836   3.331   6.525
26494WAT     H179724   9.857   3.409   6.583
26494WAT     H279725   9.841   3.359   6.429
26495WAT      O79726   4.242   1.957   9.662
26495WAT     H179727   4.185   2.020   9.714
26495WAT     H279728   4.300   1.906   9.725
26496WAT      O79729   8.595   2.716   3.360
26496WAT     H179730   8.649   2.780   3.306
26496WAT     H279731   8.502   2.712   3.324
26497WAT      O79732   5.237   6.415   2.618
26497WAT     H179733   5.274   6.480   2.552
26497WAT     H279734   5.194   6.339   2.570
26498WAT      O79735   5.988   0.943   4.199
26498WAT     H179736   6.000   0.846   4.222
26498WAT     H279737   6.042   0.964   4.117
26499WAT      O79738   9.331   8.890   2.356
26499WAT     H179739   9.285   8.869   2.442
26499WAT     H279740   9.370   8.806   2.317
26500WAT      O79741   1.030   1.609   2.708
26500WAT     H179742   1.087   1.632   2.786
26500WAT     H279743   1.074   1.537   2.654
26501WAT      O79744   4.937   4.432   1.867
26501WAT     H179745   4.981   4.483   1.941
26501WAT     H279746   4.991   4.442   1.783
26502WAT      O79747   6.197   5.758   2.184
26502WAT     H179748   6.121   5.695   2.167
26502WAT     H279749   6.205   5.775   2.282
26503WAT      O79750   4.325   6.030   3.519
26503WAT     H179751   4.390   5.968   3.563
26503WAT     H279752   4.262   6.065   3.588
26504WAT      O79753   6.931   4.873   2.855
26504WAT     H179754   6.999   4.850   2.925
26504WAT     H279755   6.975   4.876   2.765
26505WAT      O79756   7.293   3.950   8.636
26505WAT     H179757   7.197   3.926   8.643
26505WAT     H279758   7.305   4.048   8.657
26506WAT      O79759   8.233   5.322   7.534
26506WAT     H179760   8.255   5.241   7.479
26506WAT     H279761   8.139   5.351   7.515
26507WAT      O79762   2.566   2.106   4.765
26507WAT     H179763   2.655   2.067   4.791
26507WAT     H279764   2.552   2.192   4.813
26508WAT      O79765   8.450   8.372   3.954
26508WAT     H179766   8.462   8.469   3.974
26508WAT     H279767   8.417   8.326   4.036
26509WAT      O79768   6.819   1.582   1.177
26509WAT     H179769   6.897   1.642   1.160
26509WAT     H279770   6.740   1.636   1.204
26510WAT      O79771   5.890   3.417   2.605
26510WAT     H179772   5.791   3.424   2.598
26510WAT     H279773   5.924   3.486   2.668
26511WAT      O79774   6.113   8.108   1.844
26511WAT     H179775   6.208   8.079   1.851
26511WAT     H279776   6.080   8.136   1.934
26512WAT      O79777   1.903   9.164   8.217
26512WAT     H179778   1.973   9.113   8.166
26512WAT     H279779   1.897   9.128   8.310
26513WAT      O79780   9.253   6.839   1.298
26513WAT     H179781   9.167   6.889   1.292
26513WAT     H279782   9.242   6.749   1.257
26514WAT      O79783   1.213   2.647   3.878
26514WAT     H179784   1.129   2.674   3.830
26514WAT     H279785   1.206   2.671   3.974
26515WAT      O79786   5.171   2.687   1.727
26515WAT     H179787   5.230   2.769   1.728
26515WAT     H279788   5.115   2.688   1.644
26516WAT      O79789   3.630   2.951   3.800
26516WAT     H179790   3.530   2.953   3.797
26516WAT     H279791   3.666   3.021   3.738
26517WAT      O79792   6.821   4.115   6.794
26517WAT     H179793   6.863   4.036   6.750
26517WAT     H279794   6.889   4.189   6.803
26518WAT      O79795   6.186   5.766   6.989
26518WAT     H179796   6.223   5.824   6.917
26518WAT     H279797   6.100   5.725   6.959
26519WAT      O79798   3.558   3.912   5.297
26519WAT     H179799   3.558   3.886   5.201
26519WAT     H279800   3.469   3.949   5.323
26520WAT      O79801   8.985   0.258   2.431
26520WAT     H179802   8.991   0.314   2.513
26520WAT     H279803   8.895   0.271   2.388
26521WAT      O79804   3.471   8.312   0.096
26521WAT     H179805   3.447   8.406   0.122
26521WAT     H279806   3.565   8.311   0.061
26522WAT      O79807   7.114   4.917   3.751
26522WAT     H179808   7.030   4.880   3.710
26522WAT     H279809   7.193   4.890   3.696
26523WAT      O79810   3.322   4.719   4.930
26523WAT     H179811   3.269   4.687   4.852
26523WAT     H279812   3.419   4.704   4.913
26524WAT      O79813   4.044   3.449   2.863
26524WAT     H179814   4.020   3.427   2.768
26524WAT     H279815   3.961   3.468   2.915
26525WAT      O79816   8.170   4.149   8.521
26525WAT     H179817   8.220   4.143   8.434
26525WAT     H279818   8.094   4.085   8.521
26526WAT      O79819   7.456   2.524   5.101
26526WAT     H179820   7.516   2.601   5.124
26526WAT     H279821   7.387   2.514   5.172
26527WAT      O79822   1.410   2.716   8.950
26527WAT     H179823   1.384   2.813   8.947
26527WAT     H279824   1.332   2.662   8.981
26528WAT      O79825   1.614   8.509   1.719
26528WAT     H179826   1.622   8.608   1.707
26528WAT     H279827   1.579   8.468   1.635
26529WAT      O79828   3.953   5.123   8.334
26529WAT     H179829   4.026   5.189   8.353
26529WAT     H279830   3.989   5.048   8.280
26530WAT      O79831   1.958   5.945   4.631
26530WAT     H179832   2.036   5.894   4.595
26530WAT     H279833   1.992   6.026   4.681
26531WAT      O79834   3.365   3.647   3.290
26531WAT     H179835   3.322   3.734   3.264
26531WAT     H279836   3.362   3.584   3.212
26532WAT      O79837   8.096   4.303   7.627
26532WAT     H179838   8.082   4.400   7.612
26532WAT     H279839   8.015   4.252   7.596
26533WAT      O79840   0.310   7.030   3.950
26533WAT     H179841   0.280   6.985   3.866
26533WAT     H279842   0.404   7.064   3.938
26534WAT      O79843   6.316   8.378   7.501
26534WAT     H179844   6.320   8.343   7.407
26534WAT     H279845   6.223   8.405   7.522
26535WAT      O79846   3.233   4.987   4.637
26535WAT     H179847   3.229   5.076   4.592
26535WAT     H279848   3.208   4.997   4.734
26536WAT      O79849   0.135   0.571   2.880
26536WAT     H179850   0.121   0.482   2.923
26536WAT     H279851   0.228   0.578   2.844
26537WAT      O79852   8.576   0.840   5.004
26537WAT     H179853   8.561   0.756   5.057
26537WAT     H279854   8.491   0.892   5.001
26538WAT      O79855   7.698   1.678   5.305
26538WAT     H179856   7.642   1.602   5.337
26538WAT     H279857   7.731   1.731   5.384
26539WAT      O79858   2.147   7.627   1.169
26539WAT     H179859   2.235   7.662   1.137
26539WAT     H279860   2.102   7.577   1.095
26540WAT      O79861   9.178   9.174   3.815
26540WAT     H179862   9.105   9.241   3.830
26540WAT     H279863   9.232   9.201   3.735
26541WAT      O79864   9.629   8.378   2.561
26541WAT     H179865   9.585   8.328   2.486
26541WAT     H279866   9.703   8.322   2.600
26542WAT      O79867   2.067   8.678   5.346
26542WAT     H179868   2.067   8.578   5.348
26542WAT     H279869   2.108   8.709   5.260
26543WAT      O79870   7.805   5.951   0.733
26543WAT     H179871   7.761   6.032   0.772
26543WAT     H279872   7.737   5.880   0.718
26544WAT      O79873   7.877   6.700   8.902
26544WAT     H179874   7.951   6.700   8.835
26544WAT     H279875   7.908   6.654   8.986
26545WAT      O79876   5.065   9.299   6.295
26545WAT     H179877   5.106   9.360   6.227
26545WAT     H279878   5.137   9.245   6.338
26546WAT      O79879   6.065   3.671   3.437
26546WAT     H179880   6.053   3.690   3.339
26546WAT     H279881   5.988   3.708   3.488
26547WAT      O79882   2.415   5.986   7.466
26547WAT     H179883   2.433   5.945   7.555
26547WAT     H279884   2.403   6.085   7.476
26548WAT      O79885   4.401   6.505   6.659
26548WAT     H179886   4.409   6.406   6.674
26548WAT     H279887   4.308   6.535   6.683
26549WAT      O79888   8.977   3.070   3.057
26549WAT     H179889   9.075   3.053   3.052
26549WAT     H279890   8.961   3.165   3.085
26550WAT      O79891   3.849   3.258   3.440
26550WAT     H179892   3.939   3.238   3.401
26550WAT     H279893   3.778   3.217   3.383
26551WAT      O79894   5.449   5.100   4.832
26551WAT     H179895   5.484   5.094   4.925
26551WAT     H279896   5.501   5.169   4.781
26552WAT      O79897   1.636   0.799   3.096
26552WAT     H179898   1.694   0.721   3.073
26552WAT     H279899   1.589   0.782   3.182
26553WAT      O79900   8.085   7.212   7.651
26553WAT     H179901   8.141   7.154   7.711
26553WAT     H279902   8.084   7.173   7.559
26554WAT      O79903   6.051   4.097   6.989
26554WAT     H179904   6.133   4.149   7.013
26554WAT     H279905   6.034   4.026   7.057
26555WAT      O79906   4.832   5.209   0.940
26555WAT     H179907   4.916   5.242   0.981
26555WAT     H279908   4.793   5.281   0.882
26556WAT      O79909   3.106   2.117   6.847
26556WAT     H179910   3.104   2.094   6.750
26556WAT     H279911   3.201   2.128   6.877
26557WAT      O79912   4.496   3.066   2.625
26557WAT     H179913   4.406   3.028   2.648
26557WAT     H279914   4.485   3.148   2.570
26558WAT      O79915   3.938   4.308   8.934
26558WAT     H179916   3.854   4.253   8.927
26558WAT     H279917   3.998   4.267   9.003
26559WAT      O79918   5.629   3.560   7.528
26559WAT     H179919   5.680   3.632   7.480
26559WAT     H279920   5.693   3.509   7.586
26560WAT      O79921   7.151   8.441   4.954
26560WAT     H179922   7.055   8.454   4.979
26560WAT     H279923   7.162   8.450   4.855
26561WAT      O79924   0.690   7.216   9.416
26561WAT     H179925   0.723   7.192   9.325
26561WAT     H279926   0.676   7.133   9.469
26562WAT      O79927   7.525   9.418   0.688
26562WAT     H179928   7.534   9.474   0.770
26562WAT     H279929   7.546   9.322   0.710
26563WAT      O79930   6.940   1.699   5.532
26563WAT     H179931   6.980   1.784   5.566
26563WAT     H279932   6.996   1.663   5.457
26564WAT      O79933   0.735   4.678   8.434
26564WAT     H179934   0.709   4.643   8.524
26564WAT     H279935   0.835   4.682   8.427
26565WAT      O79936   1.274   3.778   4.208
26565WAT     H179937   1.322   3.842   4.269
26565WAT     H279938   1.199   3.735   4.259
26566WAT      O79939   2.189   5.472   3.918
26566WAT     H179940   2.116   5.479   3.986
26566WAT     H279941   2.162   5.522   3.835
26567WAT      O79942   2.643   2.414   9.172
26567WAT     H179943   2.664   2.498   9.121
26567WAT     H279944   2.708   2.404   9.247
26568WAT      O79945   1.970   6.981   1.221
26568WAT     H179946   1.912   6.986   1.302
26568WAT     H279947   2.005   6.888   1.210
26569WAT      O79948   5.864   2.432   0.904
26569WAT     H179949   5.904   2.428   0.813
26569WAT     H279950   5.872   2.525   0.940
26570WAT      O79951   1.166   9.499   1.336
26570WAT     H179952   1.097   9.558   1.377
26570WAT     H279953   1.177   9.417   1.392
26571WAT      O79954   5.300   3.420   8.697
26571WAT     H179955   5.253   3.352   8.754
26571WAT     H279956   5.395   3.394   8.685
26572WAT      O79957   3.343   7.938   8.411
26572WAT     H179958   3.396   8.006   8.462
26572WAT     H279959   3.247   7.943   8.438
26573WAT      O79960   4.175   0.857   2.755
26573WAT     H179961   4.259   0.824   2.799
26573WAT     H279962   4.113   0.779   2.739
26574WAT      O79963   7.177   1.671   3.430
26574WAT     H179964   7.263   1.638   3.392
26574WAT     H279965   7.119   1.592   3.454
26575WAT      O79966   8.525   3.090   8.297
26575WAT     H179967   8.506   3.089   8.395
26575WAT     H279968   8.442   3.068   8.246
26576WAT      O79969   9.451   1.976   8.216
26576WAT     H179970   9.488   2.049   8.273
26576WAT     H279971   9.462   2.000   8.120
26577WAT      O79972   6.294   4.927   3.130
26577WAT     H179973   6.386   4.950   3.162
26577WAT     H279974   6.278   4.969   3.041
26578WAT      O79975   1.392   2.900   0.380
26578WAT     H179976   1.487   2.870   0.392
26578WAT     H279977   1.336   2.823   0.351
26579WAT      O79978   7.799   3.160   5.834
26579WAT     H179979   7.825   3.070   5.869
26579WAT     H279980   7.701   3.161   5.814
26580WAT      O79981   2.754   2.126   8.831
26580WAT     H179982   2.731   2.220   8.806
26580WAT     H279983   2.847   2.105   8.802
26581WAT      O79984   5.683   2.650   1.167
26581WAT     H179985   5.775   2.624   1.193
26581WAT     H279986   5.618   2.580   1.197
26582WAT      O79987   7.363   0.953   9.220
26582WAT     H179988   7.279   0.912   9.256
26582WAT     H279989   7.361   0.951   9.120
26583WAT      O79990   4.664   0.231   9.241
26583WAT     H179991   4.685   0.190   9.330
26583WAT     H279992   4.690   0.168   9.169
26584WAT      O79993   7.261   8.093   2.486
26584WAT     H179994   7.290   8.185   2.460
26584WAT     H279995   7.301   8.070   2.575
26585WAT      O79996   0.886   7.043   3.717
26585WAT     H179997   0.939   6.975   3.768
26585WAT     H279998   0.831   6.997   3.648
26586WAT      O79999   6.599   2.306   4.203
26586WAT     H180000   6.695   2.288   4.180
26586WAT     H280001   6.540   2.267   4.133
26587WAT      O80002   3.127   8.605   7.678
26587WAT     H180003   3.219   8.631   7.648
26587WAT     H280004   3.122   8.506   7.688
26588WAT      O80005   2.270   9.793   7.148
26588WAT     H180006   2.333   9.870   7.141
26588WAT     H280007   2.317   9.716   7.194
26589WAT      O80008   0.275   0.188   1.567
26589WAT     H180009   0.190   0.143   1.595
26589WAT     H280010   0.320   0.133   1.497
26590WAT      O80011   5.355   2.671   4.826
26590WAT     H180012   5.399   2.708   4.745
26590WAT     H280013   5.260   2.649   4.806
26591WAT      O80014   0.469   7.100   7.270
26591WAT     H180015   0.526   7.026   7.234
26591WAT     H280016   0.374   7.069   7.277
26592WAT      O80017   7.862   0.107   5.263
26592WAT     H180018   7.880   0.153   5.350
26592WAT     H280019   7.797   0.162   5.210
26593WAT      O80020   3.312   5.876   3.823
26593WAT     H180021   3.358   5.961   3.796
26593WAT     H280022   3.354   5.840   3.906
26594WAT      O80023   3.358   7.832   1.394
26594WAT     H180024   3.277   7.865   1.347
26594WAT     H280025   3.427   7.906   1.397
26595WAT      O80026   8.543   7.847   8.756
26595WAT     H180027   8.605   7.918   8.790
26595WAT     H280028   8.504   7.797   8.833
26596WAT      O80029   9.432   4.037   6.101
26596WAT     H180030   9.441   4.044   6.201
26596WAT     H280031   9.467   4.120   6.059
26597WAT      O80032   4.301   1.961   8.141
26597WAT     H180033   4.203   1.982   8.131
26597WAT     H280034   4.349   1.988   8.058
26598WAT      O80035   3.436   0.362   2.916
26598WAT     H180036   3.354   0.415   2.940
26598WAT     H280037   3.454   0.295   2.988
26599WAT      O80038   3.916   5.657   2.942
26599WAT     H180039   3.907   5.757   2.945
26599WAT     H280040   4.000   5.630   2.990
26600WAT      O80041   4.090   9.144   9.137
26600WAT     H180042   4.049   9.232   9.160
26600WAT     H280043   4.181   9.138   9.177
26601WAT      O80044   9.559   5.869   3.387
26601WAT     H180045   9.609   5.948   3.422
26601WAT     H280046   9.560   5.795   3.455
26602WAT      O80047   9.425   1.461   2.127
26602WAT     H180048   9.470   1.388   2.076
26602WAT     H280049   9.485   1.492   2.201
26603WAT      O80050   8.539   8.082   5.179
26603WAT     H180051   8.447   8.081   5.218
26603WAT     H280052   8.572   7.988   5.169
26604WAT      O80053   1.330   4.160   6.377
26604WAT     H180054   1.426   4.140   6.356
26604WAT     H280055   1.289   4.207   6.299
26605WAT      O80056   2.384   2.801   8.912
26605WAT     H180057   2.402   2.775   8.817
26605WAT     H280058   2.459   2.771   8.970
26606WAT      O80059   9.386   0.435   5.170
26606WAT     H180060   9.465   0.476   5.125
26606WAT     H280061   9.320   0.506   5.192
26607WAT      O80062   0.832   3.121   5.961
26607WAT     H180063   0.889   3.097   6.040
26607WAT     H280064   0.890   3.161   5.889
26608WAT      O80065   8.782   0.661   8.208
26608WAT     H180066   8.833   0.731   8.258
26608WAT     H280067   8.685   0.686   8.206
26609WAT      O80068   7.794   1.450   8.540
26609WAT     H180069   7.747   1.371   8.580
26609WAT     H280070   7.860   1.486   8.605
26610WAT      O80071   4.828   6.376   2.345
26610WAT     H180072   4.852   6.472   2.332
26610WAT     H280073   4.765   6.367   2.423
26611WAT      O80074   4.424   4.566   5.182
26611WAT     H180075   4.334   4.579   5.140
26611WAT     H280076   4.467   4.655   5.196
26612WAT      O80077   8.078   7.068   5.351
26612WAT     H180078   7.997   7.084   5.294
26612WAT     H280079   8.054   7.007   5.427
26613WAT      O80080   2.605   7.540   6.037
26613WAT     H180081   2.675   7.581   5.979
26613WAT     H280082   2.547   7.480   5.982
26614WAT      O80083   8.920   2.441   6.996
26614WAT     H180084   8.821   2.429   6.999
26614WAT     H280085   8.956   2.399   6.912
26615WAT      O80086   6.261   5.581   5.188
26615WAT     H180087   6.357   5.599   5.207
26615WAT     H280088   6.235   5.493   5.227
26616WAT      O80089   8.050   7.354   6.953
26616WAT     H180090   7.992   7.345   7.033
26616WAT     H280091   8.022   7.288   6.883
26617WAT      O80092   6.735   6.689   3.843
26617WAT     H180093   6.677   6.755   3.891
26617WAT     H280094   6.829   6.696   3.877
26618WAT      O80095   9.613   5.030   0.271
26618WAT     H180096   9.632   5.105   0.207
26618WAT     H280097   9.569   4.955   0.223
26619WAT      O80098   3.598   4.653   0.841
26619WAT     H180099   3.658   4.638   0.763
26619WAT     H280100   3.530   4.723   0.818
26620WAT      O80101   0.378   7.830   3.961
26620WAT     H180102   0.460   7.872   3.923
26620WAT     H280103   0.384   7.730   3.949
26621WAT      O80104   8.896   6.502   7.927
26621WAT     H180105   8.958   6.437   7.883
26621WAT     H280106   8.824   6.451   7.975
26622WAT      O80107   0.253   8.056   0.197
26622WAT     H180108   0.209   7.968   0.183
26622WAT     H280109   0.236   8.115   0.119
26623WAT      O80110   7.614   8.981   9.169
26623WAT     H180111   7.537   8.939   9.121
26623WAT     H280112   7.683   8.910   9.188
26624WAT      O80113   0.010   5.068   9.242
26624WAT     H180114  -0.050   5.114   9.176
26624WAT     H280115  -0.022   5.087   9.335
26625WAT      O80116   1.687   0.670   5.514
26625WAT     H180117   1.733   0.672   5.603
26625WAT     H280118   1.634   0.755   5.502
26626WAT      O80119   6.139   0.144   9.114
26626WAT     H180120   6.221   0.184   9.156
26626WAT     H280121   6.166   0.091   9.034
26627WAT      O80122   1.329   8.738   1.315
26627WAT     H180123   1.296   8.648   1.342
26627WAT     H280124   1.253   8.802   1.309
26628WAT      O80125   3.098   1.811   4.644
26628WAT     H180126   3.080   1.899   4.688
26628WAT     H280127   3.184   1.817   4.594
26629WAT      O80128   1.930   6.882   1.901
26629WAT     H180129   1.979   6.841   1.824
26629WAT     H280130   1.957   6.977   1.911
26630WAT      O80131   1.037   0.041   9.411
26630WAT     H180132   0.964   0.109   9.422
26630WAT     H280133   1.040  -0.018   9.491
26631WAT      O80134   1.913   4.412   0.985
26631WAT     H180135   1.944   4.473   1.057
26631WAT     H280136   1.848   4.460   0.926
26632WAT      O80137   3.517   5.448   7.187
26632WAT     H180138   3.580   5.525   7.194
26632WAT     H280139   3.537   5.382   7.260
26633WAT      O80140   0.023   0.582   6.390
26633WAT     H180141   0.038   0.670   6.346
26633WAT     H280142  -0.056   0.588   6.452
26634WAT      O80143   6.504   0.137   3.863
26634WAT     H180144   6.563   0.182   3.796
26634WAT     H280145   6.495   0.040   3.838
26635WAT      O80146   1.505   9.531   6.493
26635WAT     H180147   1.472   9.445   6.531
26635WAT     H280148   1.598   9.548   6.525
26636WAT      O80149   8.734   3.117   3.426
26636WAT     H180150   8.706   3.084   3.517
26636WAT     H280151   8.720   3.216   3.421
26637WAT      O80152   6.984   3.915   6.681
26637WAT     H180153   7.082   3.921   6.665
26637WAT     H280154   6.957   3.819   6.684
26638WAT      O80155   1.580   6.261   0.393
26638WAT     H180156   1.621   6.350   0.416
26638WAT     H280157   1.491   6.254   0.437
26639WAT      O80158   8.057   5.199   6.956
26639WAT     H180159   7.991   5.255   6.906
26639WAT     H280160   8.091   5.126   6.896
26640WAT      O80161   0.458   0.568   6.327
26640WAT     H180162   0.465   0.637   6.255
26640WAT     H280163   0.450   0.614   6.416
26641WAT      O80164   5.551   0.550   2.075
26641WAT     H180165   5.548   0.635   2.023
26641WAT     H280166   5.462   0.504   2.069
26642WAT      O80167   7.332   4.519   9.242
26642WAT     H180168   7.267   4.587   9.209
26642WAT     H280169   7.424   4.558   9.243
26643WAT      O80170   6.549   2.115   6.361
26643WAT     H180171   6.571   2.169   6.442
26643WAT     H280172   6.454   2.087   6.364
26644WAT      O80173   9.789   6.668   2.813
26644WAT     H180174   9.835   6.591   2.768
26644WAT     H280175   9.857   6.739   2.834
26645WAT      O80176   2.053   8.249   6.758
26645WAT     H180177   1.957   8.220   6.762
26645WAT     H280178   2.112   8.174   6.786
26646WAT      O80179   1.089   9.697   9.215
26646WAT     H180180   1.076   9.751   9.298
26646WAT     H280181   1.106   9.758   9.137
26647WAT      O80182   6.064   7.056   1.718
26647WAT     H180183   6.071   6.959   1.741
26647WAT     H280184   5.983   7.095   1.761
26648WAT      O80185   2.989   5.336   1.157
26648WAT     H180186   2.913   5.343   1.221
26648WAT     H280187   2.954   5.315   1.065
26649WAT      O80188   0.265   1.190   5.979
26649WAT     H180189   0.335   1.228   5.918
26649WAT     H280190   0.180   1.174   5.927
26650WAT      O80191   4.494   2.914   7.277
26650WAT     H180192   4.396   2.931   7.286
26650WAT     H280193   4.509   2.824   7.236
26651WAT      O80194   3.192   2.421   8.568
26651WAT     H180195   3.291   2.434   8.568
26651WAT     H280196   3.146   2.509   8.561
26652WAT      O80197   3.088   2.833   4.972
26652WAT     H180198   3.153   2.834   5.048
26652WAT     H280199   3.102   2.914   4.915
26653WAT      O80200   6.593   8.691   3.137
26653WAT     H180201   6.670   8.643   3.180
26653WAT     H280202   6.611   8.702   3.039
26654WAT      O80203   4.072   5.845   4.426
26654WAT     H180204   4.171   5.828   4.418
26654WAT     H280205   4.025   5.804   4.348
26655WAT      O80206   7.476   9.773   7.009
26655WAT     H180207   7.526   9.843   7.058
26655WAT     H280208   7.501   9.683   7.045
26656WAT      O80209   8.308   9.001   3.105
26656WAT     H180210   8.212   9.010   3.080
26656WAT     H280211   8.335   9.077   3.164
26657WAT      O80212   2.454   1.480   7.083
26657WAT     H180213   2.359   1.493   7.054
26657WAT     H280214   2.507   1.562   7.060
26658WAT      O80215   4.218   2.094   6.184
26658WAT     H180216   4.143   2.112   6.119
26658WAT     H280217   4.184   2.037   6.259
26659WAT      O80218   8.100   1.470   3.397
26659WAT     H180219   8.031   1.523   3.348
26659WAT     H280220   8.061   1.436   3.483
26660WAT      O80221   9.574   7.582   7.590
26660WAT     H180222   9.535   7.503   7.639
26660WAT     H280223   9.509   7.658   7.592
26661WAT      O80224   6.998   4.426   5.236
26661WAT     H180225   6.977   4.516   5.276
26661WAT     H280226   7.019   4.438   5.139
26662WAT      O80227   2.945   2.606   3.122
26662WAT     H180228   3.036   2.569   3.104
26662WAT     H280229   2.880   2.531   3.131
26663WAT      O80230   7.624   2.775   2.222
26663WAT     H180231   7.681   2.824   2.157
26663WAT     H280232   7.560   2.838   2.265
26664WAT      O80233   4.579   6.458   3.582
26664WAT     H180234   4.647   6.531   3.587
26664WAT     H280235   4.625   6.370   3.573
26665WAT      O80236   2.739   0.469   3.737
26665WAT     H180237   2.710   0.506   3.825
26665WAT     H280238   2.818   0.410   3.751
26666WAT      O80239   9.699   9.052   8.663
26666WAT     H180240   9.645   8.970   8.642
26666WAT     H280241   9.752   9.037   8.746
26667WAT      O80242   4.509   1.694   9.442
26667WAT     H180243   4.606   1.714   9.457
26667WAT     H280244   4.463   1.687   9.530
26668WAT      O80245   1.463   3.887   4.437
26668WAT     H180246   1.560   3.909   4.443
26668WAT     H280247   1.408   3.967   4.463
26669WAT      O80248   5.255   2.004   2.295
26669WAT     H180249   5.336   2.062   2.309
26669WAT     H280250   5.178   2.061   2.269
26670WAT      O80251   3.841   5.126   2.642
26670WAT     H180252   3.752   5.141   2.599
26670WAT     H280253   3.874   5.034   2.620
26671WAT      O80254   1.637   2.460   7.022
26671WAT     H180255   1.685   2.374   7.041
26671WAT     H280256   1.694   2.516   6.962
26672WAT      O80257   6.589   6.423   4.604
26672WAT     H180258   6.578   6.335   4.652
26672WAT     H280259   6.636   6.488   4.664
26673WAT      O80260   2.659   9.142   6.158
26673WAT     H180261   2.578   9.195   6.132
26673WAT     H280262   2.632   9.071   6.224
26674WAT      O80263   8.322   1.318   6.169
26674WAT     H180264   8.338   1.221   6.153
26674WAT     H280265   8.256   1.329   6.243
26675WAT      O80266   3.389   3.593   0.755
26675WAT     H180267   3.478   3.557   0.784
26675WAT     H280268   3.325   3.590   0.831
26676WAT      O80269   3.670   0.882   9.259
26676WAT     H180270   3.590   0.835   9.222
26676WAT     H280271   3.723   0.922   9.184
26677WAT      O80272   0.169   5.299   9.019
26677WAT     H180273   0.222   5.384   9.021
26677WAT     H280274   0.072   5.320   9.029
26678WAT      O80275   3.462   8.180   7.960
26678WAT     H180276   3.428   8.243   7.890
26678WAT     H280277   3.384   8.137   8.007
26679WAT      O80278   9.301   7.747   0.375
26679WAT     H180279   9.263   7.825   0.324
26679WAT     H280280   9.383   7.776   0.424
26680WAT      O80281   3.857   7.422   2.439
26680WAT     H180282   3.871   7.376   2.350
26680WAT     H280283   3.782   7.377   2.487
26681WAT      O80284   6.273   7.356   8.022
26681WAT     H180285   6.333   7.348   8.102
26681WAT     H280286   6.324   7.397   7.946
26682WAT      O80287   5.957   7.700   4.255
26682WAT     H180288   5.868   7.722   4.214
26682WAT     H280289   6.023   7.771   4.230
26683WAT      O80290   4.032   8.390   4.489
26683WAT     H180291   3.991   8.318   4.433
26683WAT     H280292   4.054   8.469   4.430
26684WAT      O80293   8.111   2.588   6.472
26684WAT     H180294   8.097   2.552   6.564
26684WAT     H280295   8.056   2.671   6.460
26685WAT      O80296   3.905   6.816   2.776
26685WAT     H180297   3.988   6.869   2.794
26685WAT     H280298   3.873   6.835   2.683
26686WAT      O80299   1.584   6.093   5.351
26686WAT     H180300   1.618   6.015   5.405
26686WAT     H280301   1.505   6.064   5.297
26687WAT      O80302   6.327   3.467   4.007
26687WAT     H180303   6.268   3.541   3.974
26687WAT     H280304   6.278   3.413   4.075
26688WAT      O80305   9.719   2.662   9.017
26688WAT     H180306   9.793   2.638   8.954
26688WAT     H280307   9.745   2.744   9.068
26689WAT      O80308   7.283   5.723   5.276
26689WAT     H180309   7.356   5.765   5.221
26689WAT     H280310   7.242   5.793   5.336
26690WAT      O80311   2.337   6.898   4.534
26690WAT     H180312   2.424   6.916   4.488
26690WAT     H280313   2.330   6.800   4.554
26691WAT      O80314   5.832   1.584   9.222
26691WAT     H180315   5.788   1.638   9.293
26691WAT     H280316   5.795   1.491   9.224
26692WAT      O80317   3.545   7.398   8.950
26692WAT     H180318   3.452   7.430   8.971
26692WAT     H280319   3.582   7.452   8.874
26693WAT      O80320   2.756   1.360   9.478
26693WAT     H180321   2.708   1.302   9.412
26693WAT     H280322   2.849   1.326   9.490
26694WAT      O80323   5.186   0.343   7.973
26694WAT     H180324   5.181   0.443   7.962
26694WAT     H280325   5.094   0.305   7.973
26695WAT      O80326   6.555   1.455   0.834
26695WAT     H180327   6.576   1.397   0.755
26695WAT     H280328   6.463   1.493   0.824
26696WAT      O80329   2.563   1.649   0.974
26696WAT     H180330   2.505   1.576   0.938
26696WAT     H280331   2.549   1.732   0.919
26697WAT      O80332   1.804   2.946   5.397
26697WAT     H180333   1.718   2.966   5.445
26697WAT     H280334   1.795   2.861   5.346
26698WAT      O80335   8.618   5.389   5.743
26698WAT     H180336   8.674   5.375   5.661
26698WAT     H280337   8.675   5.429   5.815
26699WAT      O80338   5.971   9.692   0.188
26699WAT     H180339   5.907   9.645   0.248
26699WAT     H280340   6.007   9.773   0.235
26700WAT      O80341   1.743   0.327   5.395
26700WAT     H180342   1.665   0.376   5.358
26700WAT     H280343   1.714   0.236   5.427
26701WAT      O80344   7.460   7.696   3.543
26701WAT     H180345   7.514   7.630   3.595
26701WAT     H280346   7.383   7.650   3.499
26702WAT      O80347   3.216   8.718   4.734
26702WAT     H180348   3.119   8.692   4.735
26702WAT     H280349   3.239   8.763   4.820
26703WAT      O80350   7.898   5.404   9.843
26703WAT     H180351   7.837   5.436   9.771
26703WAT     H280352   7.889   5.462   9.924
26704WAT      O80353   2.192   4.098   5.137
26704WAT     H180354   2.107   4.151   5.139
26704WAT     H280355   2.210   4.066   5.044
26705WAT      O80356   4.384   8.367   8.591
26705WAT     H180357   4.333   8.411   8.518
26705WAT     H280358   4.403   8.272   8.567
26706WAT      O80359   5.855   9.685   3.312
26706WAT     H180360   5.876   9.781   3.328
26706WAT     H280361   5.914   9.628   3.370
26707WAT      O80362   0.214   2.868   4.685
26707WAT     H180363   0.271   2.934   4.733
26707WAT     H280364   0.235   2.776   4.717
26708WAT      O80365   4.748   6.043   1.513
26708WAT     H180366   4.772   6.138   1.494
26708WAT     H280367   4.800   5.983   1.452
26709WAT      O80368   0.074   9.619   9.467
26709WAT     H180369   0.044   9.605   9.373
26709WAT     H280370   0.023   9.558   9.528
26710WAT      O80371   7.108   2.576   3.882
26710WAT     H180372   7.143   2.642   3.947
26710WAT     H280373   7.157   2.584   3.795
26711WAT      O80374   7.350   9.632   2.147
26711WAT     H180375   7.416   9.708   2.154
26711WAT     H280376   7.359   9.589   2.057
26712WAT      O80377   1.566   2.155   8.515
26712WAT     H180378   1.628   2.137   8.592
26712WAT     H280379   1.570   2.080   8.450
26713WAT      O80380   8.197   9.112   8.872
26713WAT     H180381   8.202   9.035   8.935
26713WAT     H280382   8.103   9.144   8.865
26714WAT      O80383   5.595   6.205   8.912
26714WAT     H180384   5.647   6.137   8.861
26714WAT     H280385   5.555   6.163   8.993
26715WAT      O80386   8.888   5.123   4.642
26715WAT     H180387   8.904   5.057   4.715
26715WAT     H280388   8.938   5.094   4.560
26716WAT      O80389   7.887   8.016   1.130
26716WAT     H180390   7.964   7.981   1.076
26716WAT     H280391   7.831   7.939   1.161
26717WAT      O80392   5.241   0.090   0.058
26717WAT     H180393   5.230   0.175   0.008
26717WAT     H280394   5.203   0.015   0.005
26718WAT      O80395   8.550   3.475   6.917
26718WAT     H180396   8.467   3.451   6.967
26718WAT     H280397   8.629   3.434   6.963
26719WAT      O80398   5.898   7.674   6.259
26719WAT     H180399   5.834   7.598   6.270
26719WAT     H280400   5.930   7.678   6.164
26720WAT      O80401   3.228   7.406   6.610
26720WAT     H180402   3.241   7.446   6.519
26720WAT     H280403   3.275   7.462   6.678
26721WAT      O80404   0.740   1.470   3.580
26721WAT     H180405   0.791   1.504   3.659
26721WAT     H280406   0.777   1.382   3.551
26722WAT      O80407   4.882   8.210   8.432
26722WAT     H180408   4.943   8.227   8.354
26722WAT     H280409   4.922   8.139   8.490
26723WAT      O80410   3.088   1.886   7.125
26723WAT     H180411   3.001   1.931   7.149
26723WAT     H280412   3.069   1.802   7.074
26724WAT      O80413   7.070   9.820   3.049
26724WAT     H180414   7.090   9.855   2.958
26724WAT     H280415   7.145   9.760   3.079
26725WAT      O80416   8.712   7.388   5.315
26725WAT     H180417   8.732   7.366   5.411
26725WAT     H280418   8.617   7.364   5.294
26726WAT      O80419   7.888   3.321   2.338
26726WAT     H180420   7.934   3.408   2.323
26726WAT     H280421   7.800   3.337   2.383
26727WAT      O80422   8.670   8.996   7.163
26727WAT     H180423   8.743   9.057   7.133
26727WAT     H280424   8.610   8.976   7.086
26728WAT      O80425   2.424   9.543   1.246
26728WAT     H180426   2.522   9.541   1.229
26728WAT     H280427   2.399   9.467   1.306
26729WAT      O80428   1.504   6.551   3.171
26729WAT     H180429   1.513   6.620   3.243
26729WAT     H280430   1.561   6.472   3.194
26730WAT      O80431   3.768   3.574   1.525
26730WAT     H180432   3.864   3.594   1.510
26730WAT     H280433   3.752   3.476   1.512
26731WAT      O80434   3.511   7.189   1.227
26731WAT     H180435   3.534   7.276   1.182
26731WAT     H280436   3.583   7.122   1.209
26732WAT      O80437   8.111   8.630   7.508
26732WAT     H180438   8.173   8.644   7.431
26732WAT     H280439   8.100   8.717   7.558
26733WAT      O80440   5.583   2.244   1.653
26733WAT     H180441   5.634   2.159   1.641
26733WAT     H280442   5.550   2.249   1.747
26734WAT      O80443   8.096   6.139   3.250
26734WAT     H180444   8.078   6.228   3.291
26734WAT     H280445   8.019   6.078   3.268
26735WAT      O80446   7.346   2.348   1.805
26735WAT     H180447   7.412   2.397   1.864
26735WAT     H280448   7.255   2.385   1.820
26736WAT      O80449   1.985   2.897   7.791
26736WAT     H180450   2.082   2.919   7.797
26736WAT     H280451   1.972   2.819   7.730
26737WAT      O80452   8.428   8.668   2.052
26737WAT     H180453   8.364   8.716   2.112
26737WAT     H280454   8.446   8.577   2.089
26738WAT      O80455   3.863   7.479   3.492
26738WAT     H180456   3.962   7.475   3.481
26738WAT     H280457   3.820   7.506   3.406
26739WAT      O80458   0.719   8.370   7.427
26739WAT     H180459   0.766   8.357   7.514
26739WAT     H280460   0.717   8.283   7.377
26740WAT      O80461   9.231   7.302   8.540
26740WAT     H180462   9.267   7.270   8.452
26740WAT     H280463   9.306   7.313   8.605
26741WAT      O80464   0.589   0.383   0.781
26741WAT     H180465   0.498   0.421   0.800
26741WAT     H280466   0.636   0.441   0.715
26742WAT      O80467   2.147   5.681   0.423
26742WAT     H180468   2.178   5.775   0.438
26742WAT     H280469   2.090   5.678   0.340
26743WAT      O80470   0.938   2.989   5.151
26743WAT     H180471   1.020   2.967   5.203
26743WAT     H280472   0.961   2.998   5.054
26744WAT      O80473   9.858   8.496   0.062
26744WAT     H180474   9.858   8.596   0.051
26744WAT     H280475   9.816   8.454  -0.018
26745WAT      O80476   1.184   0.996   3.524
26745WAT     H180477   1.115   0.927   3.505
26745WAT     H280478   1.141   1.076   3.565
26746WAT      O80479   4.646   9.830   6.644
26746WAT     H180480   4.557   9.809   6.603
26746WAT     H280481   4.697   9.890   6.582
26747WAT      O80482   0.407   2.400   5.376
26747WAT     H180483   0.340   2.440   5.315
26747WAT     H280484   0.468   2.339   5.325
26748WAT      O80485   2.257   3.053   3.901
26748WAT     H180486   2.320   2.996   3.847
26748WAT     H280487   2.181   2.997   3.932
26749WAT      O80488   5.717   9.649   7.184
26749WAT     H180489   5.667   9.655   7.098
26749WAT     H280490   5.748   9.555   7.199
26750WAT      O80491   1.231   5.518   4.385
26750WAT     H180492   1.144   5.555   4.353
26750WAT     H280493   1.227   5.419   4.386
26751WAT      O80494   8.774   2.976   5.087
26751WAT     H180495   8.792   3.010   5.179
26751WAT     H280496   8.687   3.012   5.054
26752WAT      O80497   5.520   0.559   7.951
26752WAT     H180498   5.544   0.492   8.021
26752WAT     H280499   5.423   0.583   7.961
26753WAT      O80500   6.813   2.956   7.658
26753WAT     H180501   6.717   2.935   7.676
26753WAT     H280502   6.870   2.905   7.722
26754WAT      O80503   3.740   8.248   4.038
26754WAT     H180504   3.691   8.226   4.122
26754WAT     H280505   3.777   8.341   4.044
26755WAT      O80506   6.641   0.270   9.290
26755WAT     H180507   6.552   0.232   9.261
26755WAT     H280508   6.675   0.219   9.369
26756WAT      O80509   2.968   6.922   7.684
26756WAT     H180510   2.885   6.889   7.638
26756WAT     H280511   2.959   6.908   7.782
26757WAT      O80512   5.538   1.467   5.476
26757WAT     H180513   5.599   1.539   5.444
26757WAT     H280514   5.554   1.449   5.573
26758WAT      O80515   7.873   6.417   7.239
26758WAT     H180516   7.934   6.345   7.207
26758WAT     H280517   7.794   6.377   7.284
26759WAT      O80518   0.973   9.218   1.383
26759WAT     H180519   1.003   9.180   1.296
26759WAT     H280520   1.052   9.232   1.443
26760WAT      O80521   4.326   5.203   9.120
26760WAT     H180522   4.351   5.106   9.116
26760WAT     H280523   4.363   5.250   9.040
26761WAT      O80524   6.875   5.638   8.884
26761WAT     H180525   6.800   5.650   8.819
26761WAT     H280526   6.850   5.682   8.970
26762WAT      O80527   5.258   2.470   3.233
26762WAT     H180528   5.263   2.371   3.242
26762WAT     H280529   5.216   2.509   3.314
26763WAT      O80530   8.783   0.336   1.693
26763WAT     H180531   8.871   0.365   1.654
26763WAT     H280532   8.767   0.240   1.671
26764WAT      O80533   8.206   3.203   3.258
26764WAT     H180534   8.209   3.191   3.357
26764WAT     H280535   8.283   3.259   3.228
26765WAT      O80536   4.810   6.232   9.146
26765WAT     H180537   4.736   6.250   9.212
26765WAT     H280538   4.820   6.133   9.134
26766WAT      O80539   4.911   7.141   6.506
26766WAT     H180540   4.990   7.202   6.502
26766WAT     H280541   4.831   7.189   6.469
26767WAT      O80542   6.076   9.771   1.074
26767WAT     H180543   6.077   9.769   0.974
26767WAT     H280544   5.993   9.816   1.106
26768WAT      O80545   3.701   9.233   7.298
26768WAT     H180546   3.760   9.313   7.309
26768WAT     H280547   3.728   9.182   7.216
26769WAT      O80548   4.424   3.896   4.858
26769WAT     H180549   4.372   3.923   4.939
26769WAT     H280550   4.400   3.955   4.782
26770WAT      O80551   3.594   8.687   2.081
26770WAT     H180552   3.671   8.719   2.026
26770WAT     H280553   3.567   8.759   2.146
26771WAT      O80554   7.669   7.739   0.011
26771WAT     H180555   7.739   7.775  -0.052
26771WAT     H280556   7.704   7.742   0.104
26772WAT      O80557   2.464   9.842   1.229
26772WAT     H180558   2.543   9.781   1.228
26772WAT     H280559   2.380   9.788   1.236
26773WAT      O80560   3.221   8.506   3.973
26773WAT     H180561   3.212   8.442   3.896
26773WAT     H280562   3.310   8.550   3.969
26774WAT      O80563   2.115   9.462   5.484
26774WAT     H180564   2.204   9.475   5.440
26774WAT     H280565   2.108   9.523   5.562
26775WAT      O80566   4.458   2.651   0.140
26775WAT     H180567   4.470   2.733   0.084
26775WAT     H280568   4.548   2.619   0.171
26776WAT      O80569   3.918   1.538   6.223
26776WAT     H180570   3.931   1.598   6.144
26776WAT     H280571   3.968   1.575   6.301
26777WAT      O80572   5.205   1.525   7.025
26777WAT     H180573   5.133   1.515   6.957
26777WAT     H280574   5.218   1.621   7.046
26778WAT      O80575   5.295   0.960   9.714
26778WAT     H180576   5.240   0.923   9.639
26778WAT     H280577   5.309   0.890   9.783
26779WAT      O80578   4.191   8.325   7.435
26779WAT     H180579   4.115   8.330   7.500
26779WAT     H280580   4.277   8.345   7.483
26780WAT      O80581   1.467   3.518   3.166
26780WAT     H180582   1.513   3.487   3.083
26780WAT     H280583   1.535   3.548   3.233
26781WAT      O80584   5.305   0.569   7.052
26781WAT     H180585   5.255   0.568   6.966
26781WAT     H280586   5.244   0.595   7.126
26782WAT      O80587   3.845   3.735   0.487
26782WAT     H180588   3.925   3.679   0.507
26782WAT     H280589   3.866   3.831   0.506
26783WAT      O80590   7.685   3.637   5.259
26783WAT     H180591   7.751   3.712   5.259
26783WAT     H280592   7.734   3.550   5.270
26784WAT      O80593   9.188   4.181   3.251
26784WAT     H180594   9.251   4.190   3.328
26784WAT     H280595   9.139   4.094   3.257
26785WAT      O80596   4.010   3.358   0.229
26785WAT     H180597   4.002   3.280   0.167
26785WAT     H280598   3.919   3.382   0.264
26786WAT      O80599   1.960   4.299   8.062
26786WAT     H180600   1.901   4.290   7.982
26786WAT     H280601   2.002   4.211   8.083
26787WAT      O80602   4.550   2.093   7.059
26787WAT     H180603   4.645   2.123   7.065
26787WAT     H280604   4.492   2.153   7.115
26788WAT      O80605   0.492   2.880   0.513
26788WAT     H180606   0.520   2.975   0.500
26788WAT     H280607   0.500   2.856   0.610
26789WAT      O80608   9.531   5.018   7.189
26789WAT     H180609   9.484   5.100   7.156
26789WAT     H280610   9.615   5.045   7.237
26790WAT      O80611   7.439   6.464   9.724
26790WAT     H180612   7.376   6.505   9.657
26790WAT     H280613   7.466   6.373   9.692
26791WAT      O80614   5.268   1.075   4.588
26791WAT     H180615   5.279   1.140   4.663
26791WAT     H280616   5.230   0.990   4.622
26792WAT      O80617   7.351   0.004   5.669
26792WAT     H180618   7.356  -0.015   5.571
26792WAT     H280619   7.407   0.084   5.690
26793WAT      O80620   6.719   3.277   2.220
26793WAT     H180621   6.624   3.306   2.207
26793WAT     H280622   6.736   3.194   2.166
26794WAT      O80623   9.467   8.790   7.829
26794WAT     H180624   9.445   8.786   7.926
26794WAT     H280625   9.566   8.795   7.817
26795WAT      O80626   9.140   7.096   7.870
26795WAT     H180627   9.235   7.125   7.870
26795WAT     H280628   9.125   7.031   7.945
26796WAT      O80629   9.866   8.314   7.201
26796WAT     H180630   9.892   8.223   7.167
26796WAT     H280631   9.809   8.360   7.132
26797WAT      O80632   2.322   6.424   2.918
26797WAT     H180633   2.400   6.381   2.963
26797WAT     H280634   2.243   6.422   2.979
26798WAT      O80635   0.204   3.537   4.768
26798WAT     H180636   0.297   3.551   4.801
26798WAT     H280637   0.146   3.611   4.801
26799WAT      O80638   0.066   7.443   8.642
26799WAT     H180639   0.097   7.516   8.703
26799WAT     H280640  -0.007   7.478   8.584
26800WAT      O80641   9.808   6.890   3.599
26800WAT     H180642   9.730   6.948   3.622
26800WAT     H280643   9.859   6.931   3.523
26801WAT      O80644   4.837   4.633   1.576
26801WAT     H180645   4.818   4.729   1.599
26801WAT     H280646   4.761   4.575   1.607
26802WAT      O80647   6.032   9.102   2.390
26802WAT     H180648   5.960   9.170   2.376
26802WAT     H280649   6.121   9.146   2.378
26803WAT      O80650   6.675   4.783   2.094
26803WAT     H180651   6.705   4.715   2.161
26803WAT     H280652   6.742   4.787   2.019
26804WAT      O80653   7.504   1.756   8.170
26804WAT     H180654   7.575   1.806   8.219
26804WAT     H280655   7.510   1.659   8.192
26805WAT      O80656   7.063   4.195   9.867
26805WAT     H180657   7.085   4.100   9.892
26805WAT     H280658   7.048   4.200   9.769
26806WAT      O80659   0.205   4.240   9.404
26806WAT     H180660   0.163   4.290   9.329
26806WAT     H280661   0.179   4.282   9.491
26807WAT      O80662   7.885   9.112   8.539
26807WAT     H180663   7.794   9.153   8.528
26807WAT     H280664   7.949   9.155   8.475
26808WAT      O80665   7.878   2.628   1.551
26808WAT     H180666   7.891   2.676   1.638
26808WAT     H280667   7.934   2.671   1.480
26809WAT      O80668   8.775   3.201   6.541
26809WAT     H180669   8.692   3.178   6.593
26809WAT     H280670   8.807   3.119   6.494
26810WAT      O80671   2.774   3.059   7.091
26810WAT     H180672   2.826   3.142   7.108
26810WAT     H280673   2.704   3.076   7.022
26811WAT      O80674   9.800   5.952   1.068
26811WAT     H180675   9.767   5.988   1.155
26811WAT     H280676   9.771   6.013   0.994
26812WAT      O80677   2.262   5.049   3.586
26812WAT     H180678   2.213   4.972   3.627
26812WAT     H280679   2.337   5.077   3.646
26813WAT      O80680   4.356   9.601   6.703
26813WAT     H180681   4.381   9.632   6.795
26813WAT     H280682   4.357   9.501   6.700
26814WAT      O80683   7.312   0.014   0.020
26814WAT     H180684   7.245   0.077  -0.020
26814WAT     H280685   7.390   0.066   0.056
26815WAT      O80686   5.953   3.167   2.525
26815WAT     H180687   5.872   3.112   2.503
26815WAT     H280688   5.924   3.259   2.552
26816WAT      O80689   4.625   7.983   0.323
26816WAT     H180690   4.546   8.044   0.326
26816WAT     H280691   4.709   8.038   0.321
26817WAT      O80692   6.866   9.011   5.329
26817WAT     H180693   6.893   9.008   5.232
26817WAT     H280694   6.899   8.929   5.375
26818WAT      O80695   0.859   0.482   4.747
26818WAT     H180696   0.938   0.425   4.770
26818WAT     H280697   0.829   0.532   4.829
26819WAT      O80698   2.977   7.396   4.594
26819WAT     H180699   2.906   7.409   4.524
26819WAT     H280700   2.938   7.345   4.670
26820WAT      O80701   0.628   8.204   9.291
26820WAT     H180702   0.696   8.132   9.278
26820WAT     H280703   0.663   8.271   9.357
26821WAT      O80704   3.770   7.585   9.740
26821WAT     H180705   3.821   7.515   9.690
26821WAT     H280706   3.805   7.676   9.715
26822WAT      O80707   6.749   1.505   1.454
26822WAT     H180708   6.751   1.515   1.355
26822WAT     H280709   6.717   1.590   1.496
26823WAT      O80710   8.891   3.642   1.560
26823WAT     H180711   8.918   3.698   1.481
26823WAT     H280712   8.968   3.633   1.622
26824WAT      O80713   5.645   5.385   4.611
26824WAT     H180714   5.648   5.477   4.573
26824WAT     H280715   5.727   5.334   4.582
26825WAT      O80716   3.516   6.176   9.321
26825WAT     H180717   3.459   6.123   9.258
26825WAT     H280718   3.569   6.113   9.377
26826WAT      O80719   7.088   9.272   7.609
26826WAT     H180720   7.013   9.208   7.624
26826WAT     H280721   7.053   9.353   7.561
26827WAT      O80722   4.752   6.964   1.786
26827WAT     H180723   4.709   7.027   1.850
26827WAT     H280724   4.775   7.012   1.702
26828WAT      O80725   4.737   1.364   5.474
26828WAT     H180726   4.751   1.455   5.437
26828WAT     H280727   4.649   1.360   5.521
26829WAT      O80728   9.749   7.238   2.721
26829WAT     H180729   9.790   7.170   2.782
26829WAT     H280730   9.690   7.299   2.774
26830WAT      O80731   4.605   1.792   0.200
26830WAT     H180732   4.555   1.863   0.150
26830WAT     H280733   4.576   1.792   0.296
26831WAT      O80734   7.417   8.047   7.612
26831WAT     H180735   7.318   8.040   7.601
26831WAT     H280736   7.459   8.078   7.527
26832WAT      O80737   0.589   8.962   2.121
26832WAT     H180738   0.668   9.023   2.111
26832WAT     H280739   0.605   8.879   2.068
26833WAT      O80740   4.078   6.443   1.611
26833WAT     H180741   4.160   6.385   1.606
26833WAT     H280742   4.024   6.431   1.528
26834WAT      O80743   6.937   5.573   2.117
26834WAT     H180744   6.854   5.592   2.064
26834WAT     H280745   6.985   5.659   2.135
26835WAT      O80746   8.775   6.375   5.100
26835WAT     H180747   8.862   6.370   5.149
26835WAT     H280748   8.721   6.451   5.136
26836WAT      O80749   9.124   5.674   2.016
26836WAT     H180750   9.083   5.735   1.949
26836WAT     H280751   9.052   5.622   2.063
26837WAT      O80752   0.714   1.992   1.770
26837WAT     H180753   0.721   2.089   1.746
26837WAT     H280754   0.709   1.937   1.686
26838WAT      O80755   1.893   1.073   2.414
26838WAT     H180756   1.971   1.135   2.407
26838WAT     H280757   1.857   1.055   2.322
26839WAT      O80758   7.565   6.331   7.668
26839WAT     H180759   7.557   6.231   7.673
26839WAT     H280760   7.566   6.369   7.760
26840WAT      O80761   6.360   7.971   0.679
26840WAT     H180762   6.358   8.028   0.761
26840WAT     H280763   6.444   7.918   0.677
26841WAT      O80764   5.440   5.104   5.662
26841WAT     H180765   5.452   5.061   5.752
26841WAT     H280766   5.515   5.168   5.646
26842WAT      O80767   8.189   5.116   2.400
26842WAT     H180768   8.255   5.157   2.463
26842WAT     H280769   8.131   5.052   2.450
26843WAT      O80770   8.210   2.387   3.896
26843WAT     H180771   8.113   2.388   3.871
26843WAT     H280772   8.220   2.401   3.994
26844WAT      O80773   5.364   1.126   8.653
26844WAT     H180774   5.409   1.200   8.703
26844WAT     H280775   5.372   1.041   8.705
26845WAT      O80776   0.728   7.078   7.698
26845WAT     H180777   0.644   7.072   7.752
26845WAT     H280778   0.710   7.125   7.612
26846WAT      O80779   6.664   5.386   6.806
26846WAT     H180780   6.755   5.377   6.846
26846WAT     H280781   6.606   5.441   6.866
26847WAT      O80782   0.732   8.507   8.571
26847WAT     H180783   0.734   8.510   8.671
26847WAT     H280784   0.639   8.490   8.540
26848WAT      O80785   5.901   1.027   7.709
26848WAT     H180786   5.983   0.970   7.716
26848WAT     H280787   5.856   1.010   7.621
26849WAT      O80788   7.998   0.825   6.760
26849WAT     H180789   7.945   0.832   6.845
26849WAT     H280790   7.944   0.861   6.684
26850WAT      O80791   1.372   8.297   4.776
26850WAT     H180792   1.327   8.369   4.723
26850WAT     H280793   1.337   8.208   4.748
26851WAT      O80794   9.644   7.867   5.440
26851WAT     H180795   9.626   7.819   5.527
26851WAT     H280796   9.720   7.931   5.453
26852WAT      O80797   9.866   1.912   2.846
26852WAT     H180798   9.922   1.871   2.773
26852WAT     H280799   9.925   1.939   2.922
26853WAT      O80800   2.201   2.607   9.542
26853WAT     H180801   2.168   2.613   9.448
26853WAT     H280802   2.136   2.554   9.597
26854WAT      O80803   8.120   5.109   1.706
26854WAT     H180804   8.113   5.020   1.660
26854WAT     H280805   8.189   5.103   1.779
26855WAT      O80806   0.680   0.247   9.879
26855WAT     H180807   0.744   0.280   9.948
26855WAT     H280808   0.586   0.262   9.912
26856WAT      O80809   0.739   4.867   9.161
26856WAT     H180810   0.657   4.919   9.184
26856WAT     H280811   0.769   4.814   9.241
26857WAT      O80812   2.134   8.018   9.839
26857WAT     H180813   2.069   8.016   9.914
26857WAT     H280814   2.213   7.960   9.861
26858WAT      O80815   9.611   6.458   4.042
26858WAT     H180816   9.640   6.388   3.977
26858WAT     H280817   9.685   6.524   4.055
26859WAT      O80818   9.177   3.176   1.947
26859WAT     H180819   9.211   3.257   1.995
26859WAT     H280820   9.251   3.110   1.935
26860WAT      O80821   9.242   5.160   0.893
26860WAT     H180822   9.262   5.161   0.990
26860WAT     H280823   9.301   5.092   0.848
26861WAT      O80824   4.680   3.253   6.671
26861WAT     H180825   4.766   3.235   6.623
26861WAT     H280826   4.623   3.314   6.616
26862WAT      O80827   6.820   4.883   8.157
26862WAT     H180828   6.737   4.928   8.189
26862WAT     H280829   6.900   4.930   8.192
26863WAT      O80830   8.917   5.389   6.274
26863WAT     H180831   8.966   5.444   6.342
26863WAT     H280832   8.835   5.349   6.317
26864WAT      O80833   9.390   9.584   5.823
26864WAT     H180834   9.374   9.680   5.844
26864WAT     H280835   9.311   9.546   5.774
26865WAT      O80836   1.904   4.744   1.836
26865WAT     H180837   1.876   4.836   1.865
26865WAT     H280838   1.824   4.692   1.808
26866WAT      O80839   1.938   2.958   1.447
26866WAT     H180840   1.972   3.013   1.523
26866WAT     H280841   1.855   2.910   1.474
26867WAT      O80842   4.111   9.240   4.680
26867WAT     H180843   4.148   9.332   4.697
26867WAT     H280844   4.136   9.179   4.755
26868WAT      O80845   9.489   5.753   2.905
26868WAT     H180846   9.525   5.797   2.822
26868WAT     H280847   9.565   5.724   2.962
26869WAT      O80848   6.214   2.508   1.644
26869WAT     H180849   6.179   2.546   1.559
26869WAT     H280850   6.291   2.446   1.624
26870WAT      O80851   6.142   3.374   9.047
26870WAT     H180852   6.047   3.350   9.067
26870WAT     H280853   6.179   3.428   9.122
26871WAT      O80854   7.858   6.381   6.251
26871WAT     H180855   7.870   6.320   6.172
26871WAT     H280856   7.781   6.442   6.234
26872WAT      O80857   2.581   6.920   6.211
26872WAT     H180858   2.646   6.955   6.278
26872WAT     H280859   2.499   6.887   6.257
26873WAT      O80860   7.755   0.162   7.704
26873WAT     H180861   7.776   0.076   7.657
26873WAT     H280862   7.790   0.239   7.649
26874WAT      O80863   3.963   9.442   0.868
26874WAT     H180864   4.049   9.391   0.873
26874WAT     H280865   3.980   9.537   0.895
26875WAT      O80866   8.544   5.970   3.579
26875WAT     H180867   8.545   5.937   3.673
26875WAT     H280868   8.605   5.913   3.523
26876WAT      O80869   2.169   4.412   9.409
26876WAT     H180870   2.217   4.326   9.390
26876WAT     H280871   2.168   4.468   9.327
26877WAT      O80872   2.119   2.335   9.432
26877WAT     H180873   2.205   2.315   9.384
26877WAT     H280874   2.120   2.290   9.521
26878WAT      O80875   4.093   7.090   4.471
26878WAT     H180876   4.170   7.125   4.417
26878WAT     H280877   4.119   7.088   4.567
26879WAT      O80878   3.331   5.673   1.436
26879WAT     H180879   3.328   5.584   1.390
26879WAT     H280880   3.306   5.745   1.371
26880WAT      O80881   1.381   9.064   7.155
26880WAT     H180882   1.328   8.983   7.129
26880WAT     H280883   1.346   9.100   7.242
26881WAT      O80884   7.454   8.848   8.459
26881WAT     H180885   7.480   8.828   8.365
26881WAT     H280886   7.388   8.923   8.460
26882WAT      O80887   7.884   4.431   9.096
26882WAT     H180888   7.906   4.528   9.091
26882WAT     H280889   7.924   4.392   9.179
26883WAT      O80890   6.438   8.023   3.718
26883WAT     H180891   6.477   8.032   3.810
26883WAT     H280892   6.351   8.072   3.714
26884WAT      O80893   1.991   9.383   1.223
26884WAT     H180894   2.075   9.331   1.210
26884WAT     H280895   2.012   9.471   1.265
26885WAT      O80896   3.318   1.819   7.969
26885WAT     H180897   3.224   1.853   7.964
26885WAT     H280898   3.329   1.763   8.052
26886WAT      O80899   9.797   4.691   9.418
26886WAT     H180900   9.704   4.679   9.450
26886WAT     H280901   9.859   4.699   9.496
26887WAT      O80902   2.608   5.045   0.151
26887WAT     H180903   2.613   4.991   0.235
26887WAT     H280904   2.607   4.983   0.072
26888WAT      O80905   4.247   4.705   2.884
26888WAT     H180906   4.301   4.784   2.855
26888WAT     H280907   4.198   4.667   2.806
26889WAT      O80908   9.528   8.826   6.202
26889WAT     H180909   9.503   8.871   6.116
26889WAT     H280910   9.617   8.860   6.233
26890WAT      O80911   3.639   4.576   7.407
26890WAT     H180912   3.619   4.674   7.406
26890WAT     H280913   3.567   4.528   7.458
26891WAT      O80914   0.093   2.167   3.825
26891WAT     H180915   0.056   2.099   3.762
26891WAT     H280916   0.076   2.258   3.790
26892WAT      O80917   0.346   4.942   4.245
26892WAT     H180918   0.384   4.941   4.338
26892WAT     H280919   0.420   4.954   4.179
26893WAT      O80920   1.449   7.929   3.724
26893WAT     H180921   1.399   7.845   3.703
26893WAT     H280922   1.540   7.925   3.683
26894WAT      O80923   1.084   2.387   1.759
26894WAT     H180924   1.068   2.478   1.797
26894WAT     H280925   1.053   2.318   1.824
26895WAT      O80926   5.598   3.535   9.204
26895WAT     H180927   5.584   3.436   9.196
26895WAT     H280928   5.518   3.577   9.247
26896WAT      O80929   1.385   5.837   6.590
26896WAT     H180930   1.295   5.800   6.616
26896WAT     H280931   1.422   5.890   6.666
26897WAT      O80932   7.721   5.507   4.778
26897WAT     H180933   7.672   5.525   4.863
26897WAT     H280934   7.655   5.495   4.704
26898WAT      O80935   4.125   8.404   0.433
26898WAT     H180936   4.140   8.332   0.365
26898WAT     H280937   4.207   8.462   0.438
26899WAT      O80938   8.261   6.766   5.180
26899WAT     H180939   8.351   6.806   5.198
26899WAT     H280940   8.214   6.749   5.267
26900WAT      O80941   4.247   9.683   1.782
26900WAT     H180942   4.148   9.671   1.791
26900WAT     H280943   4.278   9.755   1.845
26901WAT      O80944   7.899   4.809   7.370
26901WAT     H180945   7.930   4.721   7.334
26901WAT     H280946   7.800   4.814   7.366
26902WAT      O80947   2.551   7.836   7.464
26902WAT     H180948   2.514   7.875   7.380
26902WAT     H280949   2.530   7.897   7.541
26903WAT      O80950   2.474   0.143   0.116
26903WAT     H180951   2.534   0.135   0.036
26903WAT     H280952   2.515   0.095   0.193
26904WAT      O80953   3.734   2.685   9.197
26904WAT     H180954   3.730   2.647   9.290
26904WAT     H280955   3.721   2.613   9.130
26905WAT      O80956   5.887   3.375   2.326
26905WAT     H180957   5.801   3.323   2.333
26905WAT     H280958   5.892   3.440   2.401
26906WAT      O80959   9.056   4.573   2.035
26906WAT     H180960   8.968   4.616   2.055
26906WAT     H280961   9.069   4.495   2.097
26907WAT      O80962   6.623   7.051   2.669
26907WAT     H180963   6.636   6.981   2.599
26907WAT     H280964   6.533   7.040   2.711
26908WAT      O80965   2.124   1.344   3.155
26908WAT     H180966   2.219   1.366   3.176
26908WAT     H280967   2.119   1.258   3.105
26909WAT      O80968   9.323   7.451   1.168
26909WAT     H180969   9.354   7.545   1.155
26909WAT     H280970   9.251   7.430   1.102
26910WAT      O80971   4.572   1.229   6.232
26910WAT     H180972   4.511   1.161   6.272
26910WAT     H280973   4.667   1.203   6.249
26911WAT      O80974   5.469   4.313   2.939
26911WAT     H180975   5.375   4.336   2.917
26911WAT     H280976   5.506   4.382   3.002
26912WAT      O80977   8.311   9.467   1.192
26912WAT     H180978   8.336   9.498   1.101
26912WAT     H280979   8.350   9.377   1.209
26913WAT      O80980   7.303   4.276   5.744
26913WAT     H180981   7.256   4.229   5.819
26913WAT     H280982   7.371   4.215   5.704
26914WAT      O80983   3.431   9.015   9.747
26914WAT     H180984   3.459   9.035   9.653
26914WAT     H280985   3.506   8.969   9.795
26915WAT      O80986   9.863   6.925   4.871
26915WAT     H180987   9.932   6.858   4.899
26915WAT     H280988   9.905   6.992   4.810
26916WAT      O80989   1.022   2.391   4.266
26916WAT     H180990   0.976   2.389   4.178
26916WAT     H280991   1.087   2.468   4.268
26917WAT      O80992   1.297   1.486   5.925
26917WAT     H180993   1.339   1.573   5.898
26917WAT     H280994   1.274   1.434   5.843
26918WAT      O80995   0.618   3.006   6.657
26918WAT     H180996   0.639   3.100   6.628
26918WAT     H280997   0.677   2.942   6.608
26919WAT      O80998   3.004   2.765   2.077
26919WAT     H180999   2.971   2.851   2.038
26919WAT     H281000   2.933   2.694   2.066
26920WAT      O81001   7.397   5.983   8.762
26920WAT     H181002   7.430   5.893   8.735
26920WAT     H281003   7.399   6.044   8.682
26921WAT      O81004   5.881   0.798   8.679
26921WAT     H181005   5.836   0.886   8.695
26921WAT     H281006   5.875   0.774   8.582
26922WAT      O81007   0.436   8.019   9.370
26922WAT     H181008   0.358   8.016   9.307
26922WAT     H281009   0.502   8.088   9.339
26923WAT      O81010   9.430   0.682   4.093
26923WAT     H181011   9.396   0.720   4.179
26923WAT     H281012   9.528   0.697   4.087
26924WAT      O81013   0.325   9.204   8.536
26924WAT     H181014   0.319   9.278   8.470
26924WAT     H281015   0.391   9.136   8.504
26925WAT      O81016   1.886   4.155   0.516
26925WAT     H181017   1.807   4.093   0.521
26925WAT     H281018   1.951   4.131   0.588
26926WAT      O81019   7.166   7.959   6.148
26926WAT     H181020   7.153   8.055   6.124
26926WAT     H281021   7.264   7.937   6.147
26927WAT      O81022   5.104   5.903   2.809
26927WAT     H181023   5.115   5.867   2.901
26927WAT     H281024   5.119   6.002   2.810
26928WAT      O81025   4.383   0.617   9.845
26928WAT     H181026   4.317   0.633   9.919
26928WAT     H281027   4.343   0.556   9.777
26929WAT      O81028   6.042   1.990   0.298
26929WAT     H181029   6.037   1.894   0.324
26929WAT     H281030   6.123   2.032   0.339
26930WAT      O81031   7.856   4.591   0.394
26930WAT     H181032   7.800   4.651   0.450
26930WAT     H281033   7.815   4.583   0.303
26931WAT      O81034   5.447   1.043   2.436
26931WAT     H181035   5.425   0.961   2.490
26931WAT     H281036   5.445   1.020   2.339
26932WAT      O81037   8.947   3.665   8.915
26932WAT     H181038   8.875   3.720   8.957
26932WAT     H281039   8.910   3.614   8.838
26933WAT      O81040   7.452   7.967   4.698
26933WAT     H181041   7.516   8.019   4.642
26933WAT     H281042   7.417   7.890   4.645
26934WAT      O81043   6.007   7.741   6.499
26934WAT     H181044   5.964   7.736   6.409
26934WAT     H281045   6.057   7.657   6.518
26935WAT      O81046   2.116   2.403   8.547
26935WAT     H181047   2.021   2.423   8.525
26935WAT     H281048   2.144   2.458   8.626
26936WAT      O81049   2.523   4.699   3.921
26936WAT     H181050   2.450   4.763   3.899
26936WAT     H281051   2.509   4.614   3.871
26937WAT      O81052   5.851  -0.001   5.495
26937WAT     H181053   5.879   0.070   5.560
26937WAT     H281054   5.932  -0.048   5.461
26938WAT      O81055   6.141   3.218   7.281
26938WAT     H181056   6.113   3.128   7.249
26938WAT     H281057   6.227   3.243   7.238
26939WAT      O81058   7.003   9.117   5.796
26939WAT     H181059   7.055   9.186   5.746
26939WAT     H281060   6.961   9.159   5.877
26940WAT      O81061   0.703   7.148   6.974
26940WAT     H181062   0.802   7.136   6.970
26940WAT     H281063   0.661   7.110   6.892
26941WAT      O81064   0.676   2.104   2.431
26941WAT     H181065   0.667   2.044   2.511
26941WAT     H281066   0.693   2.197   2.462
26942WAT      O81067   7.907   0.540   6.541
26942WAT     H181068   7.853   0.617   6.576
26942WAT     H281069   7.858   0.454   6.559
26943WAT      O81070   5.680   8.738   1.877
26943WAT     H181071   5.649   8.817   1.930
26943WAT     H281072   5.739   8.770   1.802
26944WAT      O81073   5.055   9.744   6.319
26944WAT     H181074   5.138   9.770   6.269
26944WAT     H281075   4.977   9.795   6.283
26945WAT      O81076   9.340   0.474   7.603
26945WAT     H181077   9.300   0.404   7.663
26945WAT     H281078   9.423   0.438   7.560
26946WAT      O81079   3.613   6.740   2.842
26946WAT     H181080   3.587   6.645   2.821
26946WAT     H281081   3.713   6.749   2.835
26947WAT      O81082   3.631   0.756   8.908
26947WAT     H181083   3.708   0.805   8.948
26947WAT     H281084   3.556   0.820   8.892
26948WAT      O81085   9.151   3.656   4.056
26948WAT     H181086   9.101   3.651   4.143
26948WAT     H281087   9.107   3.724   3.997
26949WAT      O81088   4.141   2.154   5.524
26949WAT     H181089   4.210   2.156   5.451
26949WAT     H281090   4.078   2.230   5.511
26950WAT      O81091   5.045   3.197   5.413
26950WAT     H181092   5.077   3.211   5.507
26950WAT     H281093   5.117   3.155   5.359
26951WAT      O81094   2.502   4.700   1.242
26951WAT     H181095   2.555   4.630   1.289
26951WAT     H281096   2.459   4.760   1.310
26952WAT      O81097   0.741   1.621   7.566
26952WAT     H181098   0.808   1.675   7.515
26952WAT     H281099   0.650   1.633   7.526
26953WAT      O81100   2.689   5.842   2.889
26953WAT     H181101   2.722   5.903   2.960
26953WAT     H281102   2.673   5.895   2.805
26954WAT      O81103   4.824   1.704   2.717
26954WAT     H181104   4.738   1.752   2.698
26954WAT     H281105   4.899   1.752   2.671
26955WAT      O81106   3.974   3.270   0.901
26955WAT     H181107   3.924   3.343   0.854
26955WAT     H281108   3.986   3.192   0.839
26956WAT      O81109   5.408   3.093   8.644
26956WAT     H181110   5.466   3.173   8.659
26956WAT     H281111   5.423   3.027   8.719
26957WAT      O81112   7.193   9.239   5.392
26957WAT     H181113   7.095   9.256   5.379
26957WAT     H281114   7.209   9.141   5.407
26958WAT      O81115   7.780   3.804   8.132
26958WAT     H181116   7.829   3.890   8.113
26958WAT     H281117   7.689   3.825   8.166
26959WAT      O81118   1.880   8.705   5.862
26959WAT     H181119   1.877   8.633   5.931
26959WAT     H281120   1.806   8.690   5.796
26960WAT      O81121   0.814   3.265   8.380
26960WAT     H181122   0.755   3.329   8.428
26960WAT     H281123   0.816   3.288   8.282
26961WAT      O81124   1.722   5.052   3.655
26961WAT     H181125   1.740   5.145   3.685
26961WAT     H281126   1.628   5.027   3.679
26962WAT      O81127   1.834   1.881   1.916
26962WAT     H181128   1.895   1.957   1.890
26962WAT     H281129   1.866   1.797   1.872
26963WAT      O81130   8.095   3.156   2.830
26963WAT     H181131   8.001   3.190   2.822
26963WAT     H281132   8.102   3.096   2.909
26964WAT      O81133   9.106   4.888   0.569
26964WAT     H181134   9.163   4.939   0.633
26964WAT     H281135   9.160   4.861   0.489
26965WAT      O81136   4.719   6.231   2.592
26965WAT     H181137   4.636   6.286   2.579
26965WAT     H281138   4.706   6.140   2.553
26966WAT      O81139   0.751   0.608   7.812
26966WAT     H181140   0.668   0.593   7.866
26966WAT     H281141   0.827   0.557   7.853
26967WAT      O81142   1.368   7.101   4.167
26967WAT     H181143   1.426   7.117   4.087
26967WAT     H281144   1.315   7.017   4.153
26968WAT      O81145   9.008   9.525   9.424
26968WAT     H181146   8.938   9.527   9.496
26968WAT     H281147   9.084   9.584   9.451
26969WAT      O81148   6.575   2.284   7.090
26969WAT     H181149   6.476   2.295   7.099
26969WAT     H281150   6.620   2.370   7.116
26970WAT      O81151   1.548   9.711   9.309
26970WAT     H181152   1.524   9.775   9.383
26970WAT     H281153   1.466   9.693   9.254
26971WAT      O81154   0.884   7.082   8.421
26971WAT     H181155   0.936   7.013   8.472
26971WAT     H281156   0.795   7.044   8.395
26972WAT      O81157   5.423   2.387   0.115
26972WAT     H181158   5.439   2.291   0.090
26972WAT     H281159   5.331   2.413   0.089
26973WAT      O81160   1.887   2.650   5.399
26973WAT     H181161   1.813   2.624   5.336
26973WAT     H281162   1.955   2.703   5.349
26974WAT      O81163   9.694   5.753   4.051
26974WAT     H181164   9.778   5.704   4.073
26974WAT     H281165   9.708   5.851   4.067
26975WAT      O81166   7.667   1.615   1.943
26975WAT     H181167   7.597   1.579   2.006
26975WAT     H281168   7.757   1.608   1.986
26976WAT      O81169   1.874   1.920   0.617
26976WAT     H181170   1.893   1.982   0.541
26976WAT     H281171   1.944   1.932   0.688
26977WAT      O81172   8.577   9.794   3.376
26977WAT     H181173   8.519   9.767   3.299
26977WAT     H281174   8.673   9.796   3.347
26978WAT      O81175   0.336   9.255   8.802
26978WAT     H181176   0.350   9.219   8.710
26978WAT     H281177   0.413   9.228   8.860
26979WAT      O81178   6.033   8.586   0.630
26979WAT     H181179   5.938   8.613   0.612
26979WAT     H281180   6.086   8.594   0.546
26980WAT      O81181   4.142   4.198   1.733
26980WAT     H181182   4.203   4.277   1.746
26980WAT     H281183   4.115   4.192   1.637
26981WAT      O81184   3.787   8.817   7.914
26981WAT     H181185   3.744   8.773   7.993
26981WAT     H281186   3.739   8.902   7.893
26982WAT      O81187   3.982   8.709   9.150
26982WAT     H181188   3.928   8.644   9.097
26982WAT     H281189   4.066   8.731   9.101
26983WAT      O81190   9.776   4.358   9.394
26983WAT     H181191   9.846   4.426   9.371
26983WAT     H281192   9.726   4.332   9.312
26984WAT      O81193   0.259   0.591   6.630
26984WAT     H181194   0.167   0.590   6.591
26984WAT     H281195   0.312   0.514   6.593
26985WAT      O81196   8.578   9.045   2.725
26985WAT     H181197   8.642   8.995   2.667
26985WAT     H281198   8.487   9.003   2.718
26986WAT      O81199   2.791   3.253   0.955
26986WAT     H181200   2.846   3.185   0.906
26986WAT     H281201   2.799   3.238   1.053
26987WAT      O81202   2.555   2.730   0.640
26987WAT     H181203   2.480   2.731   0.575
26987WAT     H281204   2.520   2.748   0.732
26988WAT      O81205   6.547   1.216   3.681
26988WAT     H181206   6.633   1.255   3.648
26988WAT     H281207   6.538   1.232   3.779
26989WAT      O81208   0.263   4.374   3.710
26989WAT     H181209   0.335   4.441   3.727
26989WAT     H281210   0.303   4.291   3.671
26990WAT      O81211   9.513   9.618   2.322
26990WAT     H181212   9.610   9.597   2.313
26990WAT     H281213   9.475   9.569   2.400
26991WAT      O81214   6.136   0.998   3.981
26991WAT     H181215   6.118   1.068   3.912
26991WAT     H281216   6.147   0.909   3.937
26992WAT      O81217   0.805   2.853   1.062
26992WAT     H181218   0.779   2.788   0.990
26992WAT     H281219   0.885   2.819   1.111
26993WAT      O81220   8.997   1.530   6.941
26993WAT     H181221   9.004   1.593   7.018
26993WAT     H281222   9.054   1.449   6.959
26994WAT      O81223   1.460   8.381   0.723
26994WAT     H181224   1.378   8.386   0.781
26994WAT     H281225   1.494   8.474   0.705
26995WAT      O81226   2.556   5.007   4.659
26995WAT     H181227   2.588   5.095   4.693
26995WAT     H281228   2.590   4.934   4.719
26996WAT      O81229   5.254   8.662   8.957
26996WAT     H181230   5.319   8.732   8.987
26996WAT     H281231   5.165   8.681   8.998
26997WAT      O81232   3.193   4.019   8.410
26997WAT     H181233   3.232   3.966   8.485
26997WAT     H281234   3.097   3.994   8.397
26998WAT      O81235   0.871   7.993   7.887
26998WAT     H181236   0.862   8.007   7.986
26998WAT     H281237   0.957   7.946   7.867
26999WAT      O81238   3.543   1.267   3.010
26999WAT     H181239   3.520   1.314   2.925
26999WAT     H281240   3.592   1.182   2.989
27000WAT      O81241   4.445   9.491   3.250
27000WAT     H181242   4.390   9.544   3.315
27000WAT     H281243   4.388   9.422   3.206
27001WAT      O81244   4.363   2.747   0.409
27001WAT     H181245   4.430   2.723   0.339
27001WAT     H281246   4.306   2.668   0.429
27002WAT      O81247   4.765   9.268   9.760
27002WAT     H181248   4.771   9.210   9.679
27002WAT     H281249   4.823   9.230   9.832
27003WAT      O81250   6.153   1.232   0.274
27003WAT     H181251   6.188   1.165   0.340
27003WAT     H281252   6.071   1.276   0.310
27004WAT      O81253   5.730   4.866   8.977
27004WAT     H181254   5.681   4.790   8.934
27004WAT     H281255   5.696   4.952   8.939
27005WAT      O81256   8.535   1.558   3.020
27005WAT     H181257   8.586   1.637   3.055
27005WAT     H281258   8.477   1.522   3.093
27006WAT      O81259   7.091   3.652   3.285
27006WAT     H181260   7.191   3.650   3.281
27006WAT     H281261   7.055   3.559   3.272
27007WAT      O81262   6.710   9.491   0.006
27007WAT     H181263   6.697   9.590   0.006
27007WAT     H281264   6.742   9.461  -0.084
27008WAT      O81265   9.800   8.852   5.913
27008WAT     H181266   9.847   8.894   5.836
27008WAT     H281267   9.720   8.801   5.880
27009WAT      O81268   2.622   4.154   8.991
27009WAT     H181269   2.684   4.112   8.925
27009WAT     H281270   2.620   4.253   8.978
27010WAT      O81271   7.879   3.409   7.181
27010WAT     H181272   7.794   3.420   7.232
27010WAT     H281273   7.956   3.422   7.243
27011WAT      O81274   7.445   4.827   8.775
27011WAT     H181275   7.398   4.750   8.818
27011WAT     H281276   7.515   4.862   8.836
27012WAT      O81277   2.978   0.474   2.598
27012WAT     H181278   2.899   0.476   2.536
27012WAT     H281279   3.008   0.380   2.610
27013WAT      O81280   4.246   9.187   0.498
27013WAT     H181281   4.218   9.140   0.414
27013WAT     H281282   4.340   9.220   0.489
27014WAT      O81283   2.817   9.631   0.568
27014WAT     H181284   2.904   9.653   0.525
27014WAT     H281285   2.785   9.709   0.622
27015WAT      O81286   5.644   1.414   7.165
27015WAT     H181287   5.572   1.345   7.177
27015WAT     H281288   5.652   1.438   7.069
27016WAT      O81289   7.437   4.021   7.386
27016WAT     H181290   7.458   4.118   7.376
27016WAT     H281291   7.352   4.000   7.337
27017WAT      O81292   1.090   8.741   8.989
27017WAT     H181293   1.108   8.671   9.058
27017WAT     H281294   1.165   8.743   8.923
27018WAT      O81295   9.511   8.655   8.912
27018WAT     H181296   9.464   8.602   8.982
27018WAT     H281297   9.604   8.619   8.900
27019WAT      O81298   1.140   0.914   4.052
27019WAT     H181299   1.058   0.858   4.067
27019WAT     H281300   1.211   0.858   4.009
27020WAT      O81301   4.297   5.486   2.436
27020WAT     H181302   4.383   5.471   2.486
27020WAT     H281303   4.221   5.449   2.489
27021WAT      O81304   9.323   6.560   7.703
27021WAT     H181305   9.421   6.565   7.683
27021WAT     H281306   9.303   6.474   7.749
27022WAT      O81307   7.715   7.377   8.716
27022WAT     H181308   7.668   7.465   8.715
27022WAT     H281309   7.679   7.320   8.790
27023WAT      O81310   8.379   3.001   8.004
27023WAT     H181311   8.318   3.071   7.966
27023WAT     H281312   8.458   2.991   7.944
27024WAT      O81313   0.655   8.892   7.905
27024WAT     H181314   0.593   8.814   7.917
27024WAT     H281315   0.698   8.886   7.815
27025WAT      O81316   0.052   0.529   0.581
27025WAT     H181317   0.057   0.556   0.677
27025WAT     H281318   0.143   0.531   0.541
27026WAT      O81319   3.216   6.775   6.261
27026WAT     H181320   3.243   6.731   6.347
27026WAT     H281321   3.167   6.860   6.281
27027WAT      O81322   3.861   4.000   0.760
27027WAT     H181323   3.885   3.979   0.665
27027WAT     H281324   3.763   3.989   0.773
27028WAT      O81325   8.139   5.172   6.376
27028WAT     H181326   8.077   5.213   6.310
27028WAT     H281327   8.125   5.073   6.378
27029WAT      O81328   6.191   3.448   7.105
27029WAT     H181329   6.103   3.401   7.117
27029WAT     H281330   6.174   3.545   7.089
27030WAT      O81331   0.062   3.032   0.497
27030WAT     H181332   0.048   2.982   0.582
27030WAT     H281333   0.048   3.130   0.513
27031WAT      O81334   4.604   4.526   2.369
27031WAT     H181335   4.662   4.446   2.355
27031WAT     H281336   4.591   4.573   2.282
27032WAT      O81337   5.467   2.689   2.683
27032WAT     H181338   5.526   2.751   2.735
27032WAT     H281339   5.513   2.663   2.598
27033WAT      O81340   2.602   7.487   3.093
27033WAT     H181341   2.655   7.454   3.015
27033WAT     H281342   2.549   7.411   3.131
27034WAT      O81343   0.949   2.470   9.110
27034WAT     H181344   0.977   2.378   9.138
27034WAT     H281345   0.887   2.464   9.032
27035WAT      O81346   5.312   8.423   7.117
27035WAT     H181347   5.312   8.424   7.017
27035WAT     H281348   5.220   8.402   7.151
27036WAT      O81349   6.848   3.368   8.312
27036WAT     H181350   6.802   3.436   8.255
27036WAT     H281351   6.786   3.292   8.330
27037WAT      O81352   1.881   1.598   7.053
27037WAT     H181353   1.901   1.563   6.961
27037WAT     H281354   1.784   1.584   7.073
27038WAT      O81355   3.225   9.315   4.165
27038WAT     H181356   3.134   9.272   4.170
27038WAT     H281357   3.230   9.389   4.232
27039WAT      O81358   2.270   7.932   1.169
27039WAT     H181359   2.174   7.928   1.194
27039WAT     H281360   2.326   7.948   1.250
27040WAT      O81361   5.441   7.612   7.515
27040WAT     H181362   5.522   7.570   7.555
27040WAT     H281363   5.450   7.712   7.518
27041WAT      O81364   3.834   6.271   5.137
27041WAT     H181365   3.878   6.336   5.198
27041WAT     H281366   3.803   6.318   5.054
27042WAT      O81367   7.930   3.930   2.032
27042WAT     H181368   7.887   3.966   2.114
27042WAT     H281369   7.995   3.996   1.996
27043WAT      O81370   3.883   2.696   1.096
27043WAT     H181371   3.945   2.629   1.053
27043WAT     H281372   3.919   2.722   1.185
27044WAT      O81373   1.476   4.863   9.794
27044WAT     H181374   1.437   4.795   9.732
27044WAT     H281375   1.473   4.953   9.751
27045WAT      O81376   3.587   1.158   4.790
27045WAT     H181377   3.515   1.136   4.856
27045WAT     H281378   3.566   1.113   4.703
27046WAT      O81379   7.270   3.242   5.364
27046WAT     H181380   7.234   3.295   5.287
27046WAT     H281381   7.329   3.169   5.330
27047WAT      O81382   0.814   7.991   3.740
27047WAT     H181383   0.898   8.019   3.694
27047WAT     H281384   0.836   7.950   3.828
27048WAT      O81385   2.224   7.553   8.031
27048WAT     H181386   2.214   7.517   8.124
27048WAT     H281387   2.321   7.550   8.005
27049WAT      O81388   0.321   5.848   6.710
27049WAT     H181389   0.348   5.818   6.801
27049WAT     H281390   0.248   5.916   6.717
27050WAT      O81391   1.846   2.921   3.802
27050WAT     H181392   1.774   2.954   3.864
27050WAT     H281393   1.813   2.840   3.754
27051WAT      O81394   4.209   7.750   0.331
27051WAT     H181395   4.309   7.754   0.329
27051WAT     H281396   4.174   7.814   0.400
27052WAT      O81397   4.279   1.025   6.131
27052WAT     H181398   4.220   1.098   6.164
27052WAT     H281399   4.309   1.045   6.038
27053WAT      O81400   7.488   3.145   4.605
27053WAT     H181401   7.395   3.155   4.567
27053WAT     H281402   7.524   3.055   4.580
27054WAT      O81403   2.404   4.719   9.446
27054WAT     H181404   2.374   4.814   9.435
27054WAT     H281405   2.353   4.676   9.520
27055WAT      O81406   4.993   0.247   2.768
27055WAT     H181407   4.950   0.254   2.678
27055WAT     H281408   5.020   0.152   2.784
27056WAT      O81409   4.828   6.392   7.152
27056WAT     H181410   4.917   6.433   7.133
27056WAT     H281411   4.787   6.361   7.066
27057WAT      O81412   1.143   4.342   8.347
27057WAT     H181413   1.044   4.337   8.345
27057WAT     H281414   1.173   4.428   8.305
27058WAT      O81415   3.688   8.568   0.458
27058WAT     H181416   3.780   8.563   0.496
27058WAT     H281417   3.629   8.619   0.520
27059WAT      O81418   9.215   3.867   8.447
27059WAT     H181419   9.270   3.791   8.413
27059WAT     H281420   9.239   3.951   8.398
27060WAT      O81421   2.241   2.826   6.549
27060WAT     H181422   2.195   2.837   6.461
27060WAT     H281423   2.289   2.738   6.551
27061WAT      O81424   3.788   3.156   1.275
27061WAT     H181425   3.704   3.129   1.323
27061WAT     H281426   3.823   3.078   1.223
27062WAT      O81427   1.656   0.435   9.084
27062WAT     H181428   1.599   0.517   9.093
27062WAT     H281429   1.751   0.462   9.072
27063WAT      O81430   3.427   4.020   6.444
27063WAT     H181431   3.520   4.028   6.408
27063WAT     H281432   3.389   4.112   6.459
27064WAT      O81433   2.974   1.343   9.140
27064WAT     H181434   2.934   1.418   9.088
27064WAT     H281435   2.901   1.285   9.177
27065WAT      O81436   7.488   4.223   4.889
27065WAT     H181437   7.566   4.285   4.893
27065WAT     H281438   7.421   4.250   4.958
27066WAT      O81439   5.461   0.463   2.958
27066WAT     H181440   5.514   0.405   3.020
27066WAT     H281441   5.412   0.532   3.010
27067WAT      O81442   8.250   2.483   3.651
27067WAT     H181443   8.337   2.453   3.611
27067WAT     H281444   8.245   2.453   3.747
27068WAT      O81445   0.539   2.842   9.598
27068WAT     H181446   0.565   2.938   9.583
27068WAT     H281447   0.621   2.787   9.611
27069WAT      O81448   5.516   8.911   2.662
27069WAT     H181449   5.463   8.948   2.737
27069WAT     H281450   5.611   8.940   2.670
27070WAT      O81451   6.411   6.251   1.713
27070WAT     H181452   6.315   6.252   1.741
27070WAT     H281453   6.456   6.172   1.751
27071WAT      O81454   6.682   7.167   6.034
27071WAT     H181455   6.762   7.180   6.091
27071WAT     H281456   6.646   7.074   6.046
27072WAT      O81457   4.754   4.898   7.085
27072WAT     H181458   4.853   4.906   7.078
27072WAT     H281459   4.726   4.807   7.056
27073WAT      O81460   9.768   4.880   4.943
27073WAT     H181461   9.803   4.788   4.925
27073WAT     H281462   9.668   4.875   4.956
27074WAT      O81463   4.184   6.581   1.833
27074WAT     H181464   4.205   6.535   1.920
27074WAT     H281465   4.184   6.514   1.759
27075WAT      O81466   9.086   2.023   2.632
27075WAT     H181467   9.162   1.966   2.666
27075WAT     H281468   9.114   2.119   2.633
27076WAT      O81469   0.101   0.403   3.708
27076WAT     H181470   0.136   0.494   3.728
27076WAT     H281471   0.053   0.404   3.621
27077WAT      O81472   4.036   2.410   5.419
27077WAT     H181473   4.125   2.407   5.374
27077WAT     H281474   3.991   2.497   5.400
27078WAT      O81475   0.049   0.084   3.960
27078WAT     H181476   0.123   0.131   3.911
27078WAT     H281477   0.062  -0.015   3.955
27079WAT      O81478   0.074   6.686   7.840
27079WAT     H181479   0.126   6.602   7.857
27079WAT     H281480  -0.021   6.662   7.819
27080WAT      O81481   5.364   5.939   9.587
27080WAT     H181482   5.360   5.997   9.505
27080WAT     H281483   5.271   5.910   9.611
27081WAT      O81484   3.111   8.362   9.787
27081WAT     H181485   3.126   8.373   9.885
27081WAT     H281486   3.114   8.452   9.743
27082WAT      O81487   7.719   5.310   3.618
27082WAT     H181488   7.752   5.269   3.533
27082WAT     H281489   7.696   5.406   3.602
27083WAT      O81490   4.059   5.089   5.975
27083WAT     H181491   4.051   5.074   5.877
27083WAT     H281492   3.968   5.102   6.014
27084WAT      O81493   6.078   4.799   0.728
27084WAT     H181494   5.986   4.761   0.716
27084WAT     H281495   6.142   4.725   0.750
27085WAT      O81496   1.702   0.023   2.279
27085WAT     H181497   1.784  -0.019   2.318
27085WAT     H281498   1.640   0.050   2.353
27086WAT      O81499   4.059   6.251   9.657
27086WAT     H181500   4.008   6.328   9.618
27086WAT     H281501   3.997   6.173   9.670
27087WAT      O81502   1.612   2.831   4.352
27087WAT     H181503   1.527   2.880   4.374
27087WAT     H281504   1.590   2.750   4.297
27088WAT      O81505   0.748   8.960   8.500
27088WAT     H181506   0.818   8.966   8.572
27088WAT     H281507   0.663   8.927   8.540
27089WAT      O81508   1.369   6.859   3.383
27089WAT     H181509   1.402   6.934   3.326
27089WAT     H281510   1.326   6.790   3.324
27090WAT      O81511   8.800   8.042   2.948
27090WAT     H181512   8.801   8.120   2.886
27090WAT     H281513   8.891   8.002   2.953
27091WAT      O81514   2.349   2.994   5.370
27091WAT     H181515   2.282   2.936   5.417
27091WAT     H281516   2.430   2.939   5.347
27092WAT      O81517   5.931   8.006   8.346
27092WAT     H181518   5.851   7.947   8.348
27092WAT     H281519   5.918   8.078   8.277
27093WAT      O81520   3.166   4.879   8.579
27093WAT     H181521   3.106   4.800   8.590
27093WAT     H281522   3.230   4.862   8.504
27094WAT      O81523   4.595   2.835   4.172
27094WAT     H181524   4.548   2.838   4.084
27094WAT     H281525   4.538   2.880   4.241
27095WAT      O81526   8.782   8.394   3.810
27095WAT     H181527   8.823   8.368   3.898
27095WAT     H281528   8.847   8.448   3.757
27096WAT      O81529   7.733   2.412   1.523
27096WAT     H181530   7.783   2.495   1.547
27096WAT     H281531   7.731   2.402   1.423
27097WAT      O81532   2.313   4.688   0.098
27097WAT     H181533   2.357   4.757   0.040
27097WAT     H281534   2.258   4.734   0.168
27098WAT      O81535   2.785   3.523   0.950
27098WAT     H181536   2.803   3.538   1.047
27098WAT     H281537   2.786   3.425   0.931
27099WAT      O81538   4.964   6.774   1.288
27099WAT     H181539   4.982   6.872   1.276
27099WAT     H281540   4.871   6.761   1.322
27100WAT      O81541   2.671   5.022   5.215
27100WAT     H181542   2.708   4.936   5.249
27100WAT     H281543   2.729   5.056   5.141
27101WAT      O81544   9.671   6.770   3.074
27101WAT     H181545   9.738   6.706   3.036
27101WAT     H281546   9.621   6.815   3.000
27102WAT      O81547   0.941   1.524   9.892
27102WAT     H181548   0.950   1.579   9.808
27102WAT     H281549   0.879   1.570   9.955
27103WAT      O81550   7.533   3.000   5.656
27103WAT     H181551   7.526   3.033   5.562
27103WAT     H281552   7.521   3.076   5.720
27104WAT      O81553   0.174   9.746   8.036
27104WAT     H181554   0.104   9.675   8.029
27104WAT     H281555   0.235   9.725   8.113
27105WAT      O81556   2.826   2.788   6.824
27105WAT     H181557   2.895   2.857   6.846
27105WAT     H281558   2.736   2.824   6.847
27106WAT      O81559   3.962   6.556   2.179
27106WAT     H181560   3.916   6.581   2.094
27106WAT     H281561   3.898   6.507   2.239
27107WAT      O81562   1.160   4.342   0.603
27107WAT     H181563   1.248   4.359   0.558
27107WAT     H281564   1.136   4.419   0.661
27108WAT      O81565   1.503   4.188   6.897
27108WAT     H181566   1.487   4.089   6.893
27108WAT     H281567   1.451   4.227   6.973
27109WAT      O81568   4.165   3.537   3.309
27109WAT     H181569   4.180   3.466   3.240
27109WAT     H281570   4.135   3.621   3.264
27110WAT      O81571   6.879   8.243   6.949
27110WAT     H181572   6.939   8.163   6.943
27110WAT     H281573   6.923   8.321   6.905
27111WAT      O81574   4.695   5.286   3.888
27111WAT     H181575   4.732   5.193   3.896
27111WAT     H281576   4.700   5.332   3.976
27112WAT      O81577   4.502   4.682   8.099
27112WAT     H181578   4.408   4.695   8.128
27112WAT     H281579   4.537   4.595   8.134
27113WAT      O81580   5.834   2.244   7.819
27113WAT     H181581   5.894   2.256   7.899
27113WAT     H281582   5.890   2.240   7.736
27114WAT      O81583   8.875   1.090   8.388
27114WAT     H181584   8.816   1.083   8.469
27114WAT     H281585   8.865   1.181   8.348
27115WAT      O81586   7.485   6.211   8.880
27115WAT     H181587   7.444   6.120   8.874
27115WAT     H281588   7.429   6.277   8.830
27116WAT      O81589   0.236   8.193   9.846
27116WAT     H181590   0.144   8.160   9.825
27116WAT     H281591   0.293   8.186   9.764
27117WAT      O81592   9.296   8.511   3.265
27117WAT     H181593   9.340   8.423   3.248
27117WAT     H281594   9.289   8.562   3.179
27118WAT      O81595   6.388   2.662   3.150
27118WAT     H181596   6.456   2.654   3.077
27118WAT     H281597   6.329   2.740   3.132
27119WAT      O81598   2.620   3.484   2.347
27119WAT     H181599   2.541   3.511   2.402
27119WAT     H281600   2.627   3.541   2.266
27120WAT      O81601   6.705   3.686   8.688
27120WAT     H181602   6.612   3.661   8.714
27120WAT     H281603   6.704   3.730   8.599
27121WAT      O81604   9.779   3.421   7.430
27121WAT     H181605   9.695   3.409   7.484
27121WAT     H281606   9.805   3.334   7.389
27122WAT      O81607   7.785   1.872   7.399
27122WAT     H181608   7.710   1.807   7.388
27122WAT     H281609   7.871   1.828   7.371
27123WAT      O81610   8.763   5.019   3.946
27123WAT     H181611   8.687   5.082   3.927
27123WAT     H281612   8.732   4.925   3.934
27124WAT      O81613   0.280   8.155   5.973
27124WAT     H181614   0.291   8.215   6.052
27124WAT     H281615   0.363   8.100   5.962
27125WAT      O81616   9.892   5.220   1.836
27125WAT     H181617   9.855   5.290   1.897
27125WAT     H281618   9.817   5.165   1.799
27126WAT      O81619   7.629   3.053   2.517
27126WAT     H181620   7.724   3.023   2.501
27126WAT     H281621   7.582   3.060   2.429
27127WAT      O81622   8.906   2.792   4.948
27127WAT     H181623   8.855   2.772   4.864
27127WAT     H281624   8.857   2.862   5.000
27128WAT      O81625   9.246   2.338   6.826
27128WAT     H181626   9.188   2.309   6.750
27128WAT     H281627   9.315   2.403   6.793
27129WAT      O81628   5.827   3.235   0.973
27129WAT     H181629   5.792   3.289   1.049
27129WAT     H281630   5.757   3.170   0.942
27130WAT      O81631   4.211   3.916   5.088
27130WAT     H181632   4.259   3.865   5.159
27130WAT     H281633   4.139   3.971   5.129
27131WAT      O81634   0.818   9.309   6.829
27131WAT     H181635   0.819   9.381   6.759
27131WAT     H281636   0.899   9.319   6.887
27132WAT      O81637   3.831   4.529   6.298
27132WAT     H181638   3.768   4.451   6.293
27132WAT     H281639   3.798   4.594   6.366
27133WAT      O81640   0.976   0.086   0.056
27133WAT     H181641   0.949   0.160   0.118
27133WAT     H281642   0.894   0.038   0.025
27134WAT      O81643   7.844   8.572   6.923
27134WAT     H181644   7.901   8.502   6.882
27134WAT     H281645   7.860   8.659   6.876
27135WAT      O81646   5.830   9.524   5.432
27135WAT     H181647   5.898   9.592   5.404
27135WAT     H281648   5.742   9.547   5.391
27136WAT      O81649   0.575   2.040   9.340
27136WAT     H181650   0.511   2.099   9.291
27136WAT     H281651   0.526   1.960   9.376
27137WAT      O81652   8.656   4.639   7.700
27137WAT     H181653   8.643   4.620   7.603
27137WAT     H281654   8.730   4.705   7.712
27138WAT      O81655   1.538   0.500   1.646
27138WAT     H181656   1.563   0.460   1.734
27138WAT     H281657   1.555   0.434   1.573
27139WAT      O81658   4.611   9.492   9.567
27139WAT     H181659   4.618   9.584   9.604
27139WAT     H281660   4.620   9.425   9.642
27140WAT      O81661   5.252   4.622   6.155
27140WAT     H181662   5.163   4.588   6.127
27140WAT     H281663   5.288   4.564   6.228
27141WAT      O81664   6.331   7.897   6.303
27141WAT     H181665   6.411   7.847   6.335
27141WAT     H281666   6.292   7.950   6.378
27142WAT      O81667   3.958   1.627   1.217
27142WAT     H181668   4.055   1.611   1.232
27142WAT     H281669   3.928   1.707   1.269
27143WAT      O81670   7.091   5.889   9.791
27143WAT     H181671   7.128   5.981   9.791
27143WAT     H281672   7.006   5.887   9.844
27144WAT      O81673   8.596   8.055   2.322
27144WAT     H181674   8.656   8.010   2.388
27144WAT     H281675   8.593   8.153   2.341
27145WAT      O81676   8.707   3.085   4.135
27145WAT     H181677   8.738   3.178   4.118
27145WAT     H281678   8.751   3.023   4.070
27146WAT      O81679   1.611   0.233   4.851
27146WAT     H181680   1.684   0.298   4.873
27146WAT     H281681   1.642   0.172   4.778
27147WAT      O81682   3.562   4.131   3.888
27147WAT     H181683   3.594   4.220   3.857
27147WAT     H281684   3.576   4.064   3.815
27148WAT      O81685   8.918   2.268   5.390
27148WAT     H181686   8.844   2.297   5.450
27148WAT     H281687   8.917   2.323   5.307
27149WAT      O81688   0.851   9.551   7.688
27149WAT     H181689   0.892   9.588   7.772
27149WAT     H281690   0.752   9.559   7.693
27150WAT      O81691   0.339   8.214   5.345
27150WAT     H181692   0.312   8.175   5.257
27150WAT     H281693   0.284   8.295   5.364
27151WAT      O81694   2.228   6.978   9.477
27151WAT     H181695   2.162   7.039   9.433
27151WAT     H281696   2.321   7.010   9.456
27152WAT      O81697   0.586   9.422   7.685
27152WAT     H181698   0.622   9.335   7.716
27152WAT     H281699   0.536   9.410   7.599
27153WAT      O81700   4.714   5.143   8.216
27153WAT     H181701   4.683   5.171   8.307
27153WAT     H281702   4.683   5.049   8.198
27154WAT      O81703   0.392   2.294   8.207
27154WAT     H181704   0.393   2.386   8.244
27154WAT     H281705   0.315   2.243   8.246
27155WAT      O81706   5.974   1.639   4.572
27155WAT     H181707   5.969   1.542   4.593
27155WAT     H281708   5.947   1.692   4.652
27156WAT      O81709   1.163   9.628   5.564
27156WAT     H181710   1.117   9.539   5.573
27156WAT     H281711   1.095   9.701   5.567
27157WAT      O81712   2.524   8.409   9.391
27157WAT     H181713   2.594   8.355   9.437
27157WAT     H281714   2.441   8.353   9.380
27158WAT      O81715   1.175   0.418   6.549
27158WAT     H181716   1.148   0.419   6.646
27158WAT     H281717   1.273   0.400   6.542
27159WAT      O81718   1.126   3.842   2.210
27159WAT     H181719   1.069   3.777   2.160
27159WAT     H281720   1.070   3.916   2.245
27160WAT      O81721   4.274   6.374   5.603
27160WAT     H181722   4.312   6.335   5.687
27160WAT     H281723   4.180   6.343   5.591
27161WAT      O81724   2.427   2.124   8.794
27161WAT     H181725   2.486   2.143   8.873
27161WAT     H281726   2.479   2.137   8.710
27162WAT      O81727   4.239   4.218   1.185
27162WAT     H181728   4.197   4.207   1.094
27162WAT     H281729   4.249   4.129   1.228
27163WAT      O81730   5.630   3.476   6.148
27163WAT     H181731   5.535   3.494   6.125
27163WAT     H281732   5.650   3.378   6.138
27164WAT      O81733   8.804   4.286   4.550
27164WAT     H181734   8.852   4.224   4.612
27164WAT     H281735   8.813   4.380   4.583
27165WAT      O81736   1.491   8.886   5.574
27165WAT     H181737   1.524   8.964   5.520
27165WAT     H281738   1.392   8.896   5.589
27166WAT      O81739   0.918   7.112   4.955
27166WAT     H181740   0.887   7.101   5.050
27166WAT     H281741   0.840   7.133   4.896
27167WAT      O81742   9.743   7.584   8.514
27167WAT     H181743   9.744   7.682   8.494
27167WAT     H281744   9.656   7.559   8.554
27168WAT      O81745   2.621   1.093   6.731
27168WAT     H181746   2.602   1.079   6.828
27168WAT     H281747   2.720   1.102   6.717
27169WAT      O81748   5.283   6.627   3.884
27169WAT     H181749   5.183   6.625   3.882
27169WAT     H281750   5.318   6.666   3.799
27170WAT      O81751   5.151   9.408   7.376
27170WAT     H181752   5.112   9.486   7.327
27170WAT     H281753   5.135   9.419   7.475
27171WAT      O81754   0.116   8.701   9.781
27171WAT     H181755   0.092   8.638   9.707
27171WAT     H281756   0.215   8.709   9.787
27172WAT      O81757   6.353   2.287   0.748
27172WAT     H181758   6.348   2.386   0.738
27172WAT     H281759   6.264   2.252   0.779
27173WAT      O81760   3.284   8.699   9.399
27173WAT     H181761   3.225   8.643   9.341
27173WAT     H281762   3.379   8.693   9.367
27174WAT      O81763   4.497   7.228   4.559
27174WAT     H181764   4.454   7.168   4.492
27174WAT     H281765   4.581   7.186   4.592
27175WAT      O81766   1.870   1.300   4.423
27175WAT     H181767   1.966   1.293   4.396
27175WAT     H281768   1.855   1.386   4.473
27176WAT      O81769   0.103   3.446   9.570
27176WAT     H181770   0.102   3.439   9.471
27176WAT     H281771   0.108   3.542   9.597
27177WAT      O81772   1.641   7.989   4.619
27177WAT     H181773   1.690   8.070   4.654
27177WAT     H281774   1.635   7.995   4.519
27178WAT      O81775   7.938   1.280   0.210
27178WAT     H181776   7.908   1.375   0.220
27178WAT     H281777   7.974   1.266   0.117
27179WAT      O81778   0.849   3.937   3.599
27179WAT     H181779   0.831   3.870   3.528
27179WAT     H281780   0.890   3.892   3.679
27180WAT      O81781   4.785   3.385   1.987
27180WAT     H181782   4.703   3.333   1.965
27180WAT     H281783   4.760   3.470   2.033
27181WAT      O81784   4.895   1.536   9.800
27181WAT     H181785   4.845   1.622   9.800
27181WAT     H281786   4.882   1.489   9.713
27182WAT      O81787   4.606   0.102   8.770
27182WAT     H181788   4.526   0.078   8.714
27182WAT     H281789   4.690   0.075   8.721
27183WAT      O81790   3.989   5.050   7.052
27183WAT     H181791   4.078   5.015   7.022
27183WAT     H281792   3.925   4.974   7.061
27184WAT      O81793   7.730   8.587   3.055
27184WAT     H181794   7.779   8.641   2.986
27184WAT     H281795   7.792   8.517   3.092
27185WAT      O81796   4.157   1.172   0.856
27185WAT     H181797   4.115   1.115   0.785
27185WAT     H281798   4.198   1.253   0.813
27186WAT      O81799   9.080   0.831   4.520
27186WAT     H181800   9.024   0.873   4.448
27186WAT     H281801   9.110   0.901   4.585
27187WAT      O81802   0.100   1.111   3.104
27187WAT     H181803   0.109   1.132   3.006
27187WAT     H281804   0.191   1.092   3.142
27188WAT      O81805   3.412   0.332   3.858
27188WAT     H181806   3.449   0.340   3.951
27188WAT     H281807   3.406   0.423   3.817
27189WAT      O81808   4.061   9.296   7.083
27189WAT     H181809   4.083   9.357   7.007
27189WAT     H281810   4.146   9.259   7.122
27190WAT      O81811   7.134   3.923   5.291
27190WAT     H181812   7.095   4.015   5.290
27190WAT     H281813   7.152   3.896   5.385
27191WAT      O81814   3.024   3.522   7.371
27191WAT     H181815   2.939   3.475   7.396
27191WAT     H281816   3.053   3.581   7.447
27192WAT      O81817   0.603   3.635   5.641
27192WAT     H181818   0.554   3.710   5.595
27192WAT     H281819   0.661   3.588   5.574
27193WAT      O81820   5.827   7.833   8.621
27193WAT     H181821   5.782   7.783   8.695
27193WAT     H281822   5.920   7.856   8.649
27194WAT      O81823   8.910   3.238   0.939
27194WAT     H181824   8.901   3.185   0.855
27194WAT     H281825   8.912   3.176   1.018
27195WAT      O81826   2.708   8.981   9.651
27195WAT     H181827   2.650   8.908   9.615
27195WAT     H281828   2.650   9.050   9.695
27196WAT      O81829   7.897   4.655   6.136
27196WAT     H181830   7.983   4.666   6.087
27196WAT     H281831   7.874   4.557   6.141
27197WAT      O81832   3.585   9.829   7.121
27197WAT     H181833   3.599   9.914   7.070
27197WAT     H281834   3.657   9.819   7.190
27198WAT      O81835   8.179   5.796   7.459
27198WAT     H181836   8.086   5.808   7.494
27198WAT     H281837   8.220   5.715   7.502
27199WAT      O81838   6.828   9.335   0.378
27199WAT     H181839   6.815   9.425   0.420
27199WAT     H281840   6.758   9.272   0.412
27200WAT      O81841   0.368   7.603   3.548
27200WAT     H181842   0.377   7.702   3.553
27200WAT     H281843   0.402   7.571   3.459
27201WAT      O81844   3.088   1.969   1.554
27201WAT     H181845   3.129   1.922   1.632
27201WAT     H281846   2.993   1.991   1.573
27202WAT      O81847   4.883   6.101   5.003
27202WAT     H181848   4.948   6.043   4.953
27202WAT     H281849   4.803   6.117   4.946
27203WAT      O81850   4.286   4.400   4.776
27203WAT     H181851   4.264   4.493   4.807
27203WAT     H281852   4.307   4.342   4.854
27204WAT      O81853   3.466   6.928   0.307
27204WAT     H181854   3.487   6.921   0.405
27204WAT     H281855   3.389   6.990   0.294
27205WAT      O81856   9.749   6.118   7.917
27205WAT     H181857   9.794   6.046   7.970
27205WAT     H281858   9.800   6.133   7.832
27206WAT      O81859   9.205   1.191   1.894
27206WAT     H181860   9.279   1.143   1.847
27206WAT     H281861   9.201   1.162   1.989
27207WAT      O81862   6.488   3.481   2.666
27207WAT     H181863   6.559   3.494   2.734
27207WAT     H281864   6.434   3.565   2.657
27208WAT      O81865   7.034   3.188   5.588
27208WAT     H181866   7.075   3.192   5.497
27208WAT     H281867   6.992   3.276   5.609
27209WAT      O81868   1.512   5.175   5.972
27209WAT     H181869   1.605   5.151   5.945
27209WAT     H281870   1.478   5.108   6.038
27210WAT      O81871   9.846   6.627   9.240
27210WAT     H181872   9.873   6.660   9.330
27210WAT     H281873   9.874   6.693   9.170
27211WAT      O81874   2.712   9.802   0.791
27211WAT     H181875   2.665   9.886   0.819
27211WAT     H281876   2.724   9.743   0.871
27212WAT      O81877   9.787   5.001   6.506
27212WAT     H181878   9.732   4.930   6.549
27212WAT     H281879   9.737   5.038   6.427
27213WAT      O81880   8.635   2.029   7.233
27213WAT     H181881   8.683   2.064   7.152
27213WAT     H281882   8.695   1.965   7.281
27214WAT      O81883   4.604   4.364   8.447
27214WAT     H181884   4.615   4.265   8.442
27214WAT     H281885   4.601   4.392   8.543
27215WAT      O81886   8.955   4.693   7.230
27215WAT     H181887   8.915   4.604   7.250
27215WAT     H281888   8.924   4.725   7.141
27216WAT      O81889   1.250   2.821   8.109
27216WAT     H181890   1.297   2.742   8.147
27216WAT     H281891   1.195   2.792   8.031
27217WAT      O81892   9.426   1.818   1.749
27217WAT     H181893   9.477   1.778   1.825
27217WAT     H281894   9.391   1.908   1.776
27218WAT      O81895   2.303   7.506   2.331
27218WAT     H181896   2.365   7.532   2.404
27218WAT     H281897   2.239   7.437   2.364
27219WAT      O81898   3.985   5.914   6.899
27219WAT     H181899   4.055   5.849   6.931
27219WAT     H281900   3.962   5.893   6.804
27220WAT      O81901   0.156   5.708   7.324
27220WAT     H181902   0.172   5.790   7.380
27220WAT     H281903   0.059   5.702   7.301
27221WAT      O81904   0.875   8.620   9.687
27221WAT     H181905   0.965   8.662   9.697
27221WAT     H281906   0.875   8.561   9.606
27222WAT      O81907   1.626   7.298   6.494
27222WAT     H181908   1.703   7.246   6.531
27222WAT     H281909   1.593   7.253   6.411
27223WAT      O81910   1.814   4.747   2.429
27223WAT     H181911   1.746   4.674   2.439
27223WAT     H281912   1.892   4.714   2.376
27224WAT      O81913   7.351   2.847   0.235
27224WAT     H181914   7.304   2.775   0.285
27224WAT     H281915   7.391   2.809   0.152
27225WAT      O81916   6.707   4.185   1.503
27225WAT     H181917   6.728   4.105   1.446
27225WAT     H281918   6.647   4.157   1.578
27226WAT      O81919   2.626   9.715   8.968
27226WAT     H181920   2.587   9.752   8.884
27226WAT     H281921   2.554   9.668   9.020
27227WAT      O81922   2.034   6.270   0.705
27227WAT     H181923   2.056   6.307   0.795
27227WAT     H281924   2.031   6.170   0.710
27228WAT      O81925   6.241   4.103   8.611
27228WAT     H181926   6.157   4.156   8.607
27228WAT     H281927   6.282   4.112   8.701
27229WAT      O81928   9.253   3.850   9.616
27229WAT     H181929   9.158   3.857   9.647
27229WAT     H281930   9.313   3.898   9.680
27230WAT      O81931   9.448   8.986   5.990
27230WAT     H181932   9.407   8.984   5.898
27230WAT     H281933   9.384   9.028   6.054
27231WAT      O81934   0.190   6.687   9.834
27231WAT     H181935   0.267   6.637   9.873
27231WAT     H281936   0.220   6.739   9.754
27232WAT      O81937   1.763   1.810   3.968
27232WAT     H181938   1.825   1.863   3.910
27232WAT     H281939   1.680   1.863   3.985
27233WAT      O81940   9.009   1.761   5.339
27233WAT     H181941   8.975   1.847   5.379
27233WAT     H281942   9.084   1.780   5.277
27234WAT      O81943   1.897   6.791   4.374
27234WAT     H181944   1.825   6.860   4.383
27234WAT     H281945   1.866   6.705   4.414
27235WAT      O81946   0.887   6.462   0.315
27235WAT     H181947   0.812   6.406   0.280
27235WAT     H281948   0.877   6.472   0.414
27236WAT      O81949   9.288   5.148   5.388
27236WAT     H181950   9.244   5.060   5.401
27236WAT     H281951   9.242   5.217   5.444
27237WAT      O81952   4.096   4.945   8.179
27237WAT     H181953   4.043   4.940   8.095
27237WAT     H281954   4.119   4.853   8.210
27238WAT      O81955   9.292   2.360   4.691
27238WAT     H181956   9.344   2.362   4.606
27238WAT     H281957   9.324   2.284   4.748
27239WAT      O81958   5.318   8.000   5.158
27239WAT     H181959   5.334   7.907   5.124
27239WAT     H281960   5.388   8.061   5.121
27240WAT      O81961   8.423   6.927   6.947
27240WAT     H181962   8.471   7.008   6.913
27240WAT     H281963   8.408   6.863   6.872
27241WAT      O81964   8.224   5.653   4.629
27241WAT     H181965   8.201   5.567   4.583
27241WAT     H281966   8.226   5.639   4.728
27242WAT      O81967   0.378   0.038   5.177
27242WAT     H181968   0.349   0.129   5.147
27242WAT     H281969   0.403  -0.017   5.098
27243WAT      O81970   1.752   5.164   8.504
27243WAT     H181971   1.849   5.142   8.515
27243WAT     H281972   1.709   5.096   8.445
27244WAT      O81973   9.415   8.394   4.454
27244WAT     H181974   9.449   8.315   4.403
27244WAT     H281975   9.335   8.367   4.508
27245WAT      O81976   4.661   7.407   0.739
27245WAT     H181977   4.570   7.367   0.751
27245WAT     H281978   4.729   7.351   0.787
27246WAT      O81979   2.146   3.635   7.863
27246WAT     H181980   2.074   3.567   7.870
27246WAT     H281981   2.158   3.663   7.768
27247WAT      O81982   8.636   7.019   5.082
27247WAT     H181983   8.651   7.013   4.983
27247WAT     H281984   8.719   7.053   5.127
27248WAT      O81985   2.673   0.893   1.590
27248WAT     H181986   2.655   0.812   1.534
27248WAT     H281987   2.673   0.866   1.687
27249WAT      O81988   3.133   7.335   1.105
27249WAT     H181989   3.068   7.293   1.168
27249WAT     H281990   3.115   7.434   1.100
27250WAT      O81991   1.688   2.690   6.078
27250WAT     H181992   1.617   2.637   6.126
27250WAT     H281993   1.682   2.672   5.980
27251WAT      O81994   2.584   8.011   9.893
27251WAT     H181995   2.638   7.955   9.830
27251WAT     H281996   2.564   8.099   9.851
27252WAT      O81997   6.305   7.138   2.539
27252WAT     H181998   6.312   7.067   2.609
27252WAT     H281999   6.302   7.095   2.449
27253WAT      O82000   7.263   9.371   2.830
27253WAT     H182001   7.188   9.305   2.820
27253WAT     H282002   7.290   9.376   2.926
27254WAT      O82003   8.690   2.522   4.513
27254WAT     H182004   8.595   2.499   4.533
27254WAT     H282005   8.705   2.520   4.414
27255WAT      O82006   2.344   1.377   2.723
27255WAT     H182007   2.311   1.470   2.707
27255WAT     H282008   2.419   1.358   2.660
27256WAT      O82009   7.333   3.657   7.104
27256WAT     H182010   7.314   3.599   7.024
27256WAT     H282011   7.312   3.752   7.082
27257WAT      O82012   7.232   0.871   5.464
27257WAT     H182013   7.243   0.865   5.365
27257WAT     H282014   7.274   0.956   5.496
27258WAT      O82015   2.025   8.844   3.730
27258WAT     H182016   1.985   8.762   3.689
27258WAT     H282017   1.967   8.874   3.806
27259WAT      O82018   3.170   7.184   0.615
27259WAT     H182019   3.199   7.252   0.682
27259WAT     H282020   3.175   7.093   0.656
27260WAT      O82021   9.747   0.015   2.718
27260WAT     H182022   9.676  -0.049   2.747
27260WAT     H282023   9.720   0.108   2.744
27261WAT      O82024   8.818   4.798   9.746
27261WAT     H182025   8.889   4.742   9.704
27261WAT     H282026   8.839   4.895   9.730
27262WAT      O82027   3.826   5.928   3.724
27262WAT     H182028   3.889   5.888   3.657
27262WAT     H282029   3.821   6.027   3.712
27263WAT      O82030   4.185   6.015   4.094
27263WAT     H182031   4.192   5.965   4.181
27263WAT     H282032   4.093   6.052   4.084
27264WAT      O82033   3.927   0.469   0.401
27264WAT     H182034   3.870   0.426   0.471
27264WAT     H282035   4.024   0.453   0.422
27265WAT      O82036   4.280   4.311   8.837
27265WAT     H182037   4.304   4.288   8.931
27265WAT     H282038   4.181   4.310   8.826
27266WAT      O82039   5.137   4.523   0.589
27266WAT     H182040   5.074   4.553   0.661
27266WAT     H282041   5.156   4.425   0.600
27267WAT      O82042   7.648   5.075   4.191
27267WAT     H182043   7.677   4.983   4.218
27267WAT     H282044   7.645   5.081   4.091
27268WAT      O82045   4.103   5.661   1.775
27268WAT     H182046   4.123   5.647   1.678
27268WAT     H282047   4.178   5.712   1.817
27269WAT      O82048   8.794   5.041   5.903
27269WAT     H182049   8.813   5.099   5.824
27269WAT     H282050   8.866   5.054   5.972
27270WAT      O82051   2.669   6.093   1.312
27270WAT     H182052   2.578   6.121   1.341
27270WAT     H282053   2.706   6.026   1.376
27271WAT      O82054   1.080   3.417   0.937
27271WAT     H182055   1.124   3.375   1.016
27271WAT     H282056   1.149   3.445   0.870
27272WAT      O82057   5.381   7.780   3.249
27272WAT     H182058   5.289   7.741   3.246
27272WAT     H282059   5.413   7.794   3.155
27273WAT      O82060   4.575   6.589   8.829
27273WAT     H182061   4.581   6.521   8.903
27273WAT     H282062   4.531   6.672   8.864
27274WAT      O82063   6.340   6.962   8.301
27274WAT     H182064   6.372   6.961   8.206
27274WAT     H282065   6.406   6.913   8.359
27275WAT      O82066   9.300   3.374   5.262
27275WAT     H182067   9.369   3.303   5.274
27275WAT     H282068   9.344   3.459   5.231
27276WAT      O82069   2.676   6.486   8.208
27276WAT     H182070   2.730   6.448   8.133
27276WAT     H282071   2.730   6.554   8.257
27277WAT      O82072   4.271   5.886   0.653
27277WAT     H182073   4.297   5.876   0.749
27277WAT     H282074   4.215   5.967   0.642
27278WAT      O82075   5.211   5.965   1.439
27278WAT     H182076   5.307   5.937   1.432
27278WAT     H282077   5.192   5.999   1.531
27279WAT      O82078   4.490   3.403   3.063
27279WAT     H182079   4.404   3.447   3.038
27279WAT     H282080   4.551   3.400   2.984
27280WAT      O82081   6.542   2.010   9.159
27280WAT     H182082   6.509   1.947   9.230
27280WAT     H282083   6.534   2.104   9.192
27281WAT      O82084   2.415   8.180   6.052
27281WAT     H182085   2.419   8.120   5.972
27281WAT     H282086   2.501   8.175   6.103
27282WAT      O82087   1.063   1.197   2.681
27282WAT     H182088   1.059   1.277   2.621
27282WAT     H282089   1.047   1.225   2.775
27283WAT      O82090   1.179   2.015   8.351
27283WAT     H182091   1.188   2.051   8.444
27283WAT     H282092   1.216   2.081   8.286
27284WAT      O82093   9.201   7.401   3.407
27284WAT     H182094   9.255   7.324   3.373
27284WAT     H282095   9.199   7.473   3.338
27285WAT      O82096   8.380   9.373   9.168
27285WAT     H182097   8.413   9.335   9.255
27285WAT     H282098   8.386   9.303   9.097
27286WAT      O82099   6.948   0.632   7.124
27286WAT     H182100   6.995   0.550   7.094
27286WAT     H282101   6.956   0.640   7.224
27287WAT      O82102   0.148   0.839   1.636
27287WAT     H182103   0.135   0.792   1.549
27287WAT     H282104   0.223   0.795   1.687
27288WAT      O82105   6.839   2.028   9.208
27288WAT     H182106   6.751   1.997   9.172
27288WAT     H282107   6.856   2.122   9.176
27289WAT      O82108   7.340   6.671   9.021
27289WAT     H182109   7.439   6.687   9.019
27289WAT     H282110   7.320   6.601   9.090
27290WAT      O82111   5.925   1.729   9.847
27290WAT     H182112   5.828   1.722   9.868
27290WAT     H282113   5.979   1.698   9.926
27291WAT      O82114   6.298   3.704   9.657
27291WAT     H182115   6.348   3.740   9.736
27291WAT     H282116   6.361   3.660   9.594
27292WAT      O82117   6.503   0.221   0.099
27292WAT     H182118   6.536   0.167   0.176
27292WAT     H282119   6.404   0.208   0.089
27293WAT      O82120   9.595   9.292   1.131
27293WAT     H182121   9.618   9.221   1.065
27293WAT     H282122   9.588   9.380   1.085
27294WAT      O82123   8.768   1.704   0.735
27294WAT     H182124   8.764   1.783   0.796
27294WAT     H282125   8.778   1.735   0.641
27295WAT      O82126   0.453   8.975   7.652
27295WAT     H182127   0.539   9.014   7.618
27295WAT     H282128   0.402   9.046   7.701
27296WAT      O82129   4.109   3.187   2.333
27296WAT     H182130   4.161   3.145   2.407
27296WAT     H282131   4.037   3.125   2.304
27297WAT      O82132   0.849   6.319   6.114
27297WAT     H182133   0.870   6.223   6.133
27297WAT     H282134   0.854   6.334   6.015
27298WAT      O82135   4.537   9.284   2.365
27298WAT     H182136   4.511   9.370   2.409
27298WAT     H282137   4.570   9.303   2.272
27299WAT      O82138   7.703   3.583   4.693
27299WAT     H182139   7.615   3.578   4.741
27299WAT     H282140   7.754   3.663   4.724
27300WAT      O82141   4.266   0.546   7.823
27300WAT     H182142   4.191   0.588   7.875
27300WAT     H282143   4.277   0.451   7.853
27301WAT      O82144   4.699   8.017   9.734
27301WAT     H182145   4.738   8.100   9.774
27301WAT     H282146   4.671   7.955   9.807
27302WAT      O82147   1.653   6.773   8.551
27302WAT     H182148   1.709   6.698   8.586
27302WAT     H282149   1.682   6.797   8.459
27303WAT      O82150   0.969   7.360   4.871
27303WAT     H182151   0.944   7.434   4.933
27303WAT     H282152   0.954   7.272   4.916
27304WAT      O82153   7.138   8.514   2.539
27304WAT     H182154   7.058   8.466   2.503
27304WAT     H282155   7.135   8.512   2.639
27305WAT      O82156   3.278   1.920   9.173
27305WAT     H182157   3.180   1.913   9.157
27305WAT     H282158   3.320   1.975   9.101
27306WAT      O82159   3.504   8.092   9.589
27306WAT     H182160   3.524   7.994   9.591
27306WAT     H282161   3.430   8.112   9.654
27307WAT      O82162   0.327   4.115   8.037
27307WAT     H182163   0.399   4.184   8.026
27307WAT     H282164   0.357   4.028   7.999
27308WAT      O82165   8.155   0.562   1.284
27308WAT     H182166   8.165   0.604   1.194
27308WAT     H282167   8.239   0.574   1.336
27309WAT      O82168   2.483   5.107   3.736
27309WAT     H182169   2.526   5.095   3.826
27309WAT     H282170   2.512   5.194   3.697
27310WAT      O82171   3.655   7.233   4.946
27310WAT     H182172   3.720   7.297   4.905
27310WAT     H282173   3.604   7.186   4.873
27311WAT      O82174   9.792   4.889   0.450
27311WAT     H182175   9.870   4.949   0.433
27311WAT     H282176   9.708   4.936   0.422
27312WAT      O82177   3.075   1.544   2.024
27312WAT     H182178   3.065   1.447   2.002
27312WAT     H282179   3.166   1.575   1.997
27313WAT      O82180   1.048   7.884   0.469
27313WAT     H182181   1.003   7.874   0.381
27313WAT     H282182   1.032   7.977   0.504
27314WAT      O82183   6.743   3.931   8.943
27314WAT     H182184   6.656   3.892   8.911
27314WAT     H282185   6.775   4.000   8.878
27315WAT      O82186   5.146   1.715   1.830
27315WAT     H182187   5.230   1.744   1.784
27315WAT     H282188   5.122   1.783   1.900
27316WAT      O82189   5.110   2.338   2.008
27316WAT     H182190   5.120   2.296   1.918
27316WAT     H282191   5.086   2.267   2.075
27317WAT      O82192   1.107   1.761   8.994
27317WAT     H182193   1.139   1.667   8.989
27317WAT     H282194   1.010   1.763   9.016
27318WAT      O82195   5.957   1.547   2.742
27318WAT     H182196   6.024   1.507   2.678
27318WAT     H282197   5.990   1.537   2.835
27319WAT      O82198   2.875   1.158   7.007
27319WAT     H182199   2.873   1.149   6.908
27319WAT     H282200   2.793   1.205   7.039
27320WAT      O82201   2.474   5.129   9.274
27320WAT     H182202   2.404   5.100   9.340
27320WAT     H282203   2.505   5.049   9.222
27321WAT      O82204   8.213   3.649   7.396
27321WAT     H182205   8.174   3.557   7.390
27321WAT     H282206   8.307   3.648   7.362
27322WAT      O82207   4.803   6.471   6.158
27322WAT     H182208   4.786   6.569   6.175
27322WAT     H282209   4.725   6.418   6.190
27323WAT      O82210   5.387   6.979   5.549
27323WAT     H182211   5.348   7.066   5.581
27323WAT     H282212   5.482   6.994   5.522
27324WAT      O82213   7.318   9.046   9.717
27324WAT     H182214   7.338   9.013   9.625
27324WAT     H282215   7.378   9.123   9.739
27325WAT      O82216   5.993   1.780   4.305
27325WAT     H182217   6.075   1.815   4.349
27325WAT     H282218   5.926   1.754   4.374
27326WAT      O82219   8.854   7.925   6.707
27326WAT     H182220   8.927   7.874   6.661
27326WAT     H282221   8.856   7.906   6.805
27327WAT      O82222   4.862   3.579   9.157
27327WAT     H182223   4.849   3.502   9.095
27327WAT     H282224   4.857   3.546   9.252
27328WAT      O82225   1.136   0.840   9.002
27328WAT     H182226   1.227   0.812   8.972
27328WAT     H282227   1.085   0.877   8.924
27329WAT      O82228   1.130   5.284   8.481
27329WAT     H182229   1.068   5.232   8.540
27329WAT     H282230   1.093   5.285   8.388
27330WAT      O82231   2.710   3.065   1.700
27330WAT     H182232   2.662   3.012   1.631
27330WAT     H282233   2.648   3.086   1.775
27331WAT      O82234   2.613   2.104   7.174
27331WAT     H182235   2.521   2.129   7.203
27331WAT     H282236   2.611   2.070   7.080
27332WAT      O82237   6.552   8.634   1.312
27332WAT     H182238   6.581   8.658   1.219
27332WAT     H282239   6.452   8.627   1.315
27333WAT      O82240   8.947   0.247   9.493
27333WAT     H182241   8.893   0.282   9.570
27333WAT     H282242   9.035   0.294   9.491
27334WAT      O82243   2.237   7.598   3.326
27334WAT     H182244   2.326   7.642   3.319
27334WAT     H282245   2.175   7.657   3.378
27335WAT      O82246   4.872   5.280   0.477
27335WAT     H182247   4.838   5.375   0.475
27335WAT     H282248   4.800   5.220   0.510
27336WAT      O82249   6.093   4.385   7.798
27336WAT     H182250   6.166   4.443   7.761
27336WAT     H282251   6.093   4.297   7.751
27337WAT      O82252   4.348   2.434   7.659
27337WAT     H182253   4.357   2.534   7.655
27337WAT     H282254   4.346   2.397   7.566
27338WAT      O82255   6.533   8.135   5.979
27338WAT     H182256   6.593   8.066   5.940
27338WAT     H282257   6.475   8.094   6.050
27339WAT      O82258   5.766   0.161   6.966
27339WAT     H182259   5.710   0.146   6.884
27339WAT     H282260   5.722   0.231   7.023
27340WAT      O82261   4.726   8.670   3.370
27340WAT     H182262   4.703   8.691   3.465
27340WAT     H282263   4.656   8.611   3.331
27341WAT      O82264   2.708   0.861   1.876
27341WAT     H182265   2.746   0.775   1.910
27341WAT     H282266   2.783   0.920   1.845
27342WAT      O82267   5.880   8.746   4.514
27342WAT     H182268   5.801   8.730   4.456
27342WAT     H282269   5.944   8.669   4.506
27343WAT      O82270   6.204   9.085   7.305
27343WAT     H182271   6.209   9.067   7.207
27343WAT     H282272   6.114   9.124   7.327
27344WAT      O82273   4.561   3.468   4.785
27344WAT     H182274   4.660   3.472   4.769
27344WAT     H282275   4.541   3.394   4.849
27345WAT      O82276   1.596   5.570   2.421
27345WAT     H182277   1.538   5.563   2.341
27345WAT     H282278   1.597   5.483   2.471
27346WAT      O82279   5.942   2.609   1.261
27346WAT     H182280   5.991   2.631   1.345
27346WAT     H282281   5.979   2.663   1.186
27347WAT      O82282   1.992   3.671   5.316
27347WAT     H182283   2.081   3.698   5.278
27347WAT     H282284   2.003   3.646   5.412
27348WAT      O82285   6.562   3.977   2.085
27348WAT     H182286   6.566   3.880   2.065
27348WAT     H282287   6.488   4.019   2.033
27349WAT      O82288   9.360   4.544   4.192
27349WAT     H182289   9.264   4.567   4.176
27349WAT     H282290   9.397   4.500   4.110
27350WAT      O82291   2.855   2.881   5.272
27350WAT     H182292   2.892   2.969   5.244
27350WAT     H282293   2.832   2.827   5.190
27351WAT      O82294   4.857   9.120   1.208
27351WAT     H182295   4.767   9.133   1.250
27351WAT     H282296   4.851   9.047   1.139
27352WAT      O82297   5.417   7.138   3.273
27352WAT     H182298   5.403   7.235   3.294
27352WAT     H282299   5.355   7.112   3.199
27353WAT      O82300   4.096   7.397   3.217
27353WAT     H182301   4.147   7.452   3.283
27353WAT     H282302   4.111   7.300   3.236
27354WAT      O82303   3.846   2.917   6.971
27354WAT     H182304   3.781   2.945   7.041
27354WAT     H282305   3.847   2.817   6.964
27355WAT      O82306   4.244   3.520   6.833
27355WAT     H182307   4.294   3.436   6.855
27355WAT     H282308   4.145   3.501   6.835
27356WAT      O82309   3.378   8.348   2.940
27356WAT     H182310   3.310   8.392   2.883
27356WAT     H282311   3.453   8.313   2.883
27357WAT      O82312   2.978   1.801   6.692
27357WAT     H182313   2.967   1.702   6.695
27357WAT     H282314   3.049   1.825   6.625
27358WAT      O82315   6.093   2.002   5.027
27358WAT     H182316   6.179   2.053   5.039
27358WAT     H282317   6.047   2.034   4.944
27359WAT      O82318   4.972   3.413   4.429
27359WAT     H182319   5.057   3.384   4.385
27359WAT     H282320   4.925   3.333   4.467
27360WAT      O82321   2.883   4.869   8.603
27360WAT     H182322   2.922   4.908   8.519
27360WAT     H282323   2.889   4.770   8.599
27361WAT      O82324   4.406   1.094   9.475
27361WAT     H182325   4.321   1.102   9.527
27361WAT     H282326   4.470   1.165   9.504
27362WAT      O82327   8.060   9.837   9.141
27362WAT     H182328   8.144   9.792   9.110
27362WAT     H282329   8.084   9.916   9.198
27363WAT      O82330   0.754   2.895   8.682
27363WAT     H182331   0.709   2.910   8.770
27363WAT     H282332   0.708   2.822   8.632
27364WAT      O82333   3.598   5.434   1.435
27364WAT     H182334   3.594   5.497   1.512
27364WAT     H282335   3.520   5.371   1.439
27365WAT      O82336   3.283   5.907   2.465
27365WAT     H182337   3.192   5.941   2.489
27365WAT     H282338   3.331   5.977   2.412
27366WAT      O82339   8.615   3.441   0.726
27366WAT     H182340   8.682   3.505   0.764
27366WAT     H282341   8.523   3.480   0.733
27367WAT      O82342   6.975   1.936   7.920
27367WAT     H182343   7.007   1.862   7.861
27367WAT     H282344   6.887   1.912   7.960
27368WAT      O82345   5.750   7.254   3.369
27368WAT     H182346   5.797   7.169   3.347
27368WAT     H282347   5.792   7.295   3.450
27369WAT      O82348   9.568   3.204   4.241
27369WAT     H182349   9.626   3.135   4.197
27369WAT     H282350   9.623   3.285   4.260
27370WAT      O82351   4.250   8.575   4.562
27370WAT     H182352   4.223   8.567   4.466
27370WAT     H282353   4.299   8.661   4.576
27371WAT      O82354   8.559   8.962   3.011
27371WAT     H182355   8.564   8.977   2.913
27371WAT     H282356   8.473   8.999   3.047
27372WAT      O82357   5.277   1.633   5.476
27372WAT     H182358   5.310   1.623   5.382
27372WAT     H282359   5.334   1.577   5.537
27373WAT      O82360   9.545   7.669   5.824
27373WAT     H182361   9.535   7.757   5.778
27373WAT     H282362   9.575   7.683   5.918
27374WAT      O82363   7.722   5.589   1.656
27374WAT     H182364   7.792   5.657   1.678
27374WAT     H282365   7.632   5.626   1.677
27375WAT      O82366   5.595   0.735   0.837
27375WAT     H182367   5.617   0.795   0.914
27375WAT     H282368   5.515   0.770   0.788
27376WAT      O82369   9.518   4.725   2.654
27376WAT     H182370   9.447   4.756   2.591
27376WAT     H282371   9.608   4.738   2.611
27377WAT      O82372   7.875   5.684   0.861
27377WAT     H182373   7.968   5.664   0.893
27377WAT     H282374   7.879   5.706   0.763
27378WAT      O82375   6.276   7.345   1.590
27378WAT     H182376   6.321   7.434   1.583
27378WAT     H282377   6.332   7.276   1.545
27379WAT      O82378   2.521   9.347   6.690
27379WAT     H182379   2.482   9.411   6.623
27379WAT     H282380   2.448   9.310   6.747
27380WAT      O82381   9.060   1.675   3.335
27380WAT     H182382   9.000   1.752   3.312
27380WAT     H282383   9.155   1.703   3.325
27381WAT      O82384   2.158   9.066   3.113
27381WAT     H182385   2.150   8.993   3.181
27381WAT     H282386   2.211   9.033   3.035
27382WAT      O82387   6.790   7.164   2.072
27382WAT     H182388   6.696   7.167   2.038
27382WAT     H282389   6.793   7.201   2.164
27383WAT      O82390   5.545   7.875   2.115
27383WAT     H182391   5.621   7.904   2.174
27383WAT     H282392   5.481   7.819   2.168
27384WAT      O82393   8.219   6.613   6.258
27384WAT     H182394   8.199   6.708   6.283
27384WAT     H282395   8.145   6.579   6.199
27385WAT      O82396   5.121   8.492   0.841
27385WAT     H182397   5.168   8.427   0.901
27385WAT     H282398   5.180   8.571   0.825
27386WAT      O82399   7.137   8.073   7.930
27386WAT     H182400   7.235   8.052   7.929
27386WAT     H282401   7.122   8.164   7.891
27387WAT      O82402   7.588   5.410   4.357
27387WAT     H182403   7.551   5.338   4.299
27387WAT     H282404   7.687   5.415   4.347
27388WAT      O82405   7.778   1.845   8.311
27388WAT     H182406   7.843   1.828   8.237
27388WAT     H282407   7.804   1.929   8.359
27389WAT      O82408   2.021   8.497   8.720
27389WAT     H182409   2.067   8.576   8.760
27389WAT     H282410   2.087   8.423   8.706
27390WAT      O82411   2.124   5.063   6.051
27390WAT     H182412   2.170   5.086   5.966
27390WAT     H282413   2.041   5.011   6.031
27391WAT      O82414   8.012   7.453   0.701
27391WAT     H182415   8.004   7.406   0.614
27391WAT     H282416   8.101   7.498   0.708
27392WAT      O82417   8.010   3.154   9.645
27392WAT     H182418   7.987   3.234   9.589
27392WAT     H282419   7.950   3.151   9.725
27393WAT      O82420   2.000   4.934   9.210
27393WAT     H182421   2.022   4.963   9.303
27393WAT     H282422   2.077   4.884   9.171
27394WAT      O82423   4.825   2.636   6.795
27394WAT     H182424   4.810   2.613   6.699
27394WAT     H282425   4.802   2.733   6.810
27395WAT      O82426   0.452   2.613   9.439
27395WAT     H182427   0.454   2.678   9.515
27395WAT     H282428   0.517   2.642   9.368
27396WAT      O82429   9.503   1.627   6.915
27396WAT     H182430   9.516   1.601   6.819
27396WAT     H282431   9.411   1.664   6.927
27397WAT      O82432   5.598   1.276   2.251
27397WAT     H182433   5.649   1.249   2.332
27397WAT     H282434   5.564   1.370   2.263
27398WAT      O82435   6.716   8.156   1.616
27398WAT     H182436   6.772   8.150   1.699
27398WAT     H282437   6.738   8.079   1.556
27399WAT      O82438   5.795   5.146   5.885
27399WAT     H182439   5.701   5.113   5.890
27399WAT     H282440   5.823   5.180   5.974
27400WAT      O82441   4.508   5.197   0.784
27400WAT     H182442   4.499   5.295   0.768
27400WAT     H282443   4.505   5.178   0.882
27401WAT      O82444   0.523   3.655   7.148
27401WAT     H182445   0.560   3.660   7.241
27401WAT     H282446   0.456   3.581   7.143
27402WAT      O82447   9.613   4.330   9.186
27402WAT     H182448   9.543   4.397   9.211
27402WAT     H282449   9.585   4.281   9.103
27403WAT      O82450   2.481   6.211   1.691
27403WAT     H182451   2.516   6.178   1.778
27403WAT     H282452   2.482   6.137   1.624
27404WAT      O82453   8.541   0.132   3.567
27404WAT     H182454   8.619   0.109   3.626
27404WAT     H282455   8.541   0.072   3.487
27405WAT      O82456   8.242   1.429   8.254
27405WAT     H182457   8.206   1.463   8.342
27405WAT     H282458   8.340   1.412   8.263
27406WAT      O82459   4.097   4.890   6.392
27406WAT     H182460   4.163   4.818   6.415
27406WAT     H282461   4.063   4.877   6.299
27407WAT      O82462   1.916   6.570   2.519
27407WAT     H182463   1.879   6.532   2.605
27407WAT     H282464   2.013   6.590   2.531
27408WAT      O82465   4.161   4.681   9.242
27408WAT     H182466   4.104   4.761   9.222
27408WAT     H282467   4.246   4.712   9.286
27409WAT      O82468   5.272   0.783   5.152
27409WAT     H182469   5.336   0.746   5.220
27409WAT     H282470   5.283   0.882   5.146
27410WAT      O82471   2.644   3.137   0.671
27410WAT     H182472   2.624   3.218   0.616
27410WAT     H282473   2.702   3.163   0.748
27411WAT      O82474   4.798   4.935   8.499
27411WAT     H182475   4.698   4.944   8.494
27411WAT     H282476   4.838   4.971   8.414
27412WAT      O82477   5.918   5.984   9.397
27412WAT     H182478   5.877   6.014   9.310
27412WAT     H282479   5.900   6.053   9.467
27413WAT      O82480   6.339   8.087   8.149
27413WAT     H182481   6.362   8.069   8.053
27413WAT     H282482   6.315   8.184   8.160
27414WAT      O82483   3.480   2.840   5.494
27414WAT     H182484   3.427   2.755   5.483
27414WAT     H282485   3.422   2.918   5.473
27415WAT      O82486   4.943   1.008   4.669
27415WAT     H182487   4.983   1.099   4.663
27415WAT     H282488   4.991   0.954   4.739
27416WAT      O82489   6.641   5.932   6.599
27416WAT     H182490   6.663   6.022   6.560
27416WAT     H282491   6.585   5.881   6.534
27417WAT      O82492   1.419   9.643   1.329
27417WAT     H182493   1.391   9.725   1.379
27417WAT     H282494   1.340   9.585   1.312
27418WAT      O82495   5.134   6.575   8.397
27418WAT     H182496   5.066   6.520   8.447
27418WAT     H282497   5.087   6.645   8.343
27419WAT      O82498   3.769   2.901   8.728
27419WAT     H182499   3.758   2.978   8.790
27419WAT     H282500   3.858   2.907   8.682
27420WAT      O82501   9.196   9.718   1.819
27420WAT     H182502   9.195   9.684   1.913
27420WAT     H282503   9.139   9.800   1.813
27421WAT      O82504   9.815   0.813   8.495
27421WAT     H182505   9.725   0.845   8.524
27421WAT     H282506   9.826   0.826   8.397
27422WAT      O82507   5.172   0.585   1.543
27422WAT     H182508   5.127   0.498   1.522
27422WAT     H282509   5.247   0.569   1.607
27423WAT      O82510   4.210   3.455   5.187
27423WAT     H182511   4.120   3.460   5.143
27423WAT     H282512   4.202   3.403   5.272
27424WAT      O82513   6.275   6.124   7.078
27424WAT     H182514   6.271   6.126   6.979
27424WAT     H282515   6.311   6.035   7.109
27425WAT      O82516   4.916   7.560   7.553
27425WAT     H182517   4.926   7.487   7.620
27425WAT     H282518   4.820   7.591   7.552
27426WAT      O82519   1.178   5.764   8.244
27426WAT     H182520   1.158   5.756   8.342
27426WAT     H282521   1.098   5.801   8.197
27427WAT      O82522   5.472   8.810   6.843
27427WAT     H182523   5.378   8.788   6.866
27427WAT     H282524   5.528   8.811   6.926
27428WAT      O82525   6.423   7.368   0.986
27428WAT     H182526   6.448   7.277   0.956
27428WAT     H282527   6.327   7.369   1.016
27429WAT      O82528   5.114   2.346   5.661
27429WAT     H182529   5.040   2.288   5.626
27429WAT     H282530   5.153   2.304   5.743
27430WAT      O82531   3.989   7.057   0.529
27430WAT     H182532   4.001   7.074   0.431
27430WAT     H282533   4.003   7.142   0.579
27431WAT      O82534   2.222   7.053   7.127
27431WAT     H182535   2.164   7.119   7.080
27431WAT     H282536   2.164   6.985   7.172
27432WAT      O82537   2.319   0.235   7.135
27432WAT     H182538   2.405   0.278   7.105
27432WAT     H282539   2.253   0.236   7.060
27433WAT      O82540   7.314   1.509   2.558
27433WAT     H182541   7.328   1.411   2.569
27433WAT     H282542   7.221   1.534   2.586
27434WAT      O82543   3.886   6.235   3.450
27434WAT     H182544   3.812   6.264   3.390
27434WAT     H282545   3.973   6.237   3.400
27435WAT      O82546   4.707   7.640   9.790
27435WAT     H182547   4.795   7.626   9.745
27435WAT     H282548   4.703   7.732   9.830
27436WAT      O82549   4.614   6.156   8.158
27436WAT     H182550   4.532   6.166   8.101
27436WAT     H282551   4.689   6.121   8.102
27437WAT      O82552   0.704   3.687   2.750
27437WAT     H182553   0.689   3.618   2.821
27437WAT     H282554   0.795   3.676   2.711
27438WAT      O82555   3.431   7.167   8.020
27438WAT     H182556   3.356   7.218   8.060
27438WAT     H282557   3.403   7.132   7.930
27439WAT      O82558   4.923   8.531   2.777
27439WAT     H182559   4.975   8.576   2.850
27439WAT     H282560   4.945   8.574   2.690
27440WAT      O82561   9.374   4.901   6.336
27440WAT     H182562   9.315   4.979   6.357
27440WAT     H282563   9.470   4.929   6.340
27441WAT      O82564   9.315   8.462   1.908
27441WAT     H182565   9.241   8.420   1.960
27441WAT     H282566   9.309   8.561   1.915
27442WAT      O82567   8.485   9.318   0.804
27442WAT     H182568   8.493   9.416   0.790
27442WAT     H282569   8.390   9.290   0.789
27443WAT      O82570   0.770   1.332   2.655
27443WAT     H182571   0.700   1.401   2.673
27443WAT     H282572   0.805   1.297   2.742
27444WAT      O82573   8.918   9.146   3.079
27444WAT     H182574   8.836   9.108   3.121
27444WAT     H282575   8.943   9.090   3.000
27445WAT      O82576   7.770   3.333   8.594
27445WAT     H182577   7.835   3.288   8.655
27445WAT     H282578   7.804   3.423   8.569
27446WAT      O82579   9.373   4.853   8.377
27446WAT     H182580   9.306   4.926   8.367
27446WAT     H282581   9.345   4.774   8.322
27447WAT      O82582   9.706   6.213   1.492
27447WAT     H182583   9.760   6.181   1.414
27447WAT     H282584   9.717   6.150   1.569
27448WAT      O82585   8.489   5.551   1.980
27448WAT     H182586   8.585   5.526   1.968
27448WAT     H282587   8.483   5.626   2.047
27449WAT      O82588   0.631   8.115   3.466
27449WAT     H182589   0.568   8.041   3.491
27449WAT     H282590   0.711   8.113   3.526
27450WAT      O82591   3.678   2.604   7.240
27450WAT     H182592   3.715   2.683   7.290
27450WAT     H282593   3.661   2.529   7.303
27451WAT      O82594   2.741   3.331   1.610
27451WAT     H182595   2.700   3.241   1.626
27451WAT     H282596   2.817   3.344   1.673
27452WAT      O82597   2.619   9.046   7.387
27452WAT     H182598   2.587   9.138   7.407
27452WAT     H282599   2.714   9.036   7.417
27453WAT      O82600   0.661   3.407   6.585
27453WAT     H182601   0.606   3.400   6.502
27453WAT     H282602   0.601   3.422   6.664
27454WAT      O82603   3.734   2.615   4.872
27454WAT     H182604   3.662   2.629   4.803
27454WAT     H282605   3.796   2.694   4.872
27455WAT      O82606   1.554   2.483   5.463
27455WAT     H182607   1.515   2.482   5.371
27455WAT     H282608   1.570   2.578   5.492
27456WAT      O82609   8.681   6.205   8.736
27456WAT     H182610   8.632   6.291   8.753
27456WAT     H282611   8.757   6.197   8.799
27457WAT      O82612   8.443   9.484   2.027
27457WAT     H182613   8.421   9.563   2.085
27457WAT     H282614   8.362   9.426   2.018
27458WAT      O82615   9.567   1.098   7.572
27458WAT     H182616   9.518   1.179   7.541
27458WAT     H282617   9.583   1.104   7.670
27459WAT      O82618   1.624   1.117   1.672
27459WAT     H182619   1.593   1.156   1.586
27459WAT     H282620   1.724   1.116   1.674
27460WAT      O82621   7.054   9.200   4.798
27460WAT     H182622   7.017   9.275   4.742
27460WAT     H282623   7.099   9.134   4.739
27461WAT      O82624   2.808   4.025   3.476
27461WAT     H182625   2.783   4.106   3.423
27461WAT     H282626   2.902   4.035   3.510
27462WAT      O82627   4.348   8.836   9.308
27462WAT     H182628   4.273   8.848   9.373
27462WAT     H282629   4.357   8.919   9.253
27463WAT      O82630   6.727   6.121   8.016
27463WAT     H182631   6.738   6.125   8.115
27463WAT     H282632   6.803   6.171   7.972
27464WAT      O82633   0.507   0.493   3.760
27464WAT     H182634   0.449   0.569   3.789
27464WAT     H282635   0.603   0.519   3.772
27465WAT      O82636   7.486   1.115   7.062
27465WAT     H182637   7.579   1.153   7.059
27465WAT     H282638   7.422   1.181   7.022
27466WAT      O82639   6.899   5.232   1.182
27466WAT     H182640   6.849   5.176   1.248
27466WAT     H282641   6.943   5.308   1.230
27467WAT      O82642   1.790   4.217   8.363
27467WAT     H182643   1.844   4.300   8.373
27467WAT     H282644   1.696   4.234   8.392
27468WAT      O82645   6.050   1.746   3.485
27468WAT     H182646   6.053   1.647   3.467
27468WAT     H282647   6.122   1.791   3.433
27469WAT      O82648   3.638   9.132   8.218
27469WAT     H182649   3.609   9.189   8.295
27469WAT     H282650   3.737   9.138   8.208
27470WAT      O82651   2.529   0.966   1.128
27470WAT     H182652   2.445   0.977   1.075
27470WAT     H282653   2.515   1.002   1.220
27471WAT      O82654   6.485   3.592   5.819
27471WAT     H182655   6.544   3.536   5.761
27471WAT     H282656   6.537   3.625   5.897
27472WAT      O82657   7.634   2.194   8.001
27472WAT     H182658   7.551   2.182   8.055
27472WAT     H282659   7.642   2.289   7.972
27473WAT      O82660   1.133   1.803   9.264
27473WAT     H182661   1.176   1.877   9.315
27473WAT     H282662   1.095   1.839   9.179
27474WAT      O82663   6.667   7.705   6.851
27474WAT     H182664   6.649   7.608   6.866
27474WAT     H282665   6.764   7.724   6.867
27475WAT      O82666   1.351   7.109   2.549
27475WAT     H182667   1.416   7.159   2.607
27475WAT     H282668   1.402   7.051   2.485
27476WAT      O82669   3.091   2.434   5.452
27476WAT     H182670   3.038   2.519   5.457
27476WAT     H282671   3.031   2.356   5.472
27477WAT      O82672   5.940   2.129   6.199
27477WAT     H182673   5.928   2.221   6.236
27477WAT     H282674   6.038   2.107   6.194
27478WAT      O82675   2.065   9.795   9.693
27478WAT     H182676   1.968   9.779   9.677
27478WAT     H282677   2.080   9.891   9.718
27479WAT      O82678   0.122   3.934   4.808
27479WAT     H182679   0.213   3.953   4.770
27479WAT     H282680   0.074   4.020   4.825
27480WAT      O82681   8.270   2.501   2.006
27480WAT     H182682   8.223   2.582   2.043
27480WAT     H282683   8.345   2.476   2.067
27481WAT      O82684   0.875   2.695   0.778
27481WAT     H182685   0.819   2.736   0.706
27481WAT     H282686   0.957   2.750   0.792
27482WAT      O82687   7.883   8.185   9.789
27482WAT     H182688   7.969   8.213   9.747
27482WAT     H282689   7.896   8.097   9.834
27483WAT      O82690   3.114   8.031   9.222
27483WAT     H182691   3.025   7.987   9.210
27483WAT     H282692   3.128   8.096   9.148
27484WAT      O82693   5.293   2.212   4.659
27484WAT     H182694   5.337   2.265   4.731
27484WAT     H282695   5.338   2.229   4.572
27485WAT      O82696   6.995   0.776   9.498
27485WAT     H182697   7.000   0.864   9.544
27485WAT     H282698   6.974   0.704   9.565
27486WAT      O82699   8.489   2.388   3.144
27486WAT     H182700   8.442   2.444   3.211
27486WAT     H282701   8.544   2.446   3.084
27487WAT      O82702   2.302   0.583   1.746
27487WAT     H182703   2.320   0.544   1.656
27487WAT     H282704   2.343   0.674   1.750
27488WAT      O82705   8.878   3.906   4.331
27488WAT     H182706   8.810   3.901   4.258
27488WAT     H282707   8.945   3.831   4.320
27489WAT      O82708   5.489   7.890   9.429
27489WAT     H182709   5.572   7.941   9.409
27489WAT     H282710   5.412   7.932   9.382
27490WAT      O82711   4.263   0.270   7.017
27490WAT     H182712   4.276   0.225   7.105
27490WAT     H282713   4.207   0.212   6.957
27491WAT      O82714   0.376   0.693   1.765
27491WAT     H182715   0.344   0.601   1.743
27491WAT     H282716   0.457   0.714   1.710
27492WAT      O82717   9.714   2.298   3.548
27492WAT     H182718   9.640   2.241   3.583
27492WAT     H282719   9.775   2.242   3.492
27493WAT      O82720   8.842   0.966   1.726
27493WAT     H182721   8.811   0.874   1.699
27493WAT     H282722   8.763   1.019   1.759
27494WAT      O82723   6.264   7.010   0.817
27494WAT     H182724   6.276   6.962   0.730
27494WAT     H282725   6.352   7.017   0.864
27495WAT      O82726   8.525   0.798   9.874
27495WAT     H182727   8.596   0.820   9.941
27495WAT     H282728   8.462   0.875   9.866
27496WAT      O82729   9.889   3.419   8.953
27496WAT     H182730   9.802   3.427   9.001
27496WAT     H282731   9.889   3.481   8.874
27497WAT      O82732   5.569   9.221   8.157
27497WAT     H182733   5.516   9.143   8.126
27497WAT     H282734   5.564   9.228   8.257
27498WAT      O82735   9.192   1.200   8.011
27498WAT     H182736   9.172   1.162   7.921
27498WAT     H282737   9.208   1.298   8.003
27499WAT      O82738   7.940   7.253   3.749
27499WAT     H182739   8.038   7.264   3.734
27499WAT     H282740   7.911   7.162   3.721
27500WAT      O82741   7.444   2.302   2.929
27500WAT     H182742   7.507   2.367   2.972
27500WAT     H282743   7.492   2.247   2.861
27501WAT      O82744   1.439   4.400   5.787
27501WAT     H182745   1.465   4.458   5.864
27501WAT     H282746   1.339   4.397   5.780
27502WAT      O82747   5.995   0.856   6.817
27502WAT     H182748   5.924   0.854   6.747
27502WAT     H282749   5.953   0.873   6.907
27503WAT      O82750   4.538   9.651   7.706
27503WAT     H182751   4.625   9.655   7.756
27503WAT     H282752   4.462   9.654   7.772
27504WAT      O82753   4.106   6.529   8.191
27504WAT     H182754   4.138   6.506   8.283
27504WAT     H282755   4.176   6.502   8.124
27505WAT      O82756   7.669   9.630   9.501
27505WAT     H182757   7.600   9.557   9.509
27505WAT     H282758   7.738   9.603   9.434
27506WAT      O82759   2.807   1.201   6.294
27506WAT     H182760   2.772   1.292   6.273
27506WAT     H282761   2.775   1.136   6.225
27507WAT      O82762   4.637   7.544   8.729
27507WAT     H182763   4.731   7.577   8.740
27507WAT     H282764   4.622   7.466   8.790
27508WAT      O82765   1.503   6.430   9.434
27508WAT     H182766   1.542   6.420   9.525
27508WAT     H282767   1.576   6.433   9.366
27509WAT      O82768   6.004   4.140   1.869
27509WAT     H182769   6.067   4.198   1.920
27509WAT     H282770   6.008   4.165   1.772
27510WAT      O82771   7.564   8.100   7.359
27510WAT     H182772   7.515   8.086   7.273
27510WAT     H282773   7.648   8.045   7.359
27511WAT      O82774   8.551   6.504   5.705
27511WAT     H182775   8.505   6.590   5.685
27511WAT     H282776   8.516   6.466   5.790
27512WAT      O82777   5.374   8.368   6.228
27512WAT     H182778   5.436   8.293   6.207
27512WAT     H282779   5.326   8.348   6.314
27513WAT      O82780   4.529   1.115   8.452
27513WAT     H182781   4.607   1.055   8.434
27513WAT     H282782   4.536   1.197   8.395
27514WAT      O82783   2.934   1.099   2.151
27514WAT     H182784   2.968   1.005   2.142
27514WAT     H282785   2.844   1.106   2.107
27515WAT      O82786   4.766   7.287   5.210
27515WAT     H182787   4.855   7.249   5.186
27515WAT     H282788   4.749   7.273   5.307
27516WAT      O82789   2.876   3.729   2.982
27516WAT     H182790   2.819   3.811   2.991
27516WAT     H282791   2.837   3.668   2.913
27517WAT      O82792   7.661   0.290   6.416
27517WAT     H182793   7.674   0.367   6.353
27517WAT     H282794   7.701   0.312   6.505
27518WAT      O82795   3.210   4.401   2.741
27518WAT     H182796   3.252   4.312   2.759
27518WAT     H282797   3.113   4.397   2.765
27519WAT      O82798   3.417   8.480   5.419
27519WAT     H182799   3.489   8.505   5.483
27519WAT     H282800   3.438   8.391   5.377
27520WAT      O82801   5.789   0.806   2.575
27520WAT     H182802   5.711   0.772   2.522
27520WAT     H282803   5.767   0.803   2.673
27521WAT      O82804   0.794   1.333   2.393
27521WAT     H182805   0.766   1.421   2.354
27521WAT     H282806   0.800   1.342   2.493
27522WAT      O82807   2.825   7.935   4.050
27522WAT     H182808   2.801   7.963   4.143
27522WAT     H282809   2.823   8.014   3.989
27523WAT      O82810   6.620   4.254   8.431
27523WAT     H182811   6.623   4.180   8.364
27523WAT     H282812   6.568   4.331   8.394
27524WAT      O82813   2.776   3.030   5.583
27524WAT     H182814   2.707   2.964   5.611
27524WAT     H282815   2.749   3.071   5.496
27525WAT      O82816   4.507   3.975   1.519
27525WAT     H182817   4.522   3.979   1.420
27525WAT     H282818   4.595   3.961   1.565
27526WAT      O82819   2.561   6.924   2.629
27526WAT     H182820   2.493   6.986   2.590
27526WAT     H282821   2.517   6.839   2.657
27527WAT      O82822   1.582   3.779   2.796
27527WAT     H182823   1.661   3.840   2.800
27527WAT     H282824   1.505   3.826   2.753
27528WAT      O82825   0.245   6.147   7.925
27528WAT     H182826   0.332   6.154   7.974
27528WAT     H282827   0.257   6.178   7.831
27529WAT      O82828   5.296   4.250   8.814
27529WAT     H182829   5.324   4.154   8.814
27529WAT     H282830   5.347   4.300   8.744
27530WAT      O82831   9.506   0.284   6.034
27530WAT     H182832   9.525   0.382   6.037
27530WAT     H282833   9.589   0.234   6.011
27531WAT      O82834   3.528   4.926   7.806
27531WAT     H182835   3.544   4.828   7.799
27531WAT     H282836   3.541   4.955   7.901
27532WAT      O82837   1.046   8.493   7.550
27532WAT     H182838   0.955   8.452   7.556
27532WAT     H282839   1.039   8.591   7.569
27533WAT      O82840   7.928   7.534   5.361
27533WAT     H182841   7.983   7.617   5.370
27533WAT     H282842   7.897   7.505   5.451
27534WAT      O82843   0.363   4.590   8.532
27534WAT     H182844   0.401   4.637   8.612
27534WAT     H282845   0.301   4.652   8.484
27535WAT      O82846   3.374   6.049   6.637
27535WAT     H182847   3.279   6.075   6.658
27535WAT     H282848   3.373   5.968   6.579
27536WAT      O82849   1.300   3.932   0.646
27536WAT     H182850   1.207   3.929   0.683
27536WAT     H282851   1.332   3.839   0.630
27537WAT      O82852   9.050   2.055   8.128
27537WAT     H182853   9.074   1.973   8.179
27537WAT     H282854   9.048   2.134   8.190
27538WAT      O82855   5.378   1.649   4.881
27538WAT     H182856   5.400   1.659   4.784
27538WAT     H282857   5.279   1.646   4.892
27539WAT      O82858   9.252   0.384   6.410
27539WAT     H182859   9.326   0.451   6.412
27539WAT     H282860   9.174   0.419   6.463
27540WAT      O82861   6.190   0.344   7.507
27540WAT     H182862   6.207   0.318   7.412
27540WAT     H282863   6.130   0.276   7.550
27541WAT      O82864   2.223   6.834   9.130
27541WAT     H182865   2.282   6.824   9.210
27541WAT     H282866   2.152   6.764   9.132
27542WAT      O82867   7.853   0.210   7.019
27542WAT     H182868   7.885   0.291   7.067
27542WAT     H282869   7.755   0.218   7.002
27543WAT      O82870   2.887   0.617   6.449
27543WAT     H182871   2.798   0.659   6.432
27543WAT     H282872   2.879   0.555   6.528
27544WAT      O82873   6.132   2.959   8.882
27544WAT     H182874   6.132   2.972   8.782
27544WAT     H282875   6.148   2.863   8.903
27545WAT      O82876   3.838   6.182   0.978
27545WAT     H182877   3.745   6.155   0.954
27545WAT     H282878   3.884   6.218   0.896
27546WAT      O82879   8.496   5.619   1.199
27546WAT     H182880   8.577   5.561   1.210
27546WAT     H282881   8.421   5.583   1.254
27547WAT      O82882   9.442   2.922   2.130
27547WAT     H182883   9.415   3.016   2.150
27547WAT     H282884   9.535   2.906   2.163
27548WAT      O82885   9.822   2.218   9.058
27548WAT     H182886   9.772   2.239   9.141
27548WAT     H282887   9.815   2.120   9.039
27549WAT      O82888   6.688   3.001   3.617
27549WAT     H182889   6.772   2.949   3.631
27549WAT     H282890   6.676   3.021   3.520
27550WAT      O82891   6.411   0.192   7.647
27550WAT     H182892   6.449   0.103   7.624
27550WAT     H282893   6.361   0.229   7.569
27551WAT      O82894   9.533   9.840   7.591
27551WAT     H182895   9.627   9.821   7.619
27551WAT     H282896   9.473   9.834   7.670
27552WAT      O82897   0.536   9.089   0.762
27552WAT     H182898   0.510   9.116   0.669
27552WAT     H282899   0.456   9.053   0.809
27553WAT      O82900   4.412   6.501   7.331
27553WAT     H182901   4.341   6.539   7.390
27553WAT     H282902   4.396   6.402   7.319
27554WAT      O82903   1.924   1.368   0.197
27554WAT     H182904   1.959   1.445   0.250
27554WAT     H282905   1.946   1.380   0.101
27555WAT      O82906   6.030   0.479   5.327
27555WAT     H182907   5.938   0.489   5.289
27555WAT     H282908   6.030   0.502   5.424
27556WAT      O82909   3.460   9.487   2.567
27556WAT     H182910   3.460   9.565   2.505
27556WAT     H282911   3.418   9.409   2.522
27557WAT      O82912   0.254   4.001   0.320
27557WAT     H182913   0.312   3.996   0.239
27557WAT     H282914   0.278   3.928   0.384
27558WAT      O82915   5.303   5.289   0.427
27558WAT     H182916   5.246   5.290   0.510
27558WAT     H282917   5.395   5.258   0.451
27559WAT      O82918   2.706   3.479   7.486
27559WAT     H182919   2.633   3.502   7.421
27559WAT     H282920   2.684   3.518   7.576
27560WAT      O82921   6.473   4.454   5.621
27560WAT     H182922   6.441   4.532   5.567
27560WAT     H282923   6.409   4.377   5.610
27561WAT      O82924   1.185   9.075   8.043
27561WAT     H182925   1.241   9.040   7.968
27561WAT     H282926   1.090   9.047   8.029
27562WAT      O82927   3.740   8.883   6.422
27562WAT     H182928   3.797   8.817   6.373
27562WAT     H282929   3.647   8.879   6.385
27563WAT      O82930   1.359   1.676   6.677
27563WAT     H182931   1.416   1.623   6.615
27563WAT     H282932   1.417   1.727   6.741
27564WAT      O82933   1.265   5.475   8.596
27564WAT     H182934   1.219   5.478   8.685
27564WAT     H282935   1.227   5.399   8.542
27565WAT      O82936   6.285   6.369   3.910
27565WAT     H182937   6.272   6.270   3.904
27565WAT     H282938   6.380   6.391   3.890
27566WAT      O82939   1.897   6.452   7.221
27566WAT     H182940   1.897   6.399   7.136
27566WAT     H282941   1.820   6.516   7.219
27567WAT      O82942   5.184   6.989   2.507
27567WAT     H182943   5.123   7.055   2.552
27567WAT     H282944   5.191   6.907   2.562
27568WAT      O82945   4.689   3.316   1.329
27568WAT     H182946   4.643   3.231   1.304
27568WAT     H282947   4.783   3.296   1.355
27569WAT      O82948   6.157   4.105   3.577
27569WAT     H182949   6.187   4.178   3.515
27569WAT     H282950   6.061   4.085   3.561
27570WAT      O82951   5.482   1.533   3.000
27570WAT     H182952   5.431   1.447   2.996
27570WAT     H282953   5.443   1.598   2.935
27571WAT      O82954   3.124   3.463   6.456
27571WAT     H182955   3.142   3.540   6.517
27571WAT     H282956   3.151   3.487   6.363
27572WAT      O82957   5.511   5.409   8.181
27572WAT     H182958   5.611   5.401   8.173
27572WAT     H282959   5.484   5.392   8.275
27573WAT      O82960   4.299   0.917   6.492
27573WAT     H182961   4.229   0.873   6.437
27573WAT     H282962   4.329   0.855   6.565
27574WAT      O82963   9.495   5.773   6.190
27574WAT     H182964   9.415   5.720   6.220
27574WAT     H282965   9.576   5.740   6.238
27575WAT      O82966   7.863   8.031   8.773
27575WAT     H182967   7.957   8.002   8.760
27575WAT     H282968   7.808   8.006   8.693
27576WAT      O82969   7.002   1.230   6.634
27576WAT     H182970   7.088   1.270   6.601
27576WAT     H282971   6.958   1.294   6.697
27577WAT      O82972   7.810   6.094   7.194
27577WAT     H182973   7.810   6.113   7.292
27577WAT     H282974   7.903   6.107   7.158
27578WAT      O82975   2.420   8.782   3.560
27578WAT     H182976   2.445   8.877   3.581
27578WAT     H282977   2.328   8.764   3.594
27579WAT      O82978   6.020   9.619   6.837
27579WAT     H182979   6.068   9.646   6.921
27579WAT     H282980   5.982   9.699   6.792
27580WAT      O82981   7.688   5.823   4.817
27580WAT     H182982   7.715   5.825   4.721
27580WAT     H282983   7.748   5.761   4.868
27581WAT      O82984   7.238   1.591   7.312
27581WAT     H182985   7.217   1.565   7.218
27581WAT     H282986   7.273   1.512   7.362
27582WAT      O82987   1.787   7.875   1.238
27582WAT     H182988   1.784   7.775   1.234
27582WAT     H282989   1.713   7.908   1.297
27583WAT      O82990   1.185   3.855   9.805
27583WAT     H182991   1.183   3.945   9.762
27583WAT     H282992   1.114   3.797   9.764
27584WAT      O82993   4.692   3.536   6.895
27584WAT     H182994   4.621   3.595   6.857
27584WAT     H282995   4.781   3.565   6.860
27585WAT      O82996   4.706   0.794   6.794
27585WAT     H182997   4.647   0.835   6.864
27585WAT     H282998   4.649   0.740   6.731
27586WAT      O82999   4.886   7.090   8.659
27586WAT     H183000   4.890   7.077   8.560
27586WAT     H283001   4.840   7.012   8.701
27587WAT      O83002   3.844   1.420   9.088
27587WAT     H183003   3.932   1.437   9.043
27587WAT     H283004   3.831   1.486   9.162
27588WAT      O83005   0.464   0.760   6.139
27588WAT     H183006   0.495   0.843   6.184
27588WAT     H283007   0.434   0.782   6.046
27589WAT      O83008   4.807   5.599   6.586
27589WAT     H183009   4.735   5.550   6.635
27589WAT     H283010   4.796   5.584   6.488
27590WAT      O83011   8.305   3.722   8.717
27590WAT     H183012   8.369   3.667   8.771
27590WAT     H283013   8.212   3.707   8.751
27591WAT      O83014   0.222   9.757   0.740
27591WAT     H183015   0.314   9.794   0.752
27591WAT     H283016   0.228   9.657   0.731
27592WAT      O83017   7.083   8.608   1.826
27592WAT     H183018   7.162   8.617   1.886
27592WAT     H283019   7.059   8.698   1.789
27593WAT      O83020   9.677   4.668   8.952
27593WAT     H183021   9.666   4.729   9.030
27593WAT     H283022   9.697   4.722   8.870
27594WAT      O83023   8.219   0.805   3.372
27594WAT     H183024   8.156   0.777   3.299
27594WAT     H283025   8.207   0.903   3.391
27595WAT      O83026   8.343   3.077   2.172
27595WAT     H183027   8.248   3.044   2.174
27595WAT     H283028   8.377   3.088   2.266
27596WAT      O83029   5.874   6.485   5.954
27596WAT     H183030   5.824   6.521   5.875
27596WAT     H283031   5.814   6.484   6.034
27597WAT      O83032   4.807   5.975   3.653
27597WAT     H183033   4.859   5.945   3.573
27597WAT     H283034   4.785   5.896   3.711
27598WAT      O83035   6.137   2.778   7.362
27598WAT     H183036   6.198   2.814   7.432
27598WAT     H283037   6.044   2.775   7.397
27599WAT      O83038   9.021   7.765   5.061
27599WAT     H183039   8.960   7.795   4.988
27599WAT     H283040   8.971   7.708   5.125
27600WAT      O83041   3.342   8.732   1.713
27600WAT     H183042   3.391   8.712   1.628
27600WAT     H283043   3.293   8.819   1.705
27601WAT      O83044   2.493   1.907   0.861
27601WAT     H183045   2.497   1.950   0.771
27601WAT     H283046   2.489   1.978   0.931
27602WAT      O83047   5.846   7.018   6.621
27602WAT     H183048   5.838   7.013   6.721
27602WAT     H283049   5.918   6.955   6.590
27603WAT      O83050   6.819   7.526   1.113
27603WAT     H183051   6.892   7.527   1.045
27603WAT     H283052   6.817   7.437   1.159
27604WAT      O83053   1.591   7.530   7.060
27604WAT     H183054   1.561   7.571   7.146
27604WAT     H283055   1.613   7.601   6.994
27605WAT      O83056   1.110   8.533   1.375
27605WAT     H183057   1.073   8.567   1.289
27605WAT     H283058   1.047   8.553   1.450
27606WAT      O83059   6.625   6.548   6.642
27606WAT     H183060   6.598   6.579   6.551
27606WAT     H283061   6.720   6.576   6.660
27607WAT      O83062   2.531   6.475   8.918
27607WAT     H183063   2.436   6.502   8.935
27607WAT     H283064   2.577   6.546   8.865
27608WAT      O83065   5.480   8.621   2.656
27608WAT     H183066   5.483   8.709   2.610
27608WAT     H283067   5.414   8.625   2.731
27609WAT      O83068   2.847   5.840   9.382
27609WAT     H183069   2.928   5.896   9.365
27609WAT     H283070   2.773   5.870   9.322
27610WAT      O83071   2.789   8.031   3.383
27610WAT     H183072   2.840   7.970   3.323
27610WAT     H283073   2.706   7.986   3.415
27611WAT      O83074   3.304   7.930   1.063
27611WAT     H183075   3.251   7.912   1.146
27611WAT     H283076   3.245   7.976   0.996
27612WAT      O83077   2.124   4.149   3.912
27612WAT     H183078   2.209   4.133   3.962
27612WAT     H283079   2.121   4.243   3.878
27613WAT      O83080   1.821   7.817   5.107
27613WAT     H183081   1.847   7.883   5.037
27613WAT     H283082   1.742   7.764   5.075
27614WAT      O83083   3.804   3.507   3.627
27614WAT     H183084   3.819   3.420   3.581
27614WAT     H283085   3.717   3.504   3.677
27615WAT      O83086   2.205   8.048   8.996
27615WAT     H183087   2.185   7.956   8.964
27615WAT     H283088   2.268   8.044   9.073
27616WAT      O83089   9.166   6.764   6.253
27616WAT     H183090   9.238   6.732   6.191
27616WAT     H283091   9.105   6.688   6.274
27617WAT      O83092   4.681   1.991   7.827
27617WAT     H183093   4.714   1.905   7.866
27617WAT     H283094   4.702   1.994   7.729
27618WAT      O83095   5.619   5.675   5.715
27618WAT     H183096   5.540   5.637   5.763
27618WAT     H283097   5.599   5.681   5.617
27619WAT      O83098   3.186   6.648   3.100
27619WAT     H183099   3.184   6.707   3.181
27619WAT     H283100   3.280   6.634   3.071
27620WAT      O83101   1.089   7.111   3.977
27620WAT     H183102   1.166   7.074   3.925
27620WAT     H283103   1.121   7.188   4.032
27621WAT      O83104   1.122   2.144   6.134
27621WAT     H183105   1.142   2.047   6.128
27621WAT     H283106   1.066   2.171   6.055
27622WAT      O83107   2.803   4.080   5.137
27622WAT     H183108   2.859   4.123   5.207
27622WAT     H283109   2.820   4.123   5.048
27623WAT      O83110   1.468   4.029   7.799
27623WAT     H183111   1.567   4.026   7.805
27623WAT     H283112   1.430   4.074   7.880
27624WAT      O83113   8.187   3.211   8.481
27624WAT     H183114   8.106   3.170   8.442
27624WAT     H283115   8.161   3.279   8.550
27625WAT      O83116   1.070   2.762   7.405
27625WAT     H183117   1.109   2.829   7.467
27625WAT     H283118   1.143   2.704   7.369
27626WAT      O83119   6.827   8.570   7.229
27626WAT     H183120   6.916   8.527   7.249
27626WAT     H283121   6.839   8.637   7.156
27627WAT      O83122   7.172   1.501   3.959
27627WAT     H183123   7.202   1.556   3.881
27627WAT     H283124   7.083   1.461   3.939
27628WAT      O83125   2.213   8.693   7.823
27628WAT     H183126   2.262   8.749   7.891
27628WAT     H283127   2.273   8.618   7.793
27629WAT      O83128   0.503   3.929   0.804
27629WAT     H183129   0.503   4.020   0.845
27629WAT     H283130   0.526   3.936   0.707
27630WAT      O83131   6.864   4.774   1.887
27630WAT     H183132   6.898   4.685   1.916
27630WAT     H283133   6.846   4.773   1.789
27631WAT      O83134   9.353   4.657   6.811
27631WAT     H183135   9.300   4.717   6.871
27631WAT     H283136   9.343   4.686   6.716
27632WAT      O83137   3.844   2.487   3.941
27632WAT     H183138   3.844   2.572   3.888
27632WAT     H283139   3.767   2.488   4.005
27633WAT      O83140   9.169   9.155   9.687
27633WAT     H183141   9.159   9.058   9.666
27633WAT     H283142   9.260   9.186   9.660
27634WAT      O83143   8.066   1.093   0.672
27634WAT     H183144   8.072   1.000   0.637
27634WAT     H283145   8.060   1.157   0.596
27635WAT      O83146   9.252   0.788   0.471
27635WAT     H183147   9.182   0.850   0.504
27635WAT     H283148   9.263   0.798   0.372
27636WAT      O83149   3.795   3.845   5.804
27636WAT     H183150   3.750   3.927   5.841
27636WAT     H283151   3.884   3.834   5.847
27637WAT      O83152   2.054   5.650   0.169
27637WAT     H183153   1.978   5.712   0.152
27637WAT     H283154   2.035   5.561   0.127
27638WAT      O83155   2.748   8.257   5.376
27638WAT     H183156   2.681   8.210   5.318
27638WAT     H283157   2.700   8.311   5.445
27639WAT      O83158   2.549   4.253   7.193
27639WAT     H183159   2.543   4.310   7.275
27639WAT     H283160   2.497   4.169   7.206
27640WAT      O83161   0.043   4.481   4.199
27640WAT     H183162   0.082   4.429   4.124
27640WAT     H283163   0.110   4.546   4.234
27641WAT      O83164   7.886   3.966   5.404
27641WAT     H183165   7.799   4.015   5.401
27641WAT     H283166   7.961   4.032   5.399
27642WAT      O83167   2.525   8.640   3.352
27642WAT     H183168   2.533   8.546   3.385
27642WAT     H283169   2.482   8.696   3.423
27643WAT      O83170   3.926   2.723   8.139
27643WAT     H183171   3.873   2.758   8.216
27643WAT     H283172   4.024   2.733   8.158
27644WAT      O83173   3.090   7.168   4.155
27644WAT     H183174   3.071   7.245   4.215
27644WAT     H283175   3.056   7.084   4.198
27645WAT      O83176   9.850   6.275   2.906
27645WAT     H183177   9.873   6.338   2.980
27645WAT     H283178   9.927   6.213   2.890
27646WAT      O83179   8.777   2.994   8.286
27646WAT     H183180   8.835   3.051   8.228
27646WAT     H283181   8.682   3.026   8.279
27647WAT      O83182   7.856   1.889   1.745
27647WAT     H183183   7.873   1.883   1.843
27647WAT     H283184   7.926   1.946   1.702
27648WAT      O83185   7.497   0.203   7.695
27648WAT     H183186   7.476   0.198   7.793
27648WAT     H283187   7.596   0.200   7.683
27649WAT      O83188   8.160   0.477   0.210
27649WAT     H183189   8.200   0.433   0.130
27649WAT     H283190   8.175   0.576   0.205
27650WAT      O83191   0.291   7.492   3.069
27650WAT     H183192   0.240   7.478   2.984
27650WAT     H283193   0.241   7.451   3.145
27651WAT      O83194   8.430   3.394   2.616
27651WAT     H183195   8.397   3.434   2.530
27651WAT     H283196   8.384   3.306   2.631
27652WAT      O83197   6.257   7.859   5.856
27652WAT     H183198   6.192   7.825   5.788
27652WAT     H283199   6.255   7.800   5.937
27653WAT      O83200   1.509   8.419   3.725
27653WAT     H183201   1.513   8.327   3.685
27653WAT     H283202   1.414   8.451   3.723
27654WAT      O83203   3.130   0.635   8.680
27654WAT     H183204   3.171   0.708   8.626
27654WAT     H283205   3.060   0.589   8.625
27655WAT      O83206   1.179   3.555   9.183
27655WAT     H183207   1.087   3.517   9.195
27655WAT     H283208   1.230   3.500   9.117
27656WAT      O83209   9.599   1.096   7.871
27656WAT     H183210   9.605   1.160   7.948
27656WAT     H283211   9.691   1.067   7.844
27657WAT      O83212   5.815   1.099   8.957
27657WAT     H183213   5.870   1.079   9.038
27657WAT     H283214   5.813   1.198   8.942
27658WAT      O83215   9.134   5.360   9.006
27658WAT     H183216   9.186   5.416   9.070
27658WAT     H283217   9.173   5.268   9.004
27659WAT      O83218   9.262   2.431   3.345
27659WAT     H183219   9.293   2.526   3.356
27659WAT     H283220   9.242   2.392   3.435
27660WAT      O83221   4.035   4.855   0.833
27660WAT     H183222   3.944   4.866   0.873
27660WAT     H283223   4.067   4.762   0.849
27661WAT      O83224   8.323   0.836   2.449
27661WAT     H183225   8.293   0.776   2.376
27661WAT     H283226   8.420   0.818   2.470
27662WAT      O83227   7.996   3.127   9.151
27662WAT     H183228   7.903   3.162   9.163
27662WAT     H283229   7.994   3.050   9.087
27663WAT      O83230   8.818   1.619   4.434
27663WAT     H183231   8.881   1.559   4.387
27663WAT     H283232   8.747   1.650   4.371
27664WAT      O83233   3.057   4.564   8.927
27664WAT     H183234   3.121   4.541   8.853
27664WAT     H283235   3.091   4.526   9.013
27665WAT      O83236   1.788   8.912   6.496
27665WAT     H183237   1.753   8.845   6.431
27665WAT     H283238   1.880   8.886   6.525
27666WAT      O83239   7.901   0.664   3.737
27666WAT     H183240   7.816   0.628   3.774
27666WAT     H283241   7.955   0.706   3.810
27667WAT      O83242   3.428   1.157   3.931
27667WAT     H183243   3.411   1.209   3.847
27667WAT     H283244   3.430   1.059   3.909
27668WAT      O83245   8.327   0.498   6.142
27668WAT     H183246   8.360   0.586   6.176
27668WAT     H283247   8.405   0.443   6.113
27669WAT      O83248   7.377   7.909   1.956
27669WAT     H183249   7.354   7.991   2.009
27669WAT     H283250   7.359   7.925   1.859
27670WAT      O83251   6.588   8.956   5.269
27670WAT     H183252   6.686   8.962   5.289
27670WAT     H283253   6.550   9.048   5.263
27671WAT      O83254   8.325   8.763   9.277
27671WAT     H183255   8.388   8.704   9.227
27671WAT     H283256   8.344   8.858   9.256
27672WAT      O83257   1.763   7.700   0.190
27672WAT     H183258   1.740   7.796   0.172
27672WAT     H283259   1.714   7.670   0.272
27673WAT      O83260   1.733   6.993   0.156
27673WAT     H183261   1.717   6.899   0.127
27673WAT     H283262   1.692   7.007   0.247
27674WAT      O83263   7.670   3.571   9.220
27674WAT     H183264   7.586   3.620   9.197
27674WAT     H283265   7.723   3.625   9.286
27675WAT      O83266   9.187   7.864   2.332
27675WAT     H183267   9.278   7.823   2.335
27675WAT     H283268   9.157   7.872   2.237
27676WAT      O83269   1.922   2.623   6.410
27676WAT     H183270   1.866   2.651   6.488
27676WAT     H283271   1.893   2.673   6.328
27677WAT      O83272   2.607   9.166   5.656
27677WAT     H183273   2.528   9.137   5.602
27677WAT     H283274   2.601   9.265   5.673
27678WAT      O83275   2.649   4.933   6.383
27678WAT     H183276   2.743   4.961   6.364
27678WAT     H283277   2.634   4.840   6.350
27679WAT      O83278   1.827   1.554   4.556
27679WAT     H183279   1.799   1.591   4.644
27679WAT     H283280   1.748   1.552   4.494
27680WAT      O83281   9.583   8.344   8.787
27680WAT     H183282   9.522   8.296   8.850
27680WAT     H283283   9.533   8.417   8.740
27681WAT      O83284   0.153   5.408   5.546
27681WAT     H183285   0.098   5.485   5.514
27681WAT     H283286   0.155   5.337   5.476
27682WAT      O83287   7.133   4.550   3.795
27682WAT     H183288   7.060   4.555   3.863
27682WAT     H283289   7.104   4.593   3.710
27683WAT      O83290   2.801   3.861   7.003
27683WAT     H183291   2.797   3.800   6.924
27683WAT     H283292   2.716   3.855   7.054
27684WAT      O83293   1.555   3.475   7.572
27684WAT     H183294   1.603   3.438   7.493
27684WAT     H283295   1.547   3.403   7.642
27685WAT      O83296   8.374   7.235   9.524
27685WAT     H183297   8.341   7.147   9.491
27685WAT     H283298   8.302   7.280   9.577
27686WAT      O83299   0.015   6.582   3.615
27686WAT     H183300   0.108   6.570   3.651
27686WAT     H283301  -0.023   6.668   3.649
27687WAT      O83302   3.507   4.157   7.938
27687WAT     H183303   3.416   4.177   7.974
27687WAT     H283304   3.552   4.089   7.996
27688WAT      O83305   1.398   2.621   0.650
27688WAT     H183306   1.332   2.667   0.709
27688WAT     H283307   1.358   2.604   0.561
27689WAT      O83308   1.107   6.047   4.864
27689WAT     H183309   1.105   6.023   4.766
27689WAT     H283310   1.177   5.993   4.910
27690WAT      O83311   2.453   7.842   7.215
27690WAT     H183312   2.379   7.775   7.213
27690WAT     H283313   2.522   7.818   7.147
27691WAT      O83314   5.320   8.669   5.781
27691WAT     H183315   5.267   8.619   5.712
27691WAT     H283316   5.330   8.612   5.863
27692WAT      O83317   4.964   6.572   0.961
27692WAT     H183318   5.026   6.520   1.020
27692WAT     H283319   4.962   6.529   0.870
27693WAT      O83320   3.805   7.876   4.015
27693WAT     H183321   3.707   7.881   4.037
27693WAT     H283322   3.834   7.963   3.974
27694WAT      O83323   4.535   6.929   5.715
27694WAT     H183324   4.508   7.014   5.668
27694WAT     H283325   4.453   6.883   5.749
27695WAT      O83326   0.856   4.631   5.054
27695WAT     H183327   0.882   4.660   5.146
27695WAT     H283328   0.839   4.711   4.997
27696WAT      O83329   0.834   6.388   4.008
27696WAT     H183330   0.906   6.368   3.941
27696WAT     H283331   0.775   6.308   4.018
27697WAT      O83332   7.627   5.396   8.445
27697WAT     H183333   7.622   5.324   8.515
27697WAT     H283334   7.646   5.484   8.489
27698WAT      O83335   5.855   9.502   4.133
27698WAT     H183336   5.880   9.584   4.183
27698WAT     H283337   5.845   9.426   4.197
27699WAT      O83338   6.339   0.264   1.773
27699WAT     H183339   6.317   0.283   1.869
27699WAT     H283340   6.369   0.170   1.764
27700WAT      O83341   5.948   3.392   8.371
27700WAT     H183342   5.920   3.471   8.317
27700WAT     H283343   5.985   3.423   8.459
27701WAT      O83344   1.449   6.938   2.364
27701WAT     H183345   1.477   6.890   2.446
27701WAT     H283346   1.411   6.873   2.298
27702WAT      O83347   5.719   5.053   4.521
27702WAT     H183348   5.763   4.989   4.458
27702WAT     H283349   5.784   5.124   4.549
27703WAT      O83350   6.858   1.768   8.844
27703WAT     H183351   6.877   1.752   8.940
27703WAT     H283352   6.806   1.853   8.834
27704WAT      O83353   5.703   0.401   5.494
27704WAT     H183354   5.747   0.393   5.404
27704WAT     H283355   5.607   0.428   5.482
27705WAT      O83356   0.553   4.065   4.353
27705WAT     H183357   0.551   4.086   4.451
27705WAT     H283358   0.460   4.068   4.316
27706WAT      O83359   0.594   5.211   6.700
27706WAT     H183360   0.659   5.198   6.774
27706WAT     H283361   0.599   5.305   6.667
27707WAT      O83362   8.096   9.329   3.807
27707WAT     H183363   8.036   9.341   3.886
27707WAT     H283364   8.042   9.338   3.723
27708WAT      O83365   7.820   6.328   5.983
27708WAT     H183366   7.840   6.401   5.918
27708WAT     H283367   7.869   6.245   5.957
27709WAT      O83368   1.067   7.126   3.132
27709WAT     H183369   1.059   7.088   3.039
27709WAT     H283370   1.039   7.222   3.131
27710WAT      O83371   8.112   8.496   0.575
27710WAT     H183372   8.169   8.467   0.498
27710WAT     H283373   8.015   8.494   0.548
27711WAT      O83374   3.980   5.854   4.806
27711WAT     H183375   3.929   5.817   4.729
27711WAT     H283376   3.966   5.953   4.811
27712WAT      O83377   2.378   1.594   8.854
27712WAT     H183378   2.424   1.573   8.768
27712WAT     H283379   2.441   1.639   8.916
27713WAT      O83380   3.375   5.889   6.261
27713WAT     H183381   3.355   5.797   6.227
27713WAT     H283382   3.347   5.956   6.192
27714WAT      O83383   6.528   1.346   9.201
27714WAT     H183384   6.566   1.438   9.193
27714WAT     H283385   6.528   1.317   9.297
27715WAT      O83386   5.787   5.649   4.088
27715WAT     H183387   5.828   5.654   3.997
27715WAT     H283388   5.787   5.740   4.130
27716WAT      O83389   3.364   4.779   8.418
27716WAT     H183390   3.322   4.757   8.329
27716WAT     H283391   3.376   4.695   8.470
27717WAT      O83392   1.001   0.224   7.743
27717WAT     H183393   0.907   0.238   7.776
27717WAT     H283394   1.010   0.133   7.704
27718WAT      O83395   0.743   0.536   2.203
27718WAT     H183396   0.759   0.447   2.159
27718WAT     H283397   0.689   0.594   2.142
27719WAT      O83398   6.901   2.093   8.351
27719WAT     H183399   6.851   2.081   8.437
27719WAT     H283400   6.956   2.012   8.333
27720WAT      O83401   6.164   4.606   8.142
27720WAT     H183402   6.082   4.664   8.141
27720WAT     H283403   6.136   4.511   8.157
27721WAT      O83404   9.439   8.835   8.378
27721WAT     H183405   9.368   8.769   8.350
27721WAT     H283406   9.397   8.924   8.394
27722WAT      O83407   4.251   3.156   8.915
27722WAT     H183408   4.202   3.073   8.943
27722WAT     H283409   4.341   3.158   8.959
27723WAT      O83410   2.081   7.687   4.612
27723WAT     H183411   2.028   7.677   4.529
27723WAT     H283412   2.115   7.597   4.641
27724WAT      O83413   6.940   6.270   7.903
27724WAT     H183414   7.015   6.308   7.958
27724WAT     H283415   6.912   6.336   7.834
27725WAT      O83416   9.290   4.428   9.727
27725WAT     H183417   9.206   4.419   9.673
27725WAT     H283418   9.355   4.486   9.679
27726WAT      O83419   5.252   3.075   4.081
27726WAT     H183420   5.211   2.991   4.116
27726WAT     H283421   5.272   3.063   3.983
27727WAT      O83422   8.810   3.356   0.569
27727WAT     H183423   8.727   3.404   0.595
27727WAT     H283424   8.813   3.267   0.616
27728WAT      O83425   5.108   7.783   5.568
27728WAT     H183426   5.178   7.732   5.519
27728WAT     H283427   5.127   7.780   5.666
27729WAT      O83428   0.508   5.227   7.898
27729WAT     H183429   0.463   5.242   7.810
27729WAT     H283430   0.441   5.196   7.965
27730WAT      O83431   5.491   7.907   1.859
27730WAT     H183432   5.448   7.997   1.855
27730WAT     H283433   5.533   7.893   1.948
27731WAT      O83434   6.663   7.266   4.676
27731WAT     H183435   6.591   7.220   4.624
27731WAT     H283436   6.722   7.197   4.719
27732WAT      O83437   4.591   9.167   5.581
27732WAT     H183438   4.650   9.232   5.629
27732WAT     H283439   4.629   9.149   5.490
27733WAT      O83440   0.996   3.965   5.658
27733WAT     H183441   0.997   4.055   5.701
27733WAT     H283442   1.090   3.939   5.633
27734WAT      O83443   4.070   0.124   1.784
27734WAT     H183444   4.072   0.223   1.784
27734WAT     H283445   4.148   0.088   1.836
27735WAT      O83446   9.827   5.400   9.068
27735WAT     H183447   9.851   5.424   9.163
27735WAT     H283448   9.766   5.321   9.068
27736WAT      O83449   2.351   7.894   0.010
27736WAT     H183450   2.416   7.969   0.001
27736WAT     H283451   2.388   7.825   0.072
27737WAT      O83452   7.431   4.985   1.168
27737WAT     H183453   7.374   5.066   1.157
27737WAT     H283454   7.477   4.988   1.257
27738WAT      O83455   3.695   0.433   7.423
27738WAT     H183456   3.786   0.398   7.446
27738WAT     H283457   3.698   0.533   7.421
27739WAT      O83458   9.214   7.825   5.684
27739WAT     H183459   9.228   7.726   5.674
27739WAT     H283460   9.302   7.869   5.703
27740WAT      O83461   4.156   1.557   9.699
27740WAT     H183462   4.153   1.459   9.720
27740WAT     H283463   4.104   1.574   9.615
27741WAT      O83464   0.508   7.676   4.949
27741WAT     H183465   0.580   7.732   4.907
27741WAT     H283466   0.549   7.593   4.987
27742WAT      O83467   4.689   8.848   1.215
27742WAT     H183468   4.713   8.843   1.312
27742WAT     H283469   4.772   8.846   1.160
27743WAT      O83470   9.512   3.142   9.345
27743WAT     H183471   9.552   3.066   9.395
27743WAT     H283472   9.571   3.167   9.268
27744WAT      O83473   4.765   9.587   5.783
27744WAT     H183474   4.667   9.608   5.778
27744WAT     H283475   4.797   9.596   5.877
27745WAT      O83476   0.736   8.640   0.443
27745WAT     H183477   0.650   8.589   0.452
27745WAT     H283478   0.794   8.595   0.376
27746WAT      O83479   0.734   0.405   3.345
27746WAT     H183480   0.690   0.333   3.291
27746WAT     H283481   0.829   0.380   3.363
27747WAT      O83482   6.744   2.128   2.225
27747WAT     H183483   6.843   2.131   2.208
27747WAT     H283484   6.717   2.209   2.276
27748WAT      O83485   1.213   3.229   7.257
27748WAT     H183486   1.133   3.263   7.306
27748WAT     H283487   1.202   3.131   7.239
27749WAT      O83488   8.599   9.706   4.533
27749WAT     H183489   8.626   9.667   4.445
27749WAT     H283490   8.524   9.770   4.520
27750WAT      O83491   6.608   1.081   0.818
27750WAT     H183492   6.659   0.995   0.812
27750WAT     H283493   6.541   1.075   0.892
27751WAT      O83494   1.889   2.054   1.065
27751WAT     H183495   1.901   2.099   1.154
27751WAT     H283496   1.867   2.121   0.995
27752WAT      O83497   1.265   7.180   9.614
27752WAT     H183498   1.318   7.261   9.589
27752WAT     H283499   1.272   7.165   9.713
27753WAT      O83500   5.859   9.131   5.665
27753WAT     H183501   5.879   9.033   5.675
27753WAT     H283502   5.910   9.167   5.587
27754WAT      O83503   2.187   6.863   3.062
27754WAT     H183504   2.229   6.936   3.116
27754WAT     H283505   2.117   6.901   3.002
27755WAT      O83506   6.478   2.065   1.412
27755WAT     H183507   6.384   2.063   1.376
27755WAT     H283508   6.536   2.006   1.356
27756WAT      O83509   7.030   7.428   0.914
27756WAT     H183510   7.043   7.489   0.836
27756WAT     H283511   7.105   7.441   0.979
27757WAT      O83512   9.657   0.267   2.755
27757WAT     H183513   9.652   0.349   2.699
27757WAT     H283514   9.565   0.237   2.779
27758WAT      O83515   9.765   9.702   1.498
27758WAT     H183516   9.703   9.699   1.419
27758WAT     H283517   9.805   9.612   1.513
27759WAT      O83518   3.712   6.653   4.098
27759WAT     H183519   3.682   6.703   4.017
27759WAT     H283520   3.655   6.678   4.176
27760WAT      O83521   8.952   6.081   0.447
27760WAT     H183522   8.977   6.166   0.494
27760WAT     H283523   9.000   6.076   0.359
27761WAT      O83524   5.646   8.292   3.578
27761WAT     H183525   5.598   8.247   3.653
27761WAT     H283526   5.702   8.225   3.529
27762WAT      O83527   5.800   5.936   2.670
27762WAT     H183528   5.864   5.923   2.595
27762WAT     H283529   5.814   5.865   2.740
27763WAT      O83530   6.515   0.873   6.319
27763WAT     H183531   6.593   0.831   6.365
27763WAT     H283532   6.534   0.880   6.221
27764WAT      O83533   2.167   7.313   1.372
27764WAT     H183534   2.177   7.221   1.333
27764WAT     H283535   2.124   7.373   1.304
27765WAT      O83536   3.090   5.721   6.810
27765WAT     H183537   3.080   5.624   6.785
27765WAT     H283538   3.179   5.735   6.852
27766WAT      O83539   7.483   5.063   1.422
27766WAT     H183540   7.492   5.162   1.409
27766WAT     H283541   7.562   5.029   1.473
27767WAT      O83542   3.145   9.163   4.968
27767WAT     H183543   3.211   9.190   5.038
27767WAT     H283544   3.187   9.172   4.878
27768WAT      O83545   2.575   3.801   8.139
27768WAT     H183546   2.492   3.852   8.117
27768WAT     H283547   2.646   3.820   8.071
27769WAT      O83548   6.658   9.734   2.996
27769WAT     H183549   6.739   9.747   3.054
27769WAT     H283550   6.625   9.640   3.006
27770WAT      O83551   8.080   0.834   7.424
27770WAT     H183552   8.071   0.768   7.498
27770WAT     H283553   7.992   0.880   7.409
27771WAT      O83554   4.008   8.003   7.179
27771WAT     H183555   3.921   7.996   7.130
27771WAT     H283556   4.008   7.939   7.256
27772WAT      O83557   0.111   4.854   8.712
27772WAT     H183558   0.014   4.830   8.710
27772WAT     H283559   0.148   4.855   8.619
27773WAT      O83560   6.736   8.661   2.904
27773WAT     H183561   6.807   8.727   2.879
27773WAT     H283562   6.654   8.679   2.850
27774WAT      O83563   8.384   8.451   3.331
27774WAT     H183564   8.348   8.431   3.240
27774WAT     H283565   8.473   8.408   3.342
27775WAT      O83566   4.606   9.411   8.583
27775WAT     H183567   4.543   9.465   8.639
27775WAT     H283568   4.665   9.356   8.642
27776WAT      O83569   1.280   5.336   7.786
27776WAT     H183570   1.248   5.386   7.705
27776WAT     H283571   1.328   5.400   7.847
27777WAT      O83572   5.809   0.131   9.084
27777WAT     H183573   5.710   0.147   9.092
27777WAT     H283574   5.846   0.108   9.173
27778WAT      O83575   4.389   4.039   4.618
27778WAT     H183576   4.303   4.085   4.642
27778WAT     H283577   4.369   3.957   4.565
27779WAT      O83578   7.174   7.690   4.832
27779WAT     H183579   7.187   7.665   4.928
27779WAT     H283580   7.076   7.690   4.811
27780WAT      O83581   0.908   4.192   6.526
27780WAT     H183582   0.993   4.244   6.539
27780WAT     H283583   0.846   4.244   6.468
27781WAT      O83584   7.698   5.737   0.477
27781WAT     H183585   7.653   5.763   0.562
27781WAT     H283586   7.792   5.710   0.497
27782WAT      O83587   9.507   7.568   4.618
27782WAT     H183588   9.570   7.639   4.650
27782WAT     H283589   9.433   7.611   4.566
27783WAT      O83590   3.162   2.895   6.848
27783WAT     H183591   3.133   2.939   6.932
27783WAT     H283592   3.148   2.958   6.771
27784WAT      O83593   5.942   9.507   8.369
27784WAT     H183594   6.031   9.517   8.412
27784WAT     H283595   5.919   9.409   8.361
27785WAT      O83596   7.314   1.343   7.437
27785WAT     H183597   7.328   1.256   7.390
27785WAT     H283598   7.229   1.339   7.490
27786WAT      O83599   8.379   2.728   5.646
27786WAT     H183600   8.343   2.661   5.581
27786WAT     H283601   8.456   2.777   5.605
27787WAT      O83602   1.681   7.883   6.082
27787WAT     H183603   1.658   7.786   6.071
27787WAT     H283604   1.778   7.891   6.104
27788WAT      O83605   4.786   3.927   3.512
27788WAT     H183606   4.777   3.905   3.610
27788WAT     H283607   4.711   3.884   3.461
27789WAT      O83608   2.222   7.143   2.040
27789WAT     H183609   2.274   7.229   2.037
27789WAT     H283610   2.166   7.135   1.957
27790WAT      O83611   7.030   1.763   1.035
27790WAT     H183612   7.090   1.791   1.110
27790WAT     H283613   6.989   1.844   0.993
27791WAT      O83614   4.264   5.587   8.137
27791WAT     H183615   4.315   5.600   8.052
27791WAT     H283616   4.312   5.632   8.212
27792WAT      O83617   4.675   7.732   6.036
27792WAT     H183618   4.749   7.763   6.095
27792WAT     H283619   4.626   7.810   5.999
27793WAT      O83620   8.138   9.212   8.416
27793WAT     H183621   8.208   9.183   8.480
27793WAT     H283622   8.110   9.306   8.437
27794WAT      O83623   7.623   4.361   5.648
27794WAT     H183624   7.617   4.425   5.570
27794WAT     H283625   7.574   4.277   5.626
27795WAT      O83626   4.900   4.203   2.500
27795WAT     H183627   4.819   4.151   2.527
27795WAT     H283628   4.954   4.149   2.435
27796WAT      O83629   6.295   1.407   2.887
27796WAT     H183630   6.281   1.460   2.804
27796WAT     H283631   6.391   1.381   2.894
27797WAT      O83632   1.317   4.441   7.293
27797WAT     H183633   1.276   4.528   7.318
27797WAT     H283634   1.308   4.377   7.369
27798WAT      O83635   7.569   4.995   0.899
27798WAT     H183636   7.514   5.025   0.977
27798WAT     H283637   7.657   4.960   0.933
27799WAT      O83638   4.308   0.664   5.136
27799WAT     H183639   4.353   0.575   5.133
27799WAT     H283640   4.365   0.729   5.187
27800WAT      O83641   6.656   4.661   5.974
27800WAT     H183642   6.625   4.595   6.042
27800WAT     H283643   6.740   4.628   5.930
27801WAT      O83644   5.015   7.013   3.025
27801WAT     H183645   4.933   6.958   3.007
27801WAT     H283646   5.083   6.956   3.070
27802WAT      O83647   8.129   6.076   7.133
27802WAT     H183648   8.123   5.981   7.103
27802WAT     H283649   8.162   6.079   7.227
27803WAT      O83650   9.880   3.376   3.489
27803WAT     H183651   9.953   3.388   3.422
27803WAT     H283652   9.865   3.278   3.504
27804WAT      O83653   5.133   2.170   4.960
27804WAT     H183654   5.111   2.109   4.885
27804WAT     H283655   5.224   2.208   4.947
27805WAT      O83656   5.961   0.107   3.255
27805WAT     H183657   5.907   0.190   3.263
27805WAT     H283658   5.955   0.071   3.161
27806WAT      O83659   2.052   5.922   3.689
27806WAT     H183660   2.040   5.977   3.771
27806WAT     H283661   2.144   5.883   3.688
27807WAT      O83662   5.395   8.353   8.033
27807WAT     H183663   5.446   8.269   8.011
27807WAT     H283664   5.374   8.355   8.130
27808WAT      O83665   5.034   8.465   7.149
27808WAT     H183666   5.057   8.559   7.174
27808WAT     H283667   4.941   8.444   7.178
27809WAT      O83668   7.761   2.478   8.405
27809WAT     H183669   7.774   2.574   8.382
27809WAT     H283670   7.680   2.443   8.357
27810WAT      O83671   0.059   4.875   2.628
27810WAT     H183672   0.001   4.816   2.685
27810WAT     H283673   0.129   4.819   2.584
27811WAT      O83674   9.210   7.492   4.675
27811WAT     H183675   9.272   7.552   4.726
27811WAT     H283676   9.262   7.430   4.618
27812WAT      O83677   2.311   3.871   6.322
27812WAT     H183678   2.391   3.848   6.266
27812WAT     H283679   2.270   3.956   6.287
27813WAT      O83680   0.173   5.906   6.146
27813WAT     H183681   0.241   5.979   6.156
27813WAT     H283682   0.170   5.852   6.231
27814WAT      O83683   4.856   0.640   1.625
27814WAT     H183684   4.839   0.550   1.587
27814WAT     H283685   4.888   0.632   1.720
27815WAT      O83686   4.835   5.192   6.649
27815WAT     H183687   4.781   5.247   6.712
27815WAT     H283688   4.824   5.228   6.556
27816WAT      O83689   5.913   0.320   5.674
27816WAT     H183690   5.891   0.264   5.753
27816WAT     H283691   5.829   0.359   5.637
27817WAT      O83692   9.541   4.396   4.025
27817WAT     H183693   9.571   4.304   4.049
27817WAT     H283694   9.595   4.430   3.949
27818WAT      O83695   0.653   5.132   3.917
27818WAT     H183696   0.684   5.071   3.843
27818WAT     H283697   0.726   5.195   3.941
27819WAT      O83698   7.822   9.058   0.529
27819WAT     H183699   7.768   9.063   0.445
27819WAT     H283700   7.861   8.967   0.539
27820WAT      O83701   0.293   1.746   2.065
27820WAT     H183702   0.215   1.763   2.004
27820WAT     H283703   0.279   1.661   2.116
27821WAT      O83704   3.774   7.020   5.074
27821WAT     H183705   3.731   7.108   5.051
27821WAT     H283706   3.824   6.986   4.994
27822WAT      O83707   8.118   6.427   4.524
27822WAT     H183708   8.203   6.376   4.513
27822WAT     H283709   8.058   6.379   4.587
27823WAT      O83710   0.937   9.628   6.965
27823WAT     H183711   0.960   9.538   7.001
27823WAT     H283712   0.897   9.684   7.037
27824WAT      O83713   1.232   5.174   7.301
27824WAT     H183714   1.206   5.158   7.206
27824WAT     H283715   1.319   5.128   7.321
27825WAT      O83716   4.693   6.109   8.441
27825WAT     H183717   4.669   6.014   8.459
27825WAT     H283718   4.677   6.130   8.344
27826WAT      O83719   7.619   9.095   1.266
27826WAT     H183720   7.628   9.095   1.166
27826WAT     H283721   7.696   9.047   1.307
27827WAT      O83722   0.464   7.490   3.299
27827WAT     H183723   0.461   7.524   3.204
27827WAT     H283724   0.447   7.392   3.300
27828WAT      O83725   0.962   9.691   1.427
27828WAT     H183726   0.951   9.788   1.447
27828WAT     H283727   0.907   9.667   1.347
27829WAT      O83728   1.926   1.748   6.552
27829WAT     H183729   1.874   1.803   6.618
27829WAT     H283730   1.971   1.809   6.487
27830WAT      O83731   0.722   9.100   1.798
27830WAT     H183732   0.636   9.148   1.812
27830WAT     H283733   0.712   9.038   1.720
27831WAT      O83734   1.633   6.463   6.625
27831WAT     H183735   1.707   6.405   6.588
27831WAT     H283736   1.631   6.455   6.725
27832WAT      O83737   9.322   3.055   8.416
27832WAT     H183738   9.350   3.090   8.327
27832WAT     H283739   9.399   3.058   8.479
27833WAT      O83740   3.766   3.478   6.017
27833WAT     H183741   3.713   3.543   5.962
27833WAT     H283742   3.791   3.400   5.960
27834WAT      O83743   1.657   2.789   2.832
27834WAT     H183744   1.558   2.800   2.842
27834WAT     H283745   1.698   2.876   2.805
27835WAT      O83746   6.104   1.921   5.488
27835WAT     H183747   6.107   1.827   5.522
27835WAT     H283748   6.091   1.921   5.389
27836WAT      O83749   6.296   9.197   3.990
27836WAT     H183750   6.362   9.165   4.059
27836WAT     H283751   6.216   9.137   3.991
27837WAT      O83752   3.714   6.559   0.074
27837WAT     H183753   3.692   6.486   0.139
27837WAT     H283754   3.812   6.580   0.080
27838WAT      O83755   4.272   0.556   9.178
27838WAT     H183756   4.220   0.470   9.185
27838WAT     H283757   4.368   0.539   9.200
27839WAT      O83758   4.053   7.160   5.670
27839WAT     H183759   3.992   7.141   5.747
27839WAT     H283760   4.047   7.085   5.604
27840WAT      O83761   2.926   3.098   2.117
27840WAT     H183762   3.025   3.093   2.126
27840WAT     H283763   2.883   3.062   2.200
27841WAT      O83764   3.589   6.572   0.903
27841WAT     H183765   3.511   6.509   0.900
27841WAT     H283766   3.654   6.541   0.973
27842WAT      O83767   6.622   2.650   0.494
27842WAT     H183768   6.722   2.653   0.490
27842WAT     H283769   6.593   2.656   0.590
27843WAT      O83770   3.757   6.847   6.014
27843WAT     H183771   3.807   6.767   6.046
27843WAT     H283772   3.709   6.824   5.929
27844WAT      O83773   1.261   5.821   6.853
27844WAT     H183774   1.321   5.900   6.844
27844WAT     H283775   1.207   5.830   6.937
27845WAT      O83776   7.841   4.457   9.833
27845WAT     H183777   7.803   4.374   9.875
27845WAT     H283778   7.767   4.509   9.789
27846WAT      O83779   1.318   2.446   1.484
27846WAT     H183780   1.284   2.371   1.427
27846WAT     H283781   1.354   2.409   1.569
27847WAT      O83782   6.601   0.024   4.120
27847WAT     H183783   6.596  -0.076   4.117
27847WAT     H283784   6.620   0.059   4.028
27848WAT      O83785   1.051   2.571   5.623
27848WAT     H183786   1.024   2.652   5.675
27848WAT     H283787   1.039   2.489   5.680
27849WAT      O83788   0.686   5.305   4.957
27849WAT     H183789   0.719   5.217   4.992
27849WAT     H283790   0.747   5.337   4.884
27850WAT      O83791   3.499   1.325   1.392
27850WAT     H183792   3.445   1.333   1.475
27850WAT     H283793   3.530   1.230   1.380
27851WAT      O83794   7.239   9.391   1.162
27851WAT     H183795   7.159   9.443   1.132
27851WAT     H283796   7.282   9.347   1.083
27852WAT      O83797   1.164   1.637   5.692
27852WAT     H183798   1.239   1.656   5.755
27852WAT     H283799   1.130   1.723   5.654
27853WAT      O83800   5.390   9.267   3.584
27853WAT     H183801   5.353   9.360   3.581
27853WAT     H283802   5.346   9.211   3.513
27854WAT      O83803   2.526   2.349   4.327
27854WAT     H183804   2.447   2.336   4.268
27854WAT     H283805   2.557   2.444   4.322
27855WAT      O83806   7.011   4.725   4.677
27855WAT     H183807   7.067   4.643   4.694
27855WAT     H283808   6.927   4.699   4.630
27856WAT      O83809   0.173   7.878   1.577
27856WAT     H183810   0.157   7.812   1.651
27856WAT     H283811   0.085   7.912   1.543
27857WAT      O83812   1.750   1.086   5.601
27857WAT     H183813   1.753   1.185   5.610
27857WAT     H283814   1.791   1.044   5.681
27858WAT      O83815   4.434   9.700   2.217
27858WAT     H183816   4.482   9.679   2.302
27858WAT     H283817   4.448   9.796   2.194
27859WAT      O83818   8.110   7.370   4.105
27859WAT     H183819   8.167   7.387   4.185
27859WAT     H283820   8.114   7.273   4.081
27860WAT      O83821   0.862   9.326   3.668
27860WAT     H183822   0.822   9.245   3.711
27860WAT     H283823   0.807   9.407   3.689
27861WAT      O83824   8.908   5.468   9.002
27861WAT     H183825   8.994   5.417   9.010
27861WAT     H283826   8.878   5.467   8.906
27862WAT      O83827   2.420   2.759   2.758
27862WAT     H183828   2.476   2.686   2.796
27862WAT     H283829   2.410   2.746   2.659
27863WAT      O83830   1.911   3.285   6.373
27863WAT     H183831   1.826   3.317   6.330
27863WAT     H283832   1.942   3.355   6.438
27864WAT      O83833   4.063   1.177   6.184
27864WAT     H183834   4.079   1.236   6.105
27864WAT     H283835   3.995   1.218   6.244
27865WAT      O83836   3.718   2.587   6.445
27865WAT     H183837   3.715   2.682   6.476
27865WAT     H283838   3.813   2.562   6.425
27866WAT      O83839   9.368   7.403   6.165
27866WAT     H183840   9.437   7.408   6.237
27866WAT     H283841   9.372   7.487   6.110
27867WAT      O83842   0.999   4.419   1.858
27867WAT     H183843   1.055   4.439   1.778
27867WAT     H283844   0.975   4.504   1.905
27868WAT      O83845   4.957   6.441   4.669
27868WAT     H183846   5.055   6.423   4.678
27868WAT     H283847   4.915   6.369   4.615
27869WAT      O83848   7.631   2.759   0.888
27869WAT     H183849   7.575   2.687   0.847
27869WAT     H283850   7.675   2.724   0.971
27870WAT      O83851   9.169   8.448   6.269
27870WAT     H183852   9.153   8.373   6.205
27870WAT     H283853   9.225   8.518   6.224
27871WAT      O83854   1.538   6.846   3.787
27871WAT     H183855   1.586   6.879   3.868
27871WAT     H283856   1.543   6.746   3.785
27872WAT      O83857   1.141   4.787   4.762
27872WAT     H183858   1.059   4.841   4.746
27872WAT     H283859   1.215   4.847   4.794
27873WAT      O83860   8.285   5.598   8.510
27873WAT     H183861   8.232   5.621   8.592
27873WAT     H283862   8.371   5.554   8.538
27874WAT      O83863   3.088   0.017   9.700
27874WAT     H183864   3.095  -0.079   9.673
27874WAT     H283865   3.175   0.063   9.680
27875WAT      O83866   0.219   2.134   4.356
27875WAT     H183867   0.224   2.210   4.291
27875WAT     H283868   0.195   2.050   4.307
27876WAT      O83869   1.259   6.162   8.814
27876WAT     H183870   1.315   6.088   8.775
27876WAT     H283871   1.284   6.175   8.910
27877WAT      O83872   8.452   2.381   5.962
27877WAT     H183873   8.466   2.379   6.061
27877WAT     H283874   8.403   2.465   5.936
27878WAT      O83875   1.921   1.705   7.344
27878WAT     H183876   1.914   1.653   7.429
27878WAT     H283877   1.920   1.642   7.266
27879WAT      O83878   6.796   2.509   1.285
27879WAT     H183879   6.740   2.427   1.274
27879WAT     H283880   6.854   2.499   1.366
27880WAT      O83881   6.997   0.849   0.576
27880WAT     H183882   6.980   0.751   0.584
27880WAT     H283883   6.954   0.884   0.492
27881WAT      O83884   4.505   5.573   6.020
27881WAT     H183885   4.498   5.599   6.116
27881WAT     H283886   4.600   5.550   5.999
27882WAT      O83887   6.987   1.440   7.795
27882WAT     H183888   7.023   1.453   7.888
27882WAT     H283889   7.036   1.365   7.751
27883WAT      O83890   8.429   4.668   2.581
27883WAT     H183891   8.441   4.647   2.678
27883WAT     H283892   8.512   4.646   2.531
27884WAT      O83893   7.405   6.051   5.280
27884WAT     H183894   7.470   5.985   5.243
27884WAT     H283895   7.452   6.110   5.347
27885WAT      O83896   3.058   7.472   7.529
27885WAT     H183897   3.005   7.554   7.548
27885WAT     H283898   3.116   7.451   7.607
27886WAT      O83899   0.857   2.412   0.079
27886WAT     H183900   0.848   2.434   0.176
27886WAT     H283901   0.908   2.485   0.033
27887WAT      O83902   3.647   0.288   8.399
27887WAT     H183903   3.694   0.208   8.360
27887WAT     H283904   3.559   0.260   8.436
27888WAT      O83905   4.481   8.676   9.768
27888WAT     H183906   4.496   8.656   9.671
27888WAT     H283907   4.554   8.736   9.801
27889WAT      O83908   5.988   9.827   7.408
27889WAT     H183909   6.083   9.813   7.380
27889WAT     H283910   5.939   9.876   7.336
27890WAT      O83911   5.265   2.899   2.618
27890WAT     H183912   5.165   2.902   2.614
27890WAT     H283913   5.293   2.843   2.696
27891WAT      O83914   5.618   4.449   1.285
27891WAT     H183915   5.591   4.356   1.262
27891WAT     H283916   5.551   4.514   1.249
27892WAT      O83917   8.988   7.344   0.274
27892WAT     H183918   8.962   7.249   0.289
27892WAT     H283919   8.917   7.404   0.311
27893WAT      O83920   7.704   3.507   6.804
27893WAT     H183921   7.785   3.464   6.765
27893WAT     H283922   7.646   3.542   6.730
27894WAT      O83923   7.178   5.611   4.310
27894WAT     H183924   7.107   5.656   4.257
27894WAT     H283925   7.153   5.516   4.326
27895WAT      O83926   5.533   0.230   5.883
27895WAT     H183927   5.631   0.233   5.900
27895WAT     H283928   5.488   0.173   5.951
27896WAT      O83929   9.883   3.732   2.577
27896WAT     H183930   9.872   3.763   2.483
27896WAT     H283931   9.798   3.688   2.608
27897WAT      O83932   4.081   7.492   5.938
27897WAT     H183933   4.077   7.395   5.962
27897WAT     H283934   4.078   7.501   5.838
27898WAT      O83935   7.307   4.740   0.274
27898WAT     H183936   7.261   4.740   0.363
27898WAT     H283937   7.306   4.648   0.235
27899WAT      O83938   4.220   2.144   1.982
27899WAT     H183939   4.125   2.150   1.951
27899WAT     H283940   4.234   2.207   2.057
27900WAT      O83941   4.985   6.228   6.733
27900WAT     H183942   4.887   6.248   6.737
27900WAT     H283943   5.035   6.296   6.787
27901WAT      O83944   5.817   8.488   2.794
27901WAT     H183945   5.852   8.398   2.767
27901WAT     H283946   5.794   8.541   2.713
27902WAT      O83947   7.557   9.790   2.197
27902WAT     H183948   7.515   9.875   2.230
27902WAT     H283949   7.613   9.751   2.270
27903WAT      O83950   0.902   6.031   9.845
27903WAT     H183951   0.887   6.014   9.748
27903WAT     H283952   0.949   5.953   9.886
27904WAT      O83953   5.647   6.989   5.469
27904WAT     H183954   5.695   7.002   5.556
27904WAT     H283955   5.640   7.077   5.422
27905WAT      O83956   8.159   9.764   4.530
27905WAT     H183957   8.179   9.696   4.601
27905WAT     H283958   8.243   9.812   4.505
27906WAT      O83959   4.260   7.821   0.732
27906WAT     H183960   4.253   7.879   0.813
27906WAT     H283961   4.199   7.742   0.742
27907WAT      O83962   4.027   0.955   5.480
27907WAT     H183963   4.043   0.971   5.383
27907WAT     H283964   4.114   0.952   5.529
27908WAT      O83965   5.850   7.942   0.313
27908WAT     H183966   5.761   7.898   0.304
27908WAT     H283967   5.910   7.912   0.239
27909WAT      O83968   8.794   4.436   2.987
27909WAT     H183969   8.840   4.348   2.981
27909WAT     H283970   8.726   4.433   3.061
27910WAT      O83971   1.491   7.313   7.502
27910WAT     H183972   1.422   7.246   7.530
27910WAT     H283973   1.554   7.330   7.578
27911WAT      O83974   7.659   5.318   6.849
27911WAT     H183975   7.623   5.411   6.836
27911WAT     H283976   7.644   5.265   6.765
27912WAT      O83977   1.406   1.251   6.079
27912WAT     H183978   1.489   1.214   6.120
27912WAT     H283979   1.395   1.347   6.105
27913WAT      O83980   3.292   5.007   0.194
27913WAT     H183981   3.340   5.089   0.225
27913WAT     H283982   3.304   4.997   0.095
27914WAT      O83983   0.556   1.156   2.570
27914WAT     H183984   0.493   1.163   2.646
27914WAT     H283985   0.641   1.204   2.592
27915WAT      O83986   1.043   4.583   2.617
27915WAT     H183987   0.958   4.572   2.668
27915WAT     H283988   1.111   4.630   2.674
27916WAT      O83989   1.871   3.695   3.018
27916WAT     H183990   1.872   3.707   3.117
27916WAT     H283991   1.868   3.785   2.974
27917WAT      O83992   4.068   4.953   9.409
27917WAT     H183993   4.155   4.955   9.459
27917WAT     H283994   4.015   4.874   9.437
27918WAT      O83995   6.399   9.013   2.307
27918WAT     H183996   6.498   9.025   2.309
27918WAT     H283997   6.355   9.085   2.359
27919WAT      O83998   1.770   4.292   3.526
27919WAT     H183999   1.841   4.233   3.488
27919WAT     H284000   1.693   4.236   3.555
27920WAT      O84001   5.612   6.687   2.815
27920WAT     H184002   5.593   6.744   2.735
27920WAT     H284003   5.655   6.601   2.786
27921WAT      O84004   6.991   9.848   0.370
27921WAT     H184005   6.990   9.853   0.470
27921WAT     H284006   6.979   9.752   0.342
27922WAT      O84007   6.244   0.583   6.231
27922WAT     H184008   6.225   0.621   6.140
27922WAT     H284009   6.185   0.505   6.248
27923WAT      O84010   7.113   8.613   7.833
27923WAT     H184011   7.034   8.632   7.891
27923WAT     H284012   7.083   8.603   7.738
27924WAT      O84013   9.280   2.027   6.452
27924WAT     H184014   9.332   1.972   6.387
27924WAT     H284015   9.203   2.071   6.406
27925WAT      O84016   3.635   2.073   0.996
27925WAT     H184017   3.693   2.057   0.916
27925WAT     H284018   3.540   2.052   0.974
27926WAT      O84019   2.011   0.241   5.815
27926WAT     H184020   2.029   0.322   5.871
27926WAT     H284021   2.009   0.160   5.873
27927WAT      O84022   8.859   5.174   2.533
27927WAT     H184023   8.781   5.117   2.505
27927WAT     H284024   8.837   5.222   2.617
27928WAT      O84025   3.493   8.338   0.815
27928WAT     H184026   3.584   8.378   0.828
27928WAT     H284027   3.444   8.337   0.902
27929WAT      O84028   3.198   5.196   6.758
27929WAT     H184029   3.221   5.149   6.843
27929WAT     H284030   3.281   5.219   6.708
27930WAT      O84031   7.599   0.073   4.824
27930WAT     H184032   7.510   0.050   4.864
27930WAT     H284033   7.661   0.103   4.897
27931WAT      O84034   3.018   2.712   4.586
27931WAT     H184035   3.098   2.772   4.594
27931WAT     H284036   2.939   2.765   4.556
27932WAT      O84037   7.284   1.545   8.018
27932WAT     H184038   7.314   1.533   8.113
27932WAT     H284039   7.189   1.513   8.009
27933WAT      O84040   1.395   5.203   6.786
27933WAT     H184041   1.471   5.224   6.724
27933WAT     H284042   1.318   5.169   6.733
27934WAT      O84043   5.828   8.990   8.725
27934WAT     H184044   5.744   8.938   8.742
27934WAT     H284045   5.906   8.928   8.732
27935WAT      O84046   4.329   1.240   6.786
27935WAT     H184047   4.356   1.323   6.835
27935WAT     H284048   4.411   1.187   6.764
27936WAT      O84049   8.889   0.004   6.583
27936WAT     H184050   8.908   0.021   6.680
27936WAT     H284051   8.962   0.041   6.527
27937WAT      O84052   9.695   3.420   4.345
27937WAT     H184053   9.773   3.421   4.282
27937WAT     H284054   9.725   3.383   4.434
27938WAT      O84055   5.168   1.314   5.225
27938WAT     H184056   5.164   1.290   5.128
27938WAT     H284057   5.110   1.394   5.241
27939WAT      O84058   4.536   4.560   1.593
27939WAT     H184059   4.538   4.659   1.577
27939WAT     H284060   4.512   4.513   1.508
27940WAT      O84061   1.731   9.706   4.284
27940WAT     H184062   1.789   9.625   4.281
27940WAT     H284063   1.764   9.773   4.217
27941WAT      O84064   0.801   3.892   5.485
27941WAT     H184065   0.884   3.919   5.534
27941WAT     H284066   0.721   3.916   5.540
27942WAT      O84067   6.775   8.245   0.660
27942WAT     H184068   6.702   8.259   0.593
27942WAT     H284069   6.739   8.197   0.740
27943WAT      O84070   7.400   8.837   4.453
27943WAT     H184071   7.446   8.905   4.397
27943WAT     H284072   7.344   8.778   4.395
27944WAT      O84073   1.320   1.144   0.764
27944WAT     H184074   1.240   1.202   0.748
27944WAT     H284075   1.316   1.064   0.704
27945WAT      O84076   0.109   4.309   8.925
27945WAT     H184077   0.064   4.383   8.976
27945WAT     H284078   0.046   4.233   8.913
27946WAT      O84079   1.861   3.493   5.152
27946WAT     H184080   1.804   3.430   5.205
27946WAT     H284081   1.919   3.545   5.214
27947WAT      O84082   1.366   7.662   5.993
27947WAT     H184083   1.358   7.574   6.039
27947WAT     H284084   1.462   7.681   5.974
27948WAT      O84085   4.081   8.316   3.899
27948WAT     H184086   4.173   8.333   3.933
27948WAT     H284087   4.068   8.218   3.885
27949WAT      O84088   1.504   4.451   9.304
27949WAT     H184089   1.548   4.472   9.391
27949WAT     H284090   1.565   4.477   9.229
27950WAT      O84091   3.479   5.188   3.145
27950WAT     H184092   3.388   5.230   3.151
27950WAT     H284093   3.543   5.239   3.202
27951WAT      O84094   4.763   1.261   1.473
27951WAT     H184095   4.784   1.358   1.484
27951WAT     H284096   4.664   1.248   1.476
27952WAT      O84097   9.166   4.982   3.023
27952WAT     H184098   9.207   4.900   2.983
27952WAT     H284099   9.212   5.063   2.986
27953WAT      O84100   3.071   9.313   3.674
27953WAT     H184101   3.161   9.270   3.664
27953WAT     H284102   3.082   9.412   3.688
27954WAT      O84103   8.519   2.220   6.518
27954WAT     H184104   8.539   2.231   6.421
27954WAT     H284105   8.420   2.214   6.531
27955WAT      O84106   2.705   4.408   3.726
27955WAT     H184107   2.790   4.395   3.776
27955WAT     H284108   2.667   4.319   3.700
27956WAT      O84109   2.578   8.410   0.775
27956WAT     H184110   2.498   8.359   0.806
27956WAT     H284111   2.647   8.410   0.848
27957WAT      O84112   3.663   9.497   1.950
27957WAT     H184113   3.722   9.577   1.965
27957WAT     H284114   3.580   9.525   1.903
27958WAT      O84115   1.935   4.866   3.728
27958WAT     H184116   1.993   4.857   3.647
27958WAT     H284117   1.887   4.953   3.726
27959WAT      O84118   7.024   1.190   2.091
27959WAT     H184119   6.938   1.232   2.118
27959WAT     H284120   7.028   1.182   1.991
27960WAT      O84121   4.959   6.886   6.632
27960WAT     H184122   4.952   6.954   6.559
27960WAT     H284123   4.893   6.813   6.615
27961WAT      O84124   8.078   2.529   9.168
27961WAT     H184125   8.052   2.437   9.199
27961WAT     H284126   8.166   2.554   9.207
27962WAT      O84127   4.656   9.109   9.349
27962WAT     H184128   4.589   9.109   9.276
27962WAT     H284129   4.624   9.166   9.424
27963WAT      O84130   2.454   5.978   8.208
27963WAT     H184131   2.358   6.005   8.204
27963WAT     H284132   2.487   5.982   8.303
27964WAT      O84133   1.636   7.102   0.869
27964WAT     H184134   1.621   7.006   0.893
27964WAT     H284135   1.708   7.109   0.801
27965WAT      O84136   5.516   5.159   1.449
27965WAT     H184137   5.584   5.180   1.520
27965WAT     H284138   5.443   5.103   1.488
27966WAT      O84139   8.394   1.307   1.320
27966WAT     H184140   8.307   1.264   1.344
27966WAT     H284141   8.447   1.244   1.263
27967WAT      O84142   5.694   3.323   9.815
27967WAT     H184143   5.759   3.250   9.792
27967WAT     H284144   5.610   3.310   9.761
27968WAT      O84145   6.032   4.412   8.843
27968WAT     H184146   5.992   4.323   8.869
27968WAT     H284147   6.131   4.408   8.853
27969WAT      O84148   4.575   9.108   0.129
27969WAT     H184149   4.539   9.190   0.085
27969WAT     H284150   4.646   9.134   0.194
27970WAT      O84151   9.569   7.101   2.999
27970WAT     H184152   9.539   7.025   2.942
27970WAT     H284153   9.490   7.146   3.040
27971WAT      O84154   9.524   2.652   7.352
27971WAT     H184155   9.436   2.700   7.343
27971WAT     H284156   9.560   2.631   7.261
27972WAT      O84157   3.087   1.096   8.680
27972WAT     H184158   3.183   1.120   8.664
27972WAT     H284159   3.061   1.122   8.773
27973WAT      O84160   6.777   5.598   1.784
27973WAT     H184161   6.693   5.586   1.838
27973WAT     H284162   6.757   5.652   1.702
27974WAT      O84163   0.521   3.218   3.009
27974WAT     H184164   0.560   3.296   2.961
27974WAT     H284165   0.422   3.225   3.010
27975WAT      O84166   3.058   6.859   2.791
27975WAT     H184167   3.081   6.955   2.780
27975WAT     H284168   2.958   6.848   2.791
27976WAT      O84169   5.866   3.802   3.579
27976WAT     H184170   5.911   3.764   3.660
27976WAT     H284171   5.880   3.900   3.575
27977WAT      O84172   6.965   3.902   8.655
27977WAT     H184173   6.913   3.988   8.648
27977WAT     H284174   6.912   3.836   8.708
27978WAT      O84175   0.024   7.159   5.465
27978WAT     H184176  -0.021   7.177   5.553
27978WAT     H284177  -0.019   7.214   5.394
27979WAT      O84178   0.951   6.716   0.217
27979WAT     H184179   0.931   6.620   0.238
27979WAT     H284180   0.940   6.771   0.300
27980WAT      O84181   1.305   4.229   7.501
27980WAT     H184182   1.210   4.234   7.529
27980WAT     H284183   1.341   4.137   7.519
27981WAT      O84184   2.870   5.635   1.961
27981WAT     H184185   2.890   5.537   1.953
27981WAT     H284186   2.815   5.665   1.883
27982WAT      O84187   2.174   0.345   6.677
27982WAT     H184188   2.203   0.436   6.648
27982WAT     H284189   2.227   0.276   6.628
27983WAT      O84190   4.302   7.501   1.476
27983WAT     H184191   4.228   7.434   1.474
27983WAT     H284192   4.274   7.584   1.427
27984WAT      O84193   2.030   0.186   9.834
27984WAT     H184194   2.095   0.156   9.903
27984WAT     H284195   1.947   0.219   9.878
27985WAT      O84196   4.356   5.573   3.874
27985WAT     H184197   4.297   5.650   3.851
27985WAT     H284198   4.301   5.501   3.916
27986WAT      O84199   6.924   4.968   6.117
27986WAT     H184200   6.850   5.015   6.164
27986WAT     H284201   6.887   4.912   6.043
27987WAT      O84202   0.491   4.677   8.759
27987WAT     H184203   0.492   4.694   8.857
27987WAT     H284204   0.585   4.679   8.724
27988WAT      O84205   8.208   0.038   0.281
27988WAT     H184206   8.159  -0.048   0.271
27988WAT     H284207   8.206   0.088   0.194
27989WAT      O84208   7.098   1.470   4.840
27989WAT     H184209   7.087   1.415   4.757
27989WAT     H284210   7.049   1.427   4.915
27990WAT      O84211   2.868   5.790   6.569
27990WAT     H184212   2.916   5.864   6.522
27990WAT     H284213   2.845   5.819   6.662
27991WAT      O84214   3.264   5.728   9.809
27991WAT     H184215   3.250   5.688   9.899
27991WAT     H284216   3.345   5.787   9.811
27992WAT      O84217   7.698   5.699   6.454
27992WAT     H184218   7.784   5.748   6.446
27992WAT     H284219   7.697   5.649   6.541
27993WAT      O84220   2.903   7.236   0.635
27993WAT     H184221   2.897   7.277   0.727
27993WAT     H284222   2.993   7.194   0.625
27994WAT      O84223   2.502   1.968   7.727
27994WAT     H184224   2.579   1.910   7.756
27994WAT     H284225   2.416   1.929   7.761
27995WAT      O84226   6.766   4.051   9.184
27995WAT     H184227   6.762   4.013   9.092
27995WAT     H284228   6.704   4.001   9.244
27996WAT      O84229   0.879   7.859   0.235
27996WAT     H184230   0.805   7.837   0.172
27996WAT     H284231   0.851   7.934   0.295
27997WAT      O84232   9.689   9.231   2.455
27997WAT     H184233   9.616   9.164   2.469
27997WAT     H284234   9.712   9.275   2.542
27998WAT      O84235   3.558   2.403   8.046
27998WAT     H184236   3.545   2.380   8.143
27998WAT     H284237   3.652   2.433   8.031
27999WAT      O84238   3.955   0.813   3.984
27999WAT     H184239   3.936   0.898   4.034
27999WAT     H284240   4.054   0.798   3.982
28000WAT      O84241   9.183   5.906   3.541
28000WAT     H184242   9.193   5.834   3.473
28000WAT     H284243   9.267   5.961   3.545
28001WAT      O84244   4.956   8.578   8.378
28001WAT     H184245   4.992   8.492   8.340
28001WAT     H284246   4.931   8.639   8.303
28002WAT      O84247   8.983   0.490   5.478
28002WAT     H184248   8.905   0.510   5.418
28002WAT     H284249   8.971   0.398   5.516
28003WAT      O84250   6.693   8.549   1.989
28003WAT     H184251   6.727   8.497   1.910
28003WAT     H284252   6.673   8.642   1.961
28004WAT      O84253   2.531   7.837   8.474
28004WAT     H184254   2.514   7.779   8.394
28004WAT     H284255   2.577   7.784   8.545
28005WAT      O84256   9.197   6.297   2.768
28005WAT     H184257   9.110   6.260   2.800
28005WAT     H284258   9.242   6.347   2.842
28006WAT      O84259   4.654   0.488   6.947
28006WAT     H184260   4.598   0.536   7.015
28006WAT     H284261   4.630   0.391   6.947
28007WAT      O84262   1.164   9.304   4.061
28007WAT     H184263   1.177   9.294   4.160
28007WAT     H284264   1.251   9.288   4.014
28008WAT      O84265   9.566   0.706   5.322
28008WAT     H184266   9.477   0.719   5.366
28008WAT     H284267   9.638   0.713   5.391
28009WAT      O84268   8.433   1.655   0.533
28009WAT     H184269   8.530   1.657   0.556
28009WAT     H284270   8.397   1.563   0.550
28010WAT      O84271   1.283   3.163   7.886
28010WAT     H184272   1.309   3.109   7.805
28010WAT     H284273   1.339   3.135   7.964
28011WAT      O84274   0.897   3.647   8.567
28011WAT     H184275   0.939   3.558   8.553
28011WAT     H284276   0.832   3.642   8.642
28012WAT      O84277   0.375   6.682   0.691
28012WAT     H184278   0.408   6.588   0.678
28012WAT     H284279   0.364   6.700   0.789
28013WAT      O84280   6.425   4.773   8.922
28013WAT     H184281   6.489   4.700   8.945
28013WAT     H284282   6.350   4.774   8.987
28014WAT      O84283   7.294   9.690   3.104
28014WAT     H184284   7.369   9.670   3.040
28014WAT     H284285   7.330   9.688   3.198
28015WAT      O84286   6.739   2.802   8.135
28015WAT     H184287   6.823   2.846   8.102
28015WAT     H284288   6.761   2.715   8.178
28016WAT      O84289   6.867   7.078   1.135
28016WAT     H184290   6.851   7.167   1.177
28016WAT     H284291   6.861   7.086   1.036
28017WAT      O84292   1.377   2.098   2.301
28017WAT     H184293   1.423   2.186   2.296
28017WAT     H284294   1.435   2.026   2.262
28018WAT      O84295   1.688   9.372   2.130
28018WAT     H184296   1.602   9.321   2.122
28018WAT     H284297   1.670   9.470   2.117
28019WAT      O84298   6.842   1.211   0.850
28019WAT     H184299   6.753   1.172   0.829
28019WAT     H284300   6.846   1.234   0.947
28020WAT      O84301   3.948   0.803   0.684
28020WAT     H184302   3.867   0.784   0.628
28020WAT     H284303   3.941   0.753   0.770
28021WAT      O84304   2.167   8.261   0.102
28021WAT     H184305   2.154   8.175   0.051
28021WAT     H284306   2.211   8.328   0.043
28022WAT      O84307   7.564   4.865   5.285
28022WAT     H184308   7.638   4.864   5.351
28022WAT     H284309   7.501   4.790   5.303
28023WAT      O84310   2.304   1.019   3.318
28023WAT     H184311   2.213   0.983   3.296
28023WAT     H284312   2.354   0.953   3.374
28024WAT      O84313   7.422   8.588   1.623
28024WAT     H184314   7.453   8.559   1.533
28024WAT     H284315   7.347   8.530   1.653
28025WAT      O84316   0.874   9.741   4.178
28025WAT     H184317   0.928   9.756   4.095
28025WAT     H284318   0.918   9.671   4.234
28026WAT      O84319   4.221   1.362   2.761
28026WAT     H184320   4.176   1.273   2.766
28026WAT     H284321   4.167   1.430   2.810
28027WAT      O84322   4.706   8.686   6.820
28027WAT     H184323   4.777   8.618   6.834
28027WAT     H284324   4.727   8.741   6.739
28028WAT      O84325   6.212   4.782   1.711
28028WAT     H184326   6.235   4.771   1.614
28028WAT     H284327   6.293   4.765   1.766
28029WAT      O84328   9.411   6.977   8.991
28029WAT     H184329   9.343   6.939   8.928
28029WAT     H284330   9.426   7.074   8.971
28030WAT      O84331   9.847   2.233   8.782
28030WAT     H184332   9.935   2.189   8.767
28030WAT     H284333   9.838   2.258   8.879
28031WAT      O84334   5.991   0.061   3.636
28031WAT     H184335   5.917   0.113   3.594
28031WAT     H284336   6.060   0.123   3.672
28032WAT      O84337   9.674   0.555   5.576
28032WAT     H184338   9.714   0.621   5.640
28032WAT     H284339   9.587   0.522   5.612
28033WAT      O84340   7.665   6.652   8.714
28033WAT     H184341   7.648   6.569   8.661
28033WAT     H284342   7.748   6.641   8.768
28034WAT      O84343   0.043   3.463   0.817
28034WAT     H184344  -0.025   3.391   0.809
28034WAT     H284345   0.011   3.533   0.881
28035WAT      O84346   2.540   0.678   6.665
28035WAT     H184347   2.613   0.649   6.603
28035WAT     H284348   2.513   0.772   6.643
28036WAT      O84349   2.720   5.199   8.414
28036WAT     H184350   2.624   5.221   8.399
28036WAT     H284351   2.742   5.208   8.511
28037WAT      O84352   6.253   5.240   8.299
28037WAT     H184353   6.289   5.241   8.392
28037WAT     H284354   6.329   5.239   8.234
28038WAT      O84355   5.551   7.134   3.981
28038WAT     H184356   5.648   7.127   3.957
28038WAT     H284357   5.501   7.175   3.905
28039WAT      O84358   2.281   4.439   8.289
28039WAT     H184359   2.225   4.380   8.347
28039WAT     H284360   2.368   4.458   8.336
28040WAT      O84361   0.090   9.712   5.691
28040WAT     H184362   0.035   9.794   5.705
28040WAT     H284363   0.180   9.724   5.731
28041WAT      O84364   6.686   5.576   9.150
28041WAT     H184365   6.692   5.671   9.117
28041WAT     H284366   6.590   5.551   9.162
28042WAT      O84367   8.709   9.165   0.652
28042WAT     H184368   8.656   9.205   0.726
28042WAT     H284369   8.751   9.237   0.597
28043WAT      O84370   4.324   2.675   3.482
28043WAT     H184371   4.401   2.655   3.421
28043WAT     H284372   4.329   2.770   3.513
28044WAT      O84373   9.117   7.981   2.059
28044WAT     H184374   9.023   7.995   2.090
28044WAT     H284375   9.175   8.056   2.090
28045WAT      O84376   3.771   0.290   5.399
28045WAT     H184377   3.820   0.323   5.480
28045WAT     H284378   3.818   0.321   5.317
28046WAT      O84379   6.429   3.186   1.452
28046WAT     H184380   6.492   3.111   1.429
28046WAT     H284381   6.379   3.162   1.535
28047WAT      O84382   7.552   6.769   1.356
28047WAT     H184383   7.520   6.695   1.296
28047WAT     H284384   7.651   6.779   1.345
28048WAT      O84385   3.894   1.336   3.503
28048WAT     H184386   3.909   1.430   3.474
28048WAT     H284387   3.981   1.288   3.510
28049WAT      O84388   6.228   4.572   0.807
28049WAT     H184389   6.230   4.531   0.898
28049WAT     H284390   6.304   4.536   0.753
28050WAT      O84391   8.305   5.640   2.534
28050WAT     H184392   8.240   5.602   2.468
28050WAT     H284393   8.380   5.575   2.548
28051WAT      O84394   3.206   3.994   9.526
28051WAT     H184395   3.196   3.903   9.486
28051WAT     H284396   3.299   4.005   9.561
28052WAT      O84397   6.254   3.838   4.731
28052WAT     H184398   6.169   3.849   4.679
28052WAT     H284399   6.289   3.928   4.757
28053WAT      O84400   8.593   8.991   9.864
28053WAT     H184401   8.581   8.892   9.863
28053WAT     H284402   8.690   9.014   9.861
28054WAT      O84403   3.491   8.355   6.880
28054WAT     H184404   3.484   8.354   6.780
28054WAT     H284405   3.442   8.436   6.915
28055WAT      O84406   5.011   7.878   0.037
28055WAT     H184407   5.098   7.928   0.037
28055WAT     H284408   4.971   7.881  -0.054
28056WAT      O84409   2.065   9.498   0.024
28056WAT     H184410   2.131   9.561  -0.017
28056WAT     H284411   2.082   9.492   0.123
28057WAT      O84412   9.734   5.694   8.007
28057WAT     H184413   9.779   5.639   8.077
28057WAT     H284414   9.635   5.686   8.017
28058WAT      O84415   0.227   4.874   3.877
28058WAT     H184416   0.239   4.969   3.906
28058WAT     H284417   0.138   4.841   3.908
28059WAT      O84418   2.429   2.466   5.184
28059WAT     H184419   2.334   2.438   5.172
28059WAT     H284420   2.483   2.388   5.216
28060WAT      O84421   9.094   8.134   6.794
28060WAT     H184422   9.063   8.224   6.766
28060WAT     H284423   9.019   8.068   6.784
28061WAT      O84424   6.911   3.266   8.791
28061WAT     H184425   6.916   3.252   8.693
28061WAT     H284426   6.923   3.364   8.811
28062WAT      O84427   3.489   9.200   6.774
28062WAT     H184428   3.507   9.118   6.719
28062WAT     H284429   3.466   9.276   6.713
28063WAT      O84430   1.550   1.553   2.972
28063WAT     H184431   1.458   1.559   2.933
28063WAT     H284432   1.549   1.490   3.050
28064WAT      O84433   2.289   6.307   9.376
28064WAT     H184434   2.380   6.323   9.413
28064WAT     H284435   2.273   6.366   9.297
28065WAT      O84436   9.813   7.545   7.690
28065WAT     H184437   9.880   7.530   7.617
28065WAT     H284438   9.723   7.560   7.650
28066WAT      O84439   1.137   4.190   0.132
28066WAT     H184440   1.208   4.220   0.195
28066WAT     H284441   1.062   4.148   0.183
28067WAT      O84442   3.854   6.025   9.681
28067WAT     H184443   3.913   5.963   9.631
28067WAT     H284444   3.763   6.026   9.639
28068WAT      O84445   6.892   7.591   4.517
28068WAT     H184446   6.813   7.549   4.473
28068WAT     H284447   6.862   7.639   4.599
28069WAT      O84448   6.402   3.968   7.922
28069WAT     H184449   6.433   3.874   7.908
28069WAT     H284450   6.430   4.024   7.844
28070WAT      O84451   0.787   7.047   5.873
28070WAT     H184452   0.866   7.103   5.900
28070WAT     H284453   0.760   6.989   5.950
28071WAT      O84454   5.510   4.856   7.022
28071WAT     H184455   5.504   4.771   6.969
28071WAT     H284456   5.606   4.880   7.036
28072WAT      O84457   2.761   6.869   2.456
28072WAT     H184458   2.805   6.783   2.484
28072WAT     H284459   2.684   6.888   2.516
28073WAT      O84460   6.020   2.036   8.762
28073WAT     H184461   6.093   1.987   8.713
28073WAT     H284462   5.939   1.978   8.768
28074WAT      O84463   9.393   6.838   9.832
28074WAT     H184464   9.388   6.753   9.883
28074WAT     H284465   9.467   6.894   9.867
28075WAT      O84466   3.217   0.842   1.544
28075WAT     H184467   3.208   0.934   1.507
28075WAT     H284468   3.154   0.781   1.495
28076WAT      O84469   1.078   7.741   3.250
28076WAT     H184470   1.081   7.655   3.302
28076WAT     H284471   1.005   7.735   3.181
28077WAT      O84472   7.819   6.870   9.636
28077WAT     H184473   7.738   6.853   9.692
28077WAT     H284474   7.822   6.803   9.561
28078WAT      O84475   3.479   4.049   6.956
28078WAT     H184476   3.418   4.123   6.927
28078WAT     H284477   3.551   4.086   7.014
28079WAT      O84478   0.073   5.833   1.565
28079WAT     H184479   0.091   5.766   1.637
28079WAT     H284480   0.057   5.785   1.479
28080WAT      O84481   2.623   6.163   4.759
28080WAT     H184482   2.590   6.157   4.665
28080WAT     H284483   2.627   6.072   4.799
28081WAT      O84484   6.538   7.895   6.718
28081WAT     H184485   6.599   7.971   6.740
28081WAT     H284486   6.581   7.808   6.744
28082WAT      O84487   7.282   2.522   9.449
28082WAT     H184488   7.324   2.555   9.365
28082WAT     H284489   7.183   2.517   9.438
28083WAT      O84490   3.981   2.953   5.573
28083WAT     H184491   3.884   2.941   5.593
28083WAT     H284492   4.002   3.051   5.568
28084WAT      O84493   2.895   2.007   6.079
28084WAT     H184494   2.969   2.029   6.144
28084WAT     H284495   2.815   1.975   6.130
28085WAT      O84496   3.319   5.333   8.870
28085WAT     H184497   3.360   5.424   8.860
28085WAT     H284498   3.230   5.341   8.916
28086WAT      O84499   0.593   0.096   5.362
28086WAT     H184500   0.602   0.191   5.392
28086WAT     H284501   0.532   0.091   5.283
28087WAT      O84502   2.070   0.008   5.320
28087WAT     H184503   2.083  -0.042   5.235
28087WAT     H284504   2.011  -0.045   5.381
28088WAT      O84505   7.283   2.738   8.682
28088WAT     H184506   7.315   2.814   8.738
28088WAT     H284507   7.332   2.655   8.706
28089WAT      O84508   9.158   4.842   3.499
28089WAT     H184509   9.070   4.860   3.543
28089WAT     H284510   9.179   4.915   3.434
28090WAT      O84511   3.698   8.307   5.906
28090WAT     H184512   3.788   8.315   5.949
28090WAT     H284513   3.666   8.397   5.878
28091WAT      O84514   4.291   2.223   7.816
28091WAT     H184515   4.278   2.134   7.772
28091WAT     H284516   4.293   2.295   7.747
28092WAT      O84517   4.533   7.301   1.014
28092WAT     H184518   4.502   7.336   0.925
28092WAT     H284519   4.544   7.202   1.009
28093WAT      O84520   5.332   2.345   7.162
28093WAT     H184521   5.354   2.347   7.259
28093WAT     H284522   5.414   2.364   7.108
28094WAT      O84523   5.868   8.766   9.370
28094WAT     H184524   5.900   8.783   9.277
28094WAT     H284525   5.911   8.682   9.405
28095WAT      O84526   2.254   4.651   9.661
28095WAT     H184527   2.319   4.703   9.716
28095WAT     H284528   2.254   4.556   9.691
28096WAT      O84529   3.060   9.679   0.228
28096WAT     H184530   3.136   9.713   0.174
28096WAT     H284531   2.979   9.735   0.211
28097WAT      O84532   2.818   4.484   0.267
28097WAT     H184533   2.872   4.568   0.273
28097WAT     H284534   2.734   4.501   0.217
28098WAT      O84535   4.874   0.259   1.202
28098WAT     H184536   4.889   0.166   1.166
28098WAT     H284537   4.963   0.302   1.220
28099WAT      O84538   9.544   4.732   3.687
28099WAT     H184539   9.582   4.747   3.595
28099WAT     H284540   9.452   4.694   3.678
28100WAT      O84541   8.717   1.617   9.067
28100WAT     H184542   8.664   1.642   8.986
28100WAT     H284543   8.663   1.635   9.149
28101WAT      O84544   4.827   5.237   0.055
28101WAT     H184545   4.839   5.194   0.144
28101WAT     H284546   4.746   5.296   0.056
28102WAT      O84547   7.725   8.021   6.190
28102WAT     H184548   7.795   8.052   6.126
28102WAT     H284549   7.663   8.096   6.211
28103WAT      O84550   0.632   5.942   6.718
28103WAT     H184551   0.579   5.880   6.776
28103WAT     H284552   0.578   5.967   6.638
28104WAT      O84553   7.686   6.220   0.064
28104WAT     H184554   7.626   6.183  -0.007
28104WAT     H284555   7.770   6.166   0.068
28105WAT      O84556   9.509   9.084   4.107
28105WAT     H184557   9.475   9.111   4.197
28105WAT     H284558   9.608   9.070   4.112
28106WAT      O84559   2.468   2.691   0.241
28106WAT     H184560   2.436   2.706   0.334
28106WAT     H284561   2.506   2.776   0.205
28107WAT      O84562   0.368   2.712   4.353
28107WAT     H184563   0.380   2.623   4.309
28107WAT     H284564   0.450   2.734   4.406
28108WAT      O84565   5.622   8.936   2.052
28108WAT     H184566   5.720   8.943   2.067
28108WAT     H284567   5.584   9.027   2.038
28109WAT      O84568   0.405   2.451   4.271
28109WAT     H184569   0.478   2.439   4.338
28109WAT     H284570   0.405   2.375   4.207
28110WAT      O84571   7.369   8.588   9.425
28110WAT     H184572   7.374   8.602   9.524
28110WAT     H284573   7.462   8.578   9.389
28111WAT      O84574   8.835   5.482   7.977
28111WAT     H184575   8.736   5.489   7.960
28111WAT     H284576   8.881   5.455   7.893
28112WAT      O84577   3.939   7.540   9.065
28112WAT     H184578   3.875   7.598   9.015
28112WAT     H284579   4.006   7.598   9.113
28113WAT      O84580   8.727   4.871   3.076
28113WAT     H184581   8.724   4.843   2.980
28113WAT     H284582   8.790   4.948   3.086
28114WAT      O84583   8.072   3.858   7.854
28114WAT     H184584   8.017   3.908   7.787
28114WAT     H284585   8.112   3.777   7.810
28115WAT      O84586   5.503   8.727   0.603
28115WAT     H184587   5.444   8.715   0.682
28115WAT     H284588   5.453   8.702   0.520
28116WAT      O84589   0.123   6.519   5.386
28116WAT     H184590   0.098   6.610   5.353
28116WAT     H284591   0.043   6.460   5.382
28117WAT      O84592   9.808   8.939   0.263
28117WAT     H184593   9.826   9.037   0.268
28117WAT     H284594   9.711   8.923   0.283
28118WAT      O84595   1.733   8.610   9.235
28118WAT     H184596   1.798   8.661   9.179
28118WAT     H284597   1.730   8.515   9.205
28119WAT      O84598   6.539   0.429   4.522
28119WAT     H184599   6.538   0.353   4.587
28119WAT     H284600   6.448   0.470   4.517
28120WAT      O84601   4.663   5.712   2.783
28120WAT     H184602   4.569   5.714   2.817
28120WAT     H284603   4.694   5.806   2.766
28121WAT      O84604   6.158   8.980   5.678
28121WAT     H184605   6.202   9.026   5.602
28121WAT     H284606   6.059   8.981   5.665
28122WAT      O84607   2.178   7.985   6.000
28122WAT     H184608   2.218   8.065   6.045
28122WAT     H284609   2.251   7.929   5.960
28123WAT      O84610   9.013   1.118   6.862
28123WAT     H184611   8.931   1.071   6.894
28123WAT     H284612   8.996   1.159   6.773
28124WAT      O84613   5.280   5.610   2.134
28124WAT     H184614   5.346   5.648   2.199
28124WAT     H284615   5.330   5.568   2.058
28125WAT      O84616   2.052   7.720   1.769
28125WAT     H184617   2.043   7.626   1.736
28125WAT     H284618   2.140   7.730   1.816
28126WAT      O84619   3.369   7.958   6.928
28126WAT     H184620   3.352   7.972   6.830
28126WAT     H284621   3.319   8.027   6.980
28127WAT      O84622   0.246   5.739   3.329
28127WAT     H184623   0.163   5.714   3.379
28127WAT     H284624   0.221   5.792   3.248
28128WAT      O84625   2.193   8.370   7.851
28128WAT     H184626   2.235   8.308   7.918
28128WAT     H284627   2.264   8.418   7.800
28129WAT      O84628   3.092   3.771   6.479
28129WAT     H184629   3.154   3.794   6.403
28129WAT     H284630   3.049   3.855   6.513
28130WAT      O84631   8.842   3.948   0.586
28130WAT     H184632   8.764   3.949   0.648
28130WAT     H284633   8.927   3.948   0.639
28131WAT      O84634   9.107   2.672   7.537
28131WAT     H184635   9.147   2.689   7.627
28131WAT     H284636   9.122   2.751   7.478
28132WAT      O84637   8.711   7.117   0.491
28132WAT     H184638   8.616   7.108   0.462
28132WAT     H284639   8.730   7.213   0.513
28133WAT      O84640   9.562   6.853   0.720
28133WAT     H184641   9.613   6.850   0.635
28133WAT     H284642   9.612   6.907   0.788
28134WAT      O84643   6.299   0.966   9.064
28134WAT     H184644   6.271   0.941   9.156
28134WAT     H284645   6.289   1.064   9.050
28135WAT      O84646   7.751   4.824   5.104
28135WAT     H184647   7.827   4.857   5.159
28135WAT     H284648   7.667   4.824   5.159
28136WAT      O84649   2.176   8.816   4.375
28136WAT     H184650   2.144   8.827   4.281
28136WAT     H284651   2.154   8.898   4.427
28137WAT      O84652   8.523   0.796   9.382
28137WAT     H184653   8.540   0.754   9.470
28137WAT     H284654   8.568   0.742   9.310
28138WAT      O84655   6.014   8.873   6.281
28138WAT     H184656   6.051   8.787   6.318
28138WAT     H284657   5.938   8.903   6.338
28139WAT      O84658   5.481   0.006   2.246
28139WAT     H184659   5.493   0.069   2.169
28139WAT     H284660   5.528   0.041   2.326
28140WAT      O84661   0.986   7.016   3.348
28140WAT     H184662   1.017   7.045   3.258
28140WAT     H284663   0.920   6.942   3.339
28141WAT      O84664   7.086   1.603   1.399
28141WAT     H184665   7.109   1.508   1.379
28141WAT     H284666   7.002   1.607   1.454
28142WAT      O84667   1.031   4.482   3.961
28142WAT     H184668   1.056   4.577   3.977
28142WAT     H284669   0.943   4.462   4.004
28143WAT      O84670   7.701   1.919   2.623
28143WAT     H184671   7.800   1.914   2.628
28143WAT     H284672   7.662   1.828   2.639
28144WAT      O84673   1.605   4.521   9.542
28144WAT     H184674   1.663   4.508   9.622
28144WAT     H284675   1.530   4.584   9.565
28145WAT      O84676   0.958   5.655   9.259
28145WAT     H184677   0.883   5.679   9.321
28145WAT     H284678   1.012   5.737   9.239
28146WAT      O84679   3.004   0.630   9.408
28146WAT     H184680   3.089   0.639   9.461
28146WAT     H284681   2.970   0.720   9.383
28147WAT      O84682   6.608   2.725   9.548
28147WAT     H184683   6.694   2.698   9.590
28147WAT     H284684   6.611   2.822   9.526
28148WAT      O84685   3.840   7.791   7.469
28148WAT     H184686   3.756   7.763   7.516
28148WAT     H284687   3.913   7.803   7.537
28149WAT      O84688   4.274   2.970   3.045
28149WAT     H184689   4.221   2.896   3.085
28149WAT     H284690   4.299   2.946   2.951
28150WAT      O84691   9.380   7.365   9.123
28150WAT     H184692   9.427   7.444   9.084
28150WAT     H284693   9.419   7.344   9.213
28151WAT      O84694   7.309   1.949   2.116
28151WAT     H184695   7.295   1.939   2.214
28151WAT     H284696   7.392   2.004   2.100
28152WAT      O84697   2.371   0.045   3.932
28152WAT     H184698   2.405   0.108   4.001
28152WAT     H284699   2.350   0.095   3.848
28153WAT      O84700   9.762   7.475   5.682
28153WAT     H184701   9.731   7.449   5.591
28153WAT     H284702   9.703   7.547   5.718
28154WAT      O84703   2.561   1.877   3.905
28154WAT     H184704   2.481   1.822   3.929
28154WAT     H284705   2.613   1.830   3.834
28155WAT      O84706   0.035   9.835   6.913
28155WAT     H184707   0.086   9.872   6.835
28155WAT     H284708   0.041   9.735   6.911
28156WAT      O84709   2.096   2.459   8.082
28156WAT     H184710   2.144   2.477   8.167
28156WAT     H284711   2.133   2.376   8.039
28157WAT      O84712   9.317   4.788   8.838
28157WAT     H184713   9.348   4.710   8.891
28157WAT     H284714   9.233   4.764   8.788
28158WAT      O84715   9.793   7.683   0.666
28158WAT     H184716   9.760   7.705   0.757
28158WAT     H284717   9.756   7.749   0.600
28159WAT      O84718   7.107   7.156   8.702
28159WAT     H184719   7.178   7.115   8.645
28159WAT     H284720   7.141   7.240   8.743
28160WAT      O84721   1.785   0.390   2.315
28160WAT     H184722   1.702   0.386   2.370
28160WAT     H284723   1.825   0.299   2.308
28161WAT      O84724   2.871   4.316   2.448
28161WAT     H184725   2.811   4.244   2.483
28161WAT     H284726   2.964   4.301   2.480
28162WAT      O84727   3.116   4.357   8.427
28162WAT     H184728   3.200   4.315   8.391
28162WAT     H284729   3.098   4.320   8.518
28163WAT      O84730   0.498   8.728   6.605
28163WAT     H184731   0.563   8.804   6.606
28163WAT     H284732   0.451   8.726   6.517
28164WAT      O84733   6.388   0.063   5.325
28164WAT     H184734   6.458   0.133   5.314
28164WAT     H284735   6.425  -0.027   5.302
28165WAT      O84736   3.153   5.038   7.453
28165WAT     H184737   3.149   4.948   7.409
28165WAT     H284738   3.210   5.033   7.534
28166WAT      O84739   8.748   6.933   8.040
28166WAT     H184740   8.798   6.906   7.957
28166WAT     H284741   8.743   7.032   8.044
28167WAT      O84742   0.750   3.725   9.229
28167WAT     H184743   0.734   3.761   9.137
28167WAT     H284744   0.697   3.642   9.243
28168WAT      O84745   8.559   9.606   9.086
28168WAT     H184746   8.587   9.679   9.149
28168WAT     H284747   8.503   9.540   9.135
28169WAT      O84748   3.583   0.221   6.904
28169WAT     H184749   3.669   0.202   6.858
28169WAT     H284750   3.509   0.224   6.836
28170WAT      O84751   3.840   0.417   1.806
28170WAT     H184752   3.922   0.444   1.756
28170WAT     H284753   3.830   0.474   1.887
28171WAT      O84754   1.949   7.465   4.923
28171WAT     H184755   1.890   7.479   5.002
28171WAT     H284756   1.894   7.468   4.839
28172WAT      O84757   7.710   1.374   1.802
28172WAT     H184758   7.663   1.348   1.886
28172WAT     H284759   7.684   1.466   1.776
28173WAT      O84760   6.495   7.104   4.148
28173WAT     H184761   6.498   7.015   4.194
28173WAT     H284762   6.561   7.166   4.191
28174WAT      O84763   9.150   1.873   7.708
28174WAT     H184764   9.231   1.925   7.682
28174WAT     H284765   9.091   1.929   7.766
28175WAT      O84766   9.720   3.138   1.182
28175WAT     H184767   9.665   3.057   1.198
28175WAT     H284768   9.669   3.219   1.211
28176WAT      O84769   5.259   3.958   3.568
28176WAT     H184770   5.185   3.983   3.506
28176WAT     H284771   5.220   3.927   3.655
28177WAT      O84772   5.142   7.265   6.474
28177WAT     H184773   5.196   7.272   6.558
28177WAT     H284774   5.202   7.242   6.398
28178WAT      O84775   8.763   5.527   9.396
28178WAT     H184776   8.740   5.473   9.315
28178WAT     H284777   8.784   5.621   9.370
28179WAT      O84778   6.953   6.788   0.375
28179WAT     H184779   6.942   6.887   0.364
28179WAT     H284780   6.958   6.766   0.473
28180WAT      O84781   9.693   9.276   3.892
28180WAT     H184782   9.643   9.191   3.877
28180WAT     H284783   9.672   9.312   3.982
28181WAT      O84784   2.808   1.490   1.022
28181WAT     H184785   2.785   1.392   1.019
28181WAT     H284786   2.725   1.543   1.032
28182WAT      O84787   5.332   1.278   6.955
28182WAT     H184788   5.327   1.265   6.856
28182WAT     H284789   5.296   1.368   6.978
28183WAT      O84790   9.762   0.293   5.602
28183WAT     H184791   9.738   0.389   5.588
28183WAT     H284792   9.831   0.266   5.535
28184WAT      O84793   2.232   1.747   6.658
28184WAT     H184794   2.264   1.804   6.733
28184WAT     H284795   2.152   1.790   6.616
28185WAT      O84796   9.008   2.909   7.263
28185WAT     H184797   9.020   2.841   7.191
28185WAT     H284798   9.016   3.001   7.224
28186WAT      O84799   1.210   8.713   2.908
28186WAT     H184800   1.117   8.699   2.875
28186WAT     H284801   1.274   8.663   2.850
28187WAT      O84802   2.699   7.569   6.812
28187WAT     H184803   2.782   7.544   6.761
28187WAT     H284804   2.725   7.607   6.901
28188WAT      O84805   2.966   0.140   3.518
28188WAT     H184806   2.891   0.121   3.581
28188WAT     H284807   3.048   0.091   3.548
28189WAT      O84808   5.988   1.720   1.799
28189WAT     H184809   6.078   1.677   1.802
28189WAT     H284810   5.997   1.818   1.817
28190WAT      O84811   7.661   1.077   4.518
28190WAT     H184812   7.595   1.141   4.478
28190WAT     H284813   7.742   1.127   4.548
28191WAT      O84814   1.937   8.411   0.132
28191WAT     H184815   2.023   8.364   0.113
28191WAT     H284816   1.880   8.353   0.191
28192WAT      O84817   6.277   6.421   7.680
28192WAT     H184818   6.361   6.465   7.712
28192WAT     H284819   6.201   6.486   7.684
28193WAT      O84820   2.660   2.563   8.080
28193WAT     H184821   2.688   2.507   8.002
28193WAT     H284822   2.677   2.660   8.059
28194WAT      O84823   8.039   1.458   9.159
28194WAT     H184824   8.112   1.475   9.225
28194WAT     H284825   7.970   1.529   9.167
28195WAT      O84826   9.804   2.751   1.262
28195WAT     H184827   9.850   2.815   1.200
28195WAT     H284828   9.740   2.695   1.210
28196WAT      O84829   5.313   4.817   3.024
28196WAT     H184830   5.246   4.826   2.951
28196WAT     H284831   5.293   4.735   3.078
28197WAT      O84832   8.931   6.206   7.527
28197WAT     H184833   8.961   6.113   7.549
28197WAT     H284834   8.834   6.205   7.503
28198WAT      O84835   4.835   1.542   1.518
28198WAT     H184836   4.891   1.605   1.465
28198WAT     H284837   4.871   1.536   1.612
28199WAT      O84838   7.378   3.099   8.417
28199WAT     H184839   7.468   3.118   8.454
28199WAT     H284840   7.316   3.175   8.436
28200WAT      O84841   9.555   8.129   0.753
28200WAT     H184842   9.645   8.173   0.758
28200WAT     H284843   9.518   8.138   0.661
28201WAT      O84844   4.018   2.771   7.199
28201WAT     H184845   4.046   2.751   7.105
28201WAT     H284846   3.922   2.801   7.200
28202WAT      O84847   6.525   8.053   5.369
28202WAT     H184848   6.536   7.982   5.439
28202WAT     H284849   6.582   8.131   5.391
28203WAT      O84850   9.596   9.676   1.888
28203WAT     H184851   9.622   9.581   1.907
28203WAT     H284852   9.538   9.710   1.962
28204WAT      O84853   2.025   4.202   8.709
28204WAT     H184854   1.993   4.108   8.702
28204WAT     H284855   2.064   4.217   8.800
28205WAT      O84856   5.912   0.794   0.420
28205WAT     H184857   5.992   0.759   0.371
28205WAT     H284858   5.861   0.718   0.460
28206WAT      O84859   1.542   6.132   2.469
28206WAT     H184860   1.477   6.062   2.438
28206WAT     H284861   1.599   6.160   2.392
28207WAT      O84862   1.758   2.766   7.994
28207WAT     H184863   1.834   2.831   8.000
28207WAT     H284864   1.793   2.673   7.997
28208WAT      O84865   3.315   9.506   5.493
28208WAT     H184866   3.404   9.552   5.487
28208WAT     H284867   3.258   9.534   5.416
28209WAT      O84868   6.527   2.576   1.019
28209WAT     H184869   6.470   2.633   1.079
28209WAT     H284870   6.624   2.588   1.044
28210WAT      O84871   7.753   8.938   1.439
28210WAT     H184872   7.784   8.843   1.435
28210WAT     H284873   7.825   8.995   1.480
28211WAT      O84874   7.392   6.191   7.953
28211WAT     H184875   7.453   6.124   7.995
28211WAT     H284876   7.443   6.274   7.930
28212WAT      O84877   1.572   9.005   2.381
28212WAT     H184878   1.587   9.099   2.413
28212WAT     H284879   1.634   8.943   2.431
28213WAT      O84880   8.604   9.542   0.662
28213WAT     H184881   8.609   9.638   0.692
28213WAT     H284882   8.599   9.539   0.562
28214WAT      O84883   1.987   3.905   9.078
28214WAT     H184884   2.034   3.986   9.112
28214WAT     H284885   1.950   3.924   8.987
28215WAT      O84886   6.316   9.028   4.906
28215WAT     H184887   6.297   9.051   5.002
28215WAT     H284888   6.317   8.928   4.896
28216WAT      O84889   9.875   0.493   7.583
28216WAT     H184890   9.947   0.532   7.526
28216WAT     H284891   9.913   0.418   7.637
28217WAT      O84892   5.844   3.901   3.962
28217WAT     H184893   5.749   3.881   3.983
28217WAT     H284894   5.884   3.823   3.914
28218WAT      O84895   4.943   6.326   8.661
28218WAT     H184896   4.918   6.315   8.565
28218WAT     H284897   4.872   6.285   8.719
28219WAT      O84898   7.086   9.340   3.779
28219WAT     H184899   7.179   9.343   3.814
28219WAT     H284900   7.081   9.278   3.701
28220WAT      O84901   7.125   2.071   1.100
28220WAT     H184902   7.155   2.130   1.174
28220WAT     H284903   7.174   2.096   1.016
28221WAT      O84904   5.488   2.681   2.057
28221WAT     H184905   5.555   2.608   2.040
28221WAT     H284906   5.401   2.657   2.015
28222WAT      O84907   7.040   5.247   5.041
28222WAT     H184908   6.961   5.189   5.065
28222WAT     H284909   7.110   5.191   4.998
28223WAT      O84910   8.554   7.865   7.157
28223WAT     H184911   8.573   7.915   7.073
28223WAT     H284912   8.456   7.850   7.166
28224WAT      O84913   9.205   0.227   5.028
28224WAT     H184914   9.120   0.195   5.070
28224WAT     H284915   9.252   0.289   5.091
28225WAT      O84916   8.503   6.774   8.577
28225WAT     H184917   8.571   6.847   8.587
28225WAT     H284918   8.461   6.781   8.487
28226WAT      O84919   5.726   7.986   7.544
28226WAT     H184920   5.815   7.939   7.537
28226WAT     H284921   5.722   8.061   7.479
28227WAT      O84922   9.708   7.436   2.260
28227WAT     H184923   9.760   7.507   2.307
28227WAT     H284924   9.695   7.461   2.165
28228WAT      O84925   4.679   2.568   4.302
28228WAT     H184926   4.649   2.585   4.396
28228WAT     H284927   4.651   2.644   4.244
28229WAT      O84928   5.183   6.127   4.229
28229WAT     H184929   5.093   6.089   4.251
28229WAT     H284930   5.176   6.186   4.149
28230WAT      O84931   5.281   0.111   6.784
28230WAT     H184932   5.212   0.182   6.772
28230WAT     H284933   5.329   0.096   6.697
28231WAT      O84934   4.193   2.574   7.992
28231WAT     H184935   4.207   2.488   8.040
28231WAT     H284936   4.111   2.567   7.934
28232WAT      O84937   1.381   3.158   5.661
28232WAT     H184938   1.364   3.204   5.748
28232WAT     H284939   1.352   3.216   5.585
28233WAT      O84940   0.803   3.281   2.650
28233WAT     H184941   0.822   3.245   2.741
28233WAT     H284942   0.889   3.298   2.602
28234WAT      O84943   2.675   9.335   8.553
28234WAT     H184944   2.758   9.373   8.512
28234WAT     H284945   2.671   9.359   8.650
28235WAT      O84946   2.588   5.115   3.985
28235WAT     H184947   2.651   5.182   4.022
28235WAT     H284948   2.575   5.041   4.051
28236WAT      O84949   7.290   2.241   6.202
28236WAT     H184950   7.386   2.242   6.228
28236WAT     H284951   7.239   2.304   6.261
28237WAT      O84952   0.326   5.270   3.320
28237WAT     H184953   0.331   5.359   3.366
28237WAT     H284954   0.392   5.207   3.361
28238WAT      O84955   1.850   5.138   9.099
28238WAT     H184956   1.873   5.045   9.129
28238WAT     H284957   1.777   5.174   9.157
28239WAT      O84958   2.233   1.845   1.540
28239WAT     H184959   2.231   1.745   1.546
28239WAT     H284960   2.141   1.881   1.553
28240WAT      O84961   7.929   2.219   7.187
28240WAT     H184962   7.991   2.252   7.259
28240WAT     H284963   7.890   2.297   7.139
28241WAT      O84964   0.384   7.029   9.619
28241WAT     H184965   0.385   7.022   9.719
28241WAT     H284966   0.392   7.125   9.592
28242WAT      O84967   1.758   5.454   7.451
28242WAT     H184968   1.804   5.534   7.490
28242WAT     H284969   1.659   5.464   7.465
28243WAT      O84970   5.405   0.074   6.549
28243WAT     H184971   5.434  -0.013   6.510
28243WAT     H284972   5.410   0.145   6.479
28244WAT      O84973   2.661   1.445   2.296
28244WAT     H184974   2.602   1.442   2.215
28244WAT     H284975   2.703   1.536   2.303
28245WAT      O84976   9.279   5.722   8.872
28245WAT     H184977   9.185   5.755   8.871
28245WAT     H284978   9.308   5.703   8.778
28246WAT      O84979   2.783   6.767   7.579
28246WAT     H184980   2.719   6.689   7.573
28246WAT     H284981   2.842   6.768   7.498
28247WAT      O84982   2.373   3.588   9.148
28247WAT     H184983   2.389   3.533   9.229
28247WAT     H284984   2.325   3.533   9.079
28248WAT      O84985   2.733   1.588   5.332
28248WAT     H184986   2.808   1.522   5.333
28248WAT     H284987   2.727   1.630   5.241
28249WAT      O84988   4.485   3.251   1.667
28249WAT     H184989   4.572   3.214   1.637
28249WAT     H284990   4.464   3.334   1.615
28250WAT      O84991   7.471   5.418   3.841
28250WAT     H184992   7.386   5.404   3.790
28250WAT     H284993   7.547   5.431   3.777
28251WAT      O84994   3.514   2.125   7.617
28251WAT     H184995   3.503   2.141   7.715
28251WAT     H284996   3.449   2.181   7.567
28252WAT      O84997   7.872   8.268   5.664
28252WAT     H184998   7.915   8.178   5.663
28252WAT     H284999   7.859   8.297   5.759
28253WAT      O85000   7.676   0.623   3.885
28253WAT     H185001   7.590   0.591   3.845
28253WAT     H285002   7.695   0.572   3.969
28254WAT      O85003   2.660   7.347   4.612
28254WAT     H185004   2.688   7.252   4.599
28254WAT     H285005   2.653   7.368   4.710
28255WAT      O85006   0.291   9.343   7.203
28255WAT     H185007   0.240   9.257   7.210
28255WAT     H285008   0.296   9.372   7.108
28256WAT      O85009   3.874   2.280   9.313
28256WAT     H185010   3.962   2.325   9.296
28256WAT     H285011   3.803   2.322   9.257
28257WAT      O85012   9.681   8.908   7.033
28257WAT     H185013   9.695   9.002   7.063
28257WAT     H285014   9.690   8.903   6.934
28258WAT      O85015   2.068   7.630   6.510
28258WAT     H185016   2.077   7.532   6.530
28258WAT     H285017   2.128   7.682   6.570
28259WAT      O85018   8.523   8.642   4.014
28259WAT     H185019   8.539   8.726   3.961
28259WAT     H285020   8.468   8.663   4.094
28260WAT      O85021   9.678   2.486   0.615
28260WAT     H185022   9.670   2.433   0.531
28260WAT     H285023   9.758   2.545   0.611
28261WAT      O85024   8.895   4.584   6.607
28261WAT     H185025   8.954   4.545   6.677
28261WAT     H285026   8.915   4.542   6.519
28262WAT      O85027   5.030   7.711   2.228
28262WAT     H185028   5.029   7.624   2.180
28262WAT     H285029   5.016   7.695   2.326
28263WAT      O85030   5.554   8.582   0.017
28263WAT     H185031   5.481   8.647  -0.002
28263WAT     H285032   5.570   8.524  -0.063
28264WAT      O85033   5.073   3.822   9.852
28264WAT     H185034   5.059   3.759   9.929
28264WAT     H285035   5.016   3.795   9.775
28265WAT      O85036   0.386   5.585   8.090
28265WAT     H185037   0.335   5.611   8.007
28265WAT     H285038   0.367   5.651   8.162
28266WAT      O85039   2.959   8.194   7.841
28266WAT     H185040   2.957   8.217   7.938
28266WAT     H285041   2.986   8.099   7.830
28267WAT      O85042   6.515   6.390   9.024
28267WAT     H185043   6.527   6.305   8.972
28267WAT     H285044   6.422   6.425   9.009
28268WAT      O85045   3.452   0.846   4.654
28268WAT     H185046   3.448   0.935   4.608
28268WAT     H285047   3.465   0.774   4.586
28269WAT      O85048   4.440   4.139   3.373
28269WAT     H185049   4.473   4.102   3.460
28269WAT     H285050   4.449   4.239   3.374
28270WAT      O85051   0.517   9.207   9.036
28270WAT     H185052   0.566   9.291   9.062
28270WAT     H285053   0.564   9.128   9.074
28271WAT      O85054   2.283   2.873   7.203
28271WAT     H185055   2.332   2.846   7.121
28271WAT     H285056   2.232   2.795   7.239
28272WAT      O85057   0.516   2.331   4.644
28272WAT     H185058   0.578   2.356   4.719
28272WAT     H285059   0.487   2.413   4.595
28273WAT      O85060   3.056   2.187   0.166
28273WAT     H185061   2.981   2.254   0.160
28273WAT     H285062   3.103   2.182   0.078
28274WAT      O85063   6.869   9.577   3.378
28274WAT     H185064   6.849   9.494   3.325
28274WAT     H285065   6.902   9.551   3.469
28275WAT      O85066   2.428   4.907   1.448
28275WAT     H185067   2.495   4.972   1.413
28275WAT     H285068   2.395   4.938   1.537
28276WAT      O85069   3.999   8.375   5.973
28276WAT     H185070   3.988   8.378   6.073
28276WAT     H285071   4.046   8.291   5.947
28277WAT      O85072   2.922   0.742   6.097
28277WAT     H185073   2.996   0.686   6.058
28277WAT     H285074   2.849   0.682   6.129
28278WAT      O85075   9.665   2.572   1.119
28278WAT     H185076   9.669   2.477   1.086
28278WAT     H285077   9.570   2.597   1.135
28279WAT      O85078   4.137   0.976   4.958
28279WAT     H185079   4.098   1.022   4.878
28279WAT     H285080   4.166   0.884   4.933
28280WAT      O85081   0.985   0.182   5.808
28280WAT     H185082   0.907   0.232   5.770
28280WAT     H285083   1.040   0.243   5.866
28281WAT      O85084   5.921   1.337   4.143
28281WAT     H185085   5.935   1.435   4.130
28281WAT     H285086   5.955   1.309   4.233
28282WAT      O85087   1.641   4.990   8.340
28282WAT     H185088   1.686   4.903   8.318
28282WAT     H285089   1.554   4.995   8.292
28283WAT      O85090   9.884   5.593   2.488
28283WAT     H185091   9.947   5.550   2.553
28283WAT     H285092   9.790   5.580   2.521
28284WAT      O85093   0.646   5.590   6.898
28284WAT     H185094   0.653   5.540   6.812
28284WAT     H285095   0.563   5.646   6.898
28285WAT      O85096   8.801   3.935   4.610
28285WAT     H185097   8.803   3.917   4.512
28285WAT     H285098   8.859   4.013   4.631
28286WAT      O85099   1.572   5.973   9.774
28286WAT     H185100   1.619   6.061   9.766
28286WAT     H285101   1.477   5.988   9.802
28287WAT      O85102   0.170   4.732   1.066
28287WAT     H185103   0.121   4.648   1.041
28287WAT     H285104   0.238   4.710   1.136
28288WAT      O85105   9.683   2.823   3.093
28288WAT     H185106   9.716   2.729   3.101
28288WAT     H285107   9.739   2.873   3.026
28289WAT      O85108   2.574   5.356   3.698
28289WAT     H185109   2.520   5.428   3.742
28289WAT     H285110   2.666   5.354   3.739
28290WAT      O85111   5.332   5.584   7.480
28290WAT     H185112   5.274   5.544   7.550
28290WAT     H285113   5.368   5.511   7.421
28291WAT      O85114   2.638   6.500   1.891
28291WAT     H185115   2.691   6.478   1.810
28291WAT     H285116   2.540   6.498   1.868
28292WAT      O85117   5.233   0.175   2.267
28292WAT     H185118   5.301   0.108   2.239
28292WAT     H285119   5.279   0.258   2.298
28293WAT      O85120   3.854   9.654   4.764
28293WAT     H185121   3.826   9.589   4.694
28293WAT     H285122   3.891   9.604   4.843
28294WAT      O85123   7.428   3.471   8.279
28294WAT     H185124   7.360   3.473   8.207
28294WAT     H285125   7.509   3.422   8.247
28295WAT      O85126   8.393   0.522   1.659
28295WAT     H185127   8.322   0.455   1.680
28295WAT     H285128   8.481   0.489   1.692
28296WAT      O85129   9.124   9.665   6.853
28296WAT     H185130   9.111   9.756   6.892
28296WAT     H285131   9.164   9.605   6.923
28297WAT      O85132   4.076   6.094   5.080
28297WAT     H185133   4.101   6.172   5.022
28297WAT     H285134   3.986   6.110   5.121
28298WAT      O85135   5.645   6.570   5.752
28298WAT     H185136   5.610   6.519   5.673
28298WAT     H285137   5.673   6.661   5.723
28299WAT      O85138   8.557   4.326   1.432
28299WAT     H185139   8.522   4.355   1.521
28299WAT     H285140   8.484   4.332   1.364
28300WAT      O85141   8.469   6.579   2.967
28300WAT     H185142   8.490   6.493   3.014
28300WAT     H285143   8.547   6.641   2.974
28301WAT      O85144   0.049   9.664   4.379
28301WAT     H185145   0.134   9.712   4.404
28301WAT     H285146  -0.021   9.730   4.356
28302WAT      O85147   3.104   8.432   1.039
28302WAT     H185148   3.068   8.339   1.033
28302WAT     H285149   3.062   8.488   0.967
28303WAT      O85150   3.776   2.699   3.761
28303WAT     H185151   3.704   2.635   3.732
28303WAT     H285152   3.734   2.786   3.788
28304WAT      O85153   8.022   9.470   8.456
28304WAT     H185154   8.068   9.480   8.368
28304WAT     H285155   7.948   9.537   8.463
28305WAT      O85156   0.833   5.673   1.755
28305WAT     H185157   0.787   5.662   1.667
28305WAT     H285158   0.771   5.719   1.819
28306WAT      O85159   1.532   0.051   9.493
28306WAT     H185160   1.620   0.097   9.510
28306WAT     H285161   1.463   0.120   9.471
28307WAT      O85162   4.120   5.982   9.842
28307WAT     H185163   4.031   6.026   9.855
28307WAT     H285164   4.185   6.020   9.907
28308WAT      O85165   3.336   0.101   2.302
28308WAT     H185166   3.430   0.131   2.286
28308WAT     H285167   3.280   0.179   2.330
28309WAT      O85168   8.069   0.384   4.305
28309WAT     H185169   8.135   0.422   4.369
28309WAT     H285170   8.083   0.285   4.298
28310WAT      O85171   3.394   0.296   5.719
28310WAT     H185172   3.310   0.244   5.735
28310WAT     H285173   3.471   0.232   5.710
28311WAT      O85174   7.220   6.225   5.157
28311WAT     H185175   7.140   6.178   5.120
28311WAT     H285176   7.286   6.158   5.191
28312WAT      O85177   2.130   1.461   5.701
28312WAT     H185178   2.085   1.509   5.776
28312WAT     H285179   2.143   1.365   5.726
28313WAT      O85180   1.624   5.342   4.580
28313WAT     H185181   1.602   5.426   4.530
28313WAT     H285182   1.562   5.332   4.658
28314WAT      O85183   2.085   3.816   4.170
28314WAT     H185184   2.129   3.800   4.081
28314WAT     H285185   2.133   3.889   4.218
28315WAT      O85186   4.019   9.200   7.617
28315WAT     H185187   4.026   9.299   7.611
28315WAT     H285188   3.937   9.169   7.569
28316WAT      O85189   2.953   8.242   9.615
28316WAT     H185190   2.984   8.147   9.621
28316WAT     H285191   2.991   8.295   9.691
28317WAT      O85192   9.111   2.561   2.779
28317WAT     H185193   9.062   2.622   2.842
28317WAT     H285194   9.163   2.616   2.714
28318WAT      O85195   0.222   6.789   6.637
28318WAT     H185196   0.143   6.840   6.671
28318WAT     H285197   0.230   6.802   6.538
28319WAT      O85198   1.673   0.925   0.401
28319WAT     H185199   1.747   0.941   0.336
28319WAT     H285200   1.635   0.834   0.387
28320WAT      O85201   0.836   9.587   8.577
28320WAT     H185202   0.828   9.681   8.543
28320WAT     H285203   0.827   9.523   8.501
28321WAT      O85204   8.626   1.189   7.639
28321WAT     H185205   8.631   1.278   7.684
28321WAT     H285206   8.569   1.127   7.693
28322WAT      O85207   9.771   8.136   8.975
28322WAT     H185208   9.832   8.087   8.912
28322WAT     H285209   9.696   8.176   8.923
28323WAT      O85210   6.950   4.422   0.051
28323WAT     H185211   6.960   4.427   0.151
28323WAT     H285212   6.971   4.329   0.020
28324WAT      O85213   2.269   6.742   0.401
28324WAT     H185214   2.354   6.792   0.417
28324WAT     H285215   2.192   6.804   0.408
28325WAT      O85216   6.907   1.740   9.121
28325WAT     H185217   6.949   1.659   9.163
28325WAT     H285218   6.952   1.822   9.156
28326WAT      O85219   7.891   6.127   6.521
28326WAT     H185220   7.892   6.175   6.609
28326WAT     H285221   7.956   6.169   6.459
28327WAT      O85222   2.688   7.369   0.045
28327WAT     H185223   2.730   7.454   0.078
28327WAT     H285224   2.691   7.300   0.118
28328WAT      O85225   7.933   7.772   0.513
28328WAT     H185226   8.012   7.832   0.524
28328WAT     H285227   7.871   7.784   0.590
28329WAT      O85228   2.774   4.465   3.163
28329WAT     H185229   2.782   4.450   3.261
28329WAT     H285230   2.683   4.502   3.143
28330WAT      O85231   4.457   8.766   1.376
28330WAT     H185232   4.427   8.808   1.291
28330WAT     H285233   4.492   8.837   1.438
28331WAT      O85234   2.283   4.949   1.242
28331WAT     H185235   2.246   5.041   1.252
28331WAT     H285236   2.332   4.924   1.326
28332WAT      O85237   8.716   3.537   8.261
28332WAT     H185238   8.763   3.483   8.331
28332WAT     H285239   8.649   3.480   8.215
28333WAT      O85240   4.221   1.625   3.213
28333WAT     H185241   4.139   1.671   3.247
28333WAT     H285242   4.283   1.693   3.174
28334WAT      O85243   0.400   0.465   8.531
28334WAT     H185244   0.421   0.559   8.504
28334WAT     H285245   0.309   0.461   8.571
28335WAT      O85246   6.338   5.938   6.791
28335WAT     H185247   6.419   5.902   6.837
28335WAT     H285248   6.354   6.033   6.765
28336WAT      O85249   4.416   4.794   0.768
28336WAT     H185250   4.330   4.835   0.737
28336WAT     H285251   4.401   4.696   0.785
28337WAT      O85252   1.592   6.713   9.229
28337WAT     H185253   1.596   6.701   9.129
28337WAT     H285254   1.680   6.689   9.269
28338WAT      O85255   0.692   1.094   7.942
28338WAT     H185256   0.645   1.015   7.981
28338WAT     H285257   0.654   1.115   7.852
28339WAT      O85258   7.338   3.206   0.731
28339WAT     H185259   7.286   3.125   0.758
28339WAT     H285260   7.277   3.286   0.733
28340WAT      O85261   7.293   1.122   5.573
28340WAT     H185262   7.390   1.104   5.582
28340WAT     H285263   7.276   1.219   5.590
28341WAT      O85264   8.310   6.739   9.283
28341WAT     H185265   8.312   6.803   9.360
28341WAT     H285266   8.266   6.783   9.205
28342WAT      O85267   6.923   2.878   3.671
28342WAT     H185268   6.987   2.902   3.745
28342WAT     H285269   6.965   2.810   3.611
28343WAT      O85270   2.694   8.315   6.916
28343WAT     H185271   2.779   8.315   6.864
28343WAT     H285272   2.687   8.400   6.969
28344WAT      O85273   7.964   0.170   6.778
28344WAT     H185274   7.918   0.203   6.860
28344WAT     H285275   7.995   0.076   6.793
28345WAT      O85276   3.451   0.281   8.602
28345WAT     H185277   3.449   0.232   8.689
28345WAT     H285278   3.361   0.317   8.581
28346WAT      O85279   4.240   0.505   4.761
28346WAT     H185280   4.164   0.479   4.702
28346WAT     H285281   4.267   0.427   4.817
28347WAT      O85282   3.577   0.303   1.408
28347WAT     H185283   3.585   0.327   1.505
28347WAT     H285284   3.593   0.385   1.352
28348WAT      O85285   8.471   8.874   6.189
28348WAT     H185286   8.503   8.960   6.151
28348WAT     H285287   8.536   8.842   6.258
28349WAT      O85288   3.728   5.875   0.841
28349WAT     H185289   3.673   5.957   0.855
28349WAT     H285290   3.728   5.850   0.745
28350WAT      O85291   7.063   7.294   1.916
28350WAT     H185292   7.000   7.295   1.994
28350WAT     H285293   7.148   7.340   1.941
28351WAT      O85294   9.733   6.471   8.408
28351WAT     H185295   9.664   6.471   8.480
28351WAT     H285296   9.742   6.563   8.370
28352WAT      O85297   9.740   8.455   6.983
28352WAT     H185298   9.822   8.409   6.949
28352WAT     H285299   9.763   8.547   7.014
28353WAT      O85300   3.984   7.484   1.723
28353WAT     H185301   4.027   7.490   1.813
28353WAT     H285302   3.885   7.477   1.734
28354WAT      O85303   2.585   0.113   5.025
28354WAT     H185304   2.598   0.056   5.106
28354WAT     H285305   2.504   0.172   5.039
28355WAT      O85306   6.244   8.074   9.462
28355WAT     H185307   6.338   8.039   9.466
28355WAT     H285308   6.180   7.997   9.465
28356WAT      O85309   1.767   4.436   3.868
28356WAT     H185310   1.708   4.377   3.813
28356WAT     H285311   1.710   4.503   3.916
28357WAT      O85312   3.036   8.270   5.375
28357WAT     H185313   3.098   8.283   5.452
28357WAT     H285314   2.941   8.272   5.408
28358WAT      O85315   0.351   5.737   9.366
28358WAT     H185316   0.360   5.682   9.283
28358WAT     H285317   0.399   5.691   9.441
28359WAT      O85318   3.777   2.430   2.489
28359WAT     H185319   3.824   2.364   2.546
28359WAT     H285320   3.820   2.519   2.498
28360WAT      O85321   7.264   5.660   6.632
28360WAT     H185322   7.255   5.760   6.624
28360WAT     H285323   7.281   5.622   6.541
28361WAT      O85324   1.050   8.456   6.108
28361WAT     H185325   1.100   8.506   6.037
28361WAT     H285326   0.955   8.442   6.079
28362WAT      O85327   3.454   0.341   0.328
28362WAT     H185328   3.368   0.318   0.284
28362WAT     H285329   3.517   0.381   0.261
28363WAT      O85330   8.336   4.399   5.513
28363WAT     H185331   8.331   4.396   5.413
28363WAT     H285332   8.417   4.451   5.540
28364WAT      O85333   3.792   4.864   0.998
28364WAT     H185334   3.695   4.843   1.014
28364WAT     H285335   3.848   4.788   1.030
28365WAT      O85336   9.293   7.474   1.729
28365WAT     H185337   9.284   7.526   1.645
28365WAT     H285338   9.222   7.503   1.794
28366WAT      O85339   6.810   0.801   9.308
28366WAT     H185340   6.881   0.810   9.377
28366WAT     H285341   6.771   0.709   9.311
28367WAT      O85342   9.214   9.375   2.418
28367WAT     H185343   9.200   9.300   2.354
28367WAT     H285344   9.141   9.443   2.407
28368WAT      O85345   4.524   2.746   8.445
28368WAT     H185346   4.455   2.676   8.426
28368WAT     H285347   4.520   2.773   8.541
28369WAT      O85348   9.867   8.289   4.838
28369WAT     H185349   9.772   8.259   4.836
28369WAT     H285350   9.926   8.219   4.797
28370WAT      O85351   8.922   3.074   9.340
28370WAT     H185352   8.853   3.122   9.393
28370WAT     H285353   8.903   3.084   9.243
28371WAT      O85354   8.926   9.318   8.434
28371WAT     H185355   8.877   9.295   8.350
28371WAT     H285356   9.000   9.382   8.413
28372WAT      O85357   7.573   0.840   0.278
28372WAT     H185358   7.612   0.933   0.280
28372WAT     H285359   7.559   0.808   0.372
28373WAT      O85360   7.093   1.711   8.711
28373WAT     H185361   7.157   1.658   8.767
28373WAT     H285362   7.005   1.717   8.757
28374WAT      O85363   6.218   5.731   4.015
28374WAT     H185364   6.207   5.745   3.917
28374WAT     H285365   6.147   5.667   4.047
28375WAT      O85366   3.870   5.602   3.797
28375WAT     H185367   3.933   5.609   3.720
28375WAT     H285368   3.778   5.582   3.763
28376WAT      O85369   3.308   8.950   0.166
28376WAT     H185370   3.368   8.981   0.093
28376WAT     H285371   3.251   9.026   0.198
28377WAT      O85372   7.958   3.707   4.943
28377WAT     H185373   7.913   3.619   4.959
28377WAT     H285374   7.974   3.752   5.031
28378WAT      O85375   3.055   1.492   0.683
28378WAT     H185376   2.976   1.550   0.703
28378WAT     H285377   3.044   1.403   0.727
28379WAT      O85378   3.486   2.695   6.180
28379WAT     H185379   3.418   2.704   6.252
28379WAT     H285380   3.558   2.764   6.193
28380WAT      O85381   0.136   1.319   6.808
28380WAT     H185382   0.165   1.379   6.733
28380WAT     H285383   0.040   1.336   6.829
28381WAT      O85384   7.824   0.313   8.981
28381WAT     H185385   7.814   0.353   8.890
28381WAT     H285386   7.913   0.268   8.988
28382WAT      O85387   5.903   8.086   4.141
28382WAT     H185388   5.846   8.133   4.074
28382WAT     H285389   5.888   8.125   4.231
28383WAT      O85390   2.881   3.969   1.277
28383WAT     H185391   2.862   4.065   1.294
28383WAT     H285392   2.970   3.960   1.231
28384WAT      O85393   1.636   0.297   1.495
28384WAT     H185394   1.702   0.368   1.473
28384WAT     H285395   1.639   0.226   1.425
28385WAT      O85396   9.809   0.943   7.228
28385WAT     H185397   9.756   1.008   7.282
28385WAT     H285398   9.884   0.992   7.182
28386WAT      O85399   2.227   0.460   2.283
28386WAT     H185400   2.200   0.366   2.263
28386WAT     H285401   2.309   0.484   2.231
28387WAT      O85402   1.587   4.950   4.617
28387WAT     H185403   1.636   4.962   4.704
28387WAT     H285404   1.529   4.869   4.624
28388WAT      O85405   1.385   6.689   5.837
28388WAT     H185406   1.305   6.658   5.889
28388WAT     H285407   1.359   6.705   5.742
28389WAT      O85408   8.249   8.405   5.485
28389WAT     H185409   8.333   8.393   5.538
28389WAT     H285410   8.261   8.478   5.419
28390WAT      O85411   0.985   6.971   0.985
28390WAT     H185412   1.059   6.971   1.052
28390WAT     H285413   0.976   6.880   0.945
28391WAT      O85414   8.592   2.103   8.540
28391WAT     H185415   8.528   2.102   8.618
28391WAT     H285416   8.686   2.099   8.574
28392WAT      O85417   8.573   6.958   8.964
28392WAT     H185418   8.533   7.021   8.897
28392WAT     H285419   8.533   6.975   9.054
28393WAT      O85420   9.372   1.838   2.948
28393WAT     H185421   9.472   1.838   2.939
28393WAT     H285422   9.338   1.744   2.940
28394WAT      O85423   1.377   2.969   6.048
28394WAT     H185424   1.323   2.887   6.027
28394WAT     H285425   1.467   2.962   6.005
28395WAT      O85426   7.249   1.192   3.197
28395WAT     H185427   7.160   1.173   3.239
28395WAT     H285428   7.314   1.121   3.225
28396WAT      O85429   6.991   8.388   6.636
28396WAT     H185430   7.027   8.453   6.570
28396WAT     H285431   6.938   8.317   6.589
28397WAT      O85432   7.558   8.757   1.216
28397WAT     H185433   7.553   8.846   1.261
28397WAT     H285434   7.493   8.694   1.259
28398WAT      O85435   9.517   5.857   7.338
28398WAT     H185436   9.545   5.951   7.356
28398WAT     H285437   9.446   5.856   7.268
28399WAT      O85438   5.186   9.378   1.413
28399WAT     H185439   5.259   9.395   1.346
28399WAT     H285440   5.203   9.290   1.459
28400WAT      O85441   4.985   4.385   2.681
28400WAT     H185442   4.945   4.469   2.646
28400WAT     H285443   4.951   4.307   2.627
28401WAT      O85444   0.147   3.304   4.160
28401WAT     H185445   0.156   3.291   4.062
28401WAT     H285446   0.131   3.401   4.179
28402WAT      O85447   7.622   9.473   3.665
28402WAT     H185448   7.628   9.479   3.566
28402WAT     H285449   7.637   9.563   3.705
28403WAT      O85450   5.188   9.453   0.962
28403WAT     H185451   5.227   9.377   0.909
28403WAT     H285452   5.109   9.420   1.014
28404WAT      O85453   4.471   7.996   4.148
28404WAT     H185454   4.545   7.934   4.173
28404WAT     H285455   4.478   8.080   4.202
28405WAT      O85456   5.727   2.617   6.324
28405WAT     H185457   5.651   2.679   6.305
28405WAT     H285458   5.799   2.632   6.256
28406WAT      O85459   3.932   8.530   1.972
28406WAT     H185460   3.909   8.625   1.949
28406WAT     H285461   3.847   8.477   1.981
28407WAT      O85462   2.759   3.168   8.499
28407WAT     H185463   2.699   3.246   8.488
28407WAT     H285464   2.842   3.182   8.445
28408WAT      O85465   7.070   1.584   7.074
28408WAT     H185466   7.024   1.524   7.009
28408WAT     H285467   7.013   1.595   7.155
28409WAT      O85468   0.945   7.517   7.730
28409WAT     H185469   0.892   7.474   7.656
28409WAT     H285470   0.989   7.599   7.695
28410WAT      O85471   9.289   1.826   7.340
28410WAT     H185472   9.284   1.743   7.283
28410WAT     H285473   9.309   1.905   7.282
28411WAT      O85474   9.204   1.574   6.242
28411WAT     H185475   9.166   1.482   6.230
28411WAT     H285476   9.139   1.632   6.290
28412WAT      O85477   4.314   4.440   8.394
28412WAT     H185478   4.414   4.442   8.405
28412WAT     H285479   4.287   4.508   8.326
28413WAT      O85480   6.754   1.547   7.851
28413WAT     H185481   6.837   1.498   7.824
28413WAT     H285482   6.757   1.640   7.813
28414WAT      O85483   5.969   0.107   4.160
28414WAT     H185484   5.933   0.087   4.069
28414WAT     H285485   5.953   0.030   4.221
28415WAT      O85486   3.380   1.894   3.202
28415WAT     H185487   3.289   1.930   3.222
28415WAT     H285488   3.438   1.904   3.283
28416WAT      O85489   8.237   7.165   2.279
28416WAT     H185490   8.320   7.210   2.246
28416WAT     H285491   8.252   7.135   2.374
28417WAT      O85492   9.866   4.805   9.151
28417WAT     H185493   9.896   4.898   9.172
28417WAT     H285494   9.893   4.744   9.224
28418WAT      O85495   2.457   2.776   4.078
28418WAT     H185496   2.425   2.869   4.095
28418WAT     H285497   2.554   2.769   4.103
28419WAT      O85498   6.834   1.381   1.684
28419WAT     H185499   6.929   1.350   1.674
28419WAT     H285500   6.804   1.424   1.598
28420WAT      O85501   7.118   8.167   0.259
28420WAT     H185502   7.092   8.263   0.251
28420WAT     H285503   7.185   8.144   0.188
28421WAT      O85504   2.092   7.011   8.530
28421WAT     H185505   2.050   7.070   8.462
28421WAT     H285506   2.022   6.981   8.595
28422WAT      O85507   0.597   3.383   3.426
28422WAT     H185508   0.528   3.454   3.413
28422WAT     H285509   0.576   3.332   3.510
28423WAT      O85510   2.457   0.799   1.785
28423WAT     H185511   2.383   0.866   1.784
28423WAT     H285512   2.520   0.821   1.859
28424WAT      O85513   3.145   7.597   8.063
28424WAT     H185514   3.055   7.600   8.106
28424WAT     H285515   3.188   7.688   8.067
28425WAT      O85516   2.020   9.305   7.334
28425WAT     H185517   2.108   9.265   7.360
28425WAT     H285518   2.036   9.389   7.282
28426WAT      O85519   6.037   9.171   1.027
28426WAT     H185520   6.114   9.234   1.028
28426WAT     H285521   6.070   9.078   1.007
28427WAT      O85522   4.146   4.248   0.488
28427WAT     H185523   4.116   4.223   0.580
28427WAT     H285524   4.156   4.165   0.432
28428WAT      O85525   1.604   8.542   1.326
28428WAT     H185526   1.703   8.548   1.318
28428WAT     H285527   1.565   8.517   1.238
28429WAT      O85528   0.309   7.924   2.370
28429WAT     H185529   0.365   7.863   2.425
28429WAT     H285530   0.368   7.990   2.323
28430WAT      O85531   7.022   1.241   8.299
28430WAT     H185532   6.925   1.264   8.299
28430WAT     H285533   7.038   1.166   8.235
28431WAT      O85534   5.308   5.485   4.600
28431WAT     H185535   5.380   5.422   4.571
28431WAT     H285536   5.252   5.442   4.670
28432WAT      O85537   0.267   8.458   0.015
28432WAT     H185538   0.177   8.499   0.027
28432WAT     H285539   0.259   8.358   0.015
28433WAT      O85540   8.021   6.988   9.271
28433WAT     H185541   7.996   6.898   9.235
28433WAT     H285542   7.938   7.035   9.302
28434WAT      O85543   0.395   0.859   5.527
28434WAT     H185544   0.467   0.797   5.495
28434WAT     H285545   0.340   0.889   5.449
28435WAT      O85546   9.193   0.996   4.683
28435WAT     H185547   9.292   1.001   4.687
28435WAT     H285548   9.155   0.997   4.775
28436WAT      O85549   2.026   0.076   7.588
28436WAT     H185550   2.038  -0.016   7.549
28436WAT     H285551   1.976   0.069   7.674
28437WAT      O85552   8.059   3.251   1.908
28437WAT     H185553   7.963   3.278   1.908
28437WAT     H285554   8.102   3.279   1.995
28438WAT      O85555   1.380   6.873   9.491
28438WAT     H185556   1.285   6.904   9.499
28438WAT     H285557   1.436   6.918   9.561
28439WAT      O85558   8.283   7.352   8.195
28439WAT     H185559   8.359   7.338   8.130
28439WAT     H285560   8.211   7.286   8.176
28440WAT      O85561   9.757   5.428   5.879
28440WAT     H185562   9.853   5.412   5.858
28440WAT     H285563   9.736   5.525   5.866
28441WAT      O85564   4.246   0.304   4.938
28441WAT     H185565   4.282   0.354   5.018
28441WAT     H285566   4.216   0.213   4.967
28442WAT      O85567   1.980   8.527   6.446
28442WAT     H185568   2.057   8.558   6.501
28442WAT     H285569   1.931   8.607   6.410
28443WAT      O85570   6.542   0.071   5.009
28443WAT     H185571   6.633   0.030   5.008
28443WAT     H285572   6.493   0.046   4.925
28444WAT      O85573   4.129   8.011   2.891
28444WAT     H185574   4.091   8.008   2.983
28444WAT     H285575   4.203   8.078   2.888
28445WAT      O85576   0.324   1.431   3.550
28445WAT     H185577   0.385   1.352   3.543
28445WAT     H285578   0.271   1.440   3.466
28446WAT      O85579   0.847   5.155   5.237
28446WAT     H185580   0.786   5.228   5.266
28446WAT     H285581   0.807   5.106   5.159
28447WAT      O85582   3.828   3.471   1.787
28447WAT     H185583   3.789   3.475   1.695
28447WAT     H285584   3.907   3.532   1.793
28448WAT      O85585   9.293   8.686   8.678
28448WAT     H185586   9.300   8.702   8.776
28448WAT     H285587   9.239   8.759   8.635
28449WAT      O85588   7.868   2.718   6.164
28449WAT     H185589   7.821   2.643   6.117
28449WAT     H285590   7.844   2.717   6.261
28450WAT      O85591   0.630   7.742   2.197
28450WAT     H185592   0.711   7.689   2.225
28450WAT     H285593   0.609   7.721   2.102
28451WAT      O85594   3.814   2.184   7.128
28451WAT     H185595   3.738   2.197   7.064
28451WAT     H285596   3.861   2.271   7.142
28452WAT      O85597   0.260   2.686   3.278
28452WAT     H185598   0.165   2.683   3.309
28452WAT     H285599   0.314   2.621   3.331
28453WAT      O85600   7.624   9.709   4.485
28453WAT     H185601   7.697   9.777   4.497
28453WAT     H285602   7.645   9.628   4.539
28454WAT      O85603   5.588   8.753   7.629
28454WAT     H185604   5.578   8.811   7.548
28454WAT     H285605   5.522   8.678   7.624
28455WAT      O85606   3.654   7.235   4.427
28455WAT     H185607   3.700   7.299   4.365
28455WAT     H285608   3.711   7.219   4.507
28456WAT      O85609   0.707   8.626   2.275
28456WAT     H185610   0.760   8.599   2.355
28456WAT     H285611   0.657   8.710   2.295
28457WAT      O85612   5.071   1.266   1.752
28457WAT     H185613   4.999   1.207   1.715
28457WAT     H285614   5.032   1.354   1.777
28458WAT      O85615   0.666   0.467   5.237
28458WAT     H185616   0.673   0.401   5.163
28458WAT     H285617   0.757   0.487   5.273
28459WAT      O85618   1.550   2.893   9.134
28459WAT     H185619   1.648   2.916   9.134
28459WAT     H285620   1.507   2.934   9.053
28460WAT      O85621   6.116   5.222   0.833
28460WAT     H185622   6.061   5.143   0.863
28460WAT     H285623   6.116   5.226   0.733
28461WAT      O85624   1.080   1.053   1.957
28461WAT     H185625   1.157   1.064   2.020
28461WAT     H285626   1.025   0.975   1.986
28462WAT      O85627   0.657   5.452   2.181
28462WAT     H185628   0.710   5.434   2.264
28462WAT     H285629   0.718   5.485   2.109
28463WAT      O85630   9.721   5.321   4.722
28463WAT     H185631   9.681   5.229   4.715
28463WAT     H285632   9.675   5.382   4.657
28464WAT      O85633   2.895   7.318   2.090
28464WAT     H185634   2.962   7.389   2.068
28464WAT     H285635   2.857   7.281   2.005
28465WAT      O85636   2.605   6.520   9.823
28465WAT     H185637   2.696   6.482   9.806
28465WAT     H285638   2.612   6.619   9.834
28466WAT      O85639   9.145   3.338   0.841
28466WAT     H185640   9.132   3.394   0.759
28466WAT     H285641   9.056   3.318   0.882
28467WAT      O85642   5.621   5.899   7.691
28467WAT     H185643   5.605   5.874   7.787
28467WAT     H285644   5.611   5.819   7.633
28468WAT      O85645   0.074   3.699   9.661
28468WAT     H185646  -0.022   3.725   9.656
28468WAT     H285647   0.107   3.709   9.754
28469WAT      O85648   3.438   4.797   6.589
28469WAT     H185649   3.405   4.850   6.511
28469WAT     H285650   3.522   4.837   6.625
28470WAT      O85651   8.357   9.798   3.674
28470WAT     H185652   8.356   9.713   3.621
28470WAT     H285653   8.331   9.875   3.616
28471WAT      O85654   4.506   9.633   5.761
28471WAT     H185655   4.470   9.571   5.691
28471WAT     H285656   4.482   9.598   5.852
28472WAT      O85657   8.950   4.211   2.123
28472WAT     H185658   9.008   4.278   2.169
28472WAT     H285659   8.998   4.123   2.120
28473WAT      O85660   3.086   9.432   1.289
28473WAT     H185661   3.120   9.338   1.287
28473WAT     H285662   3.013   9.440   1.356
28474WAT      O85663   5.604   0.855   4.542
28474WAT     H185664   5.634   0.767   4.507
28474WAT     H285665   5.655   0.928   4.496
28475WAT      O85666   2.627   3.044   9.671
28475WAT     H185667   2.548   2.998   9.632
28475WAT     H285668   2.656   2.996   9.754
28476WAT      O85669   3.368   2.895   8.514
28476WAT     H185670   3.287   2.929   8.563
28476WAT     H285671   3.399   2.965   8.450
28477WAT      O85672   5.075   3.265   2.698
28477WAT     H185673   5.002   3.255   2.630
28477WAT     H285674   5.034   3.280   2.788
28478WAT      O85675   9.721   3.769   9.611
28478WAT     H185676   9.636   3.724   9.638
28478WAT     H285677   9.733   3.761   9.512
28479WAT      O85678   2.318   4.864   3.820
28479WAT     H185679   2.249   4.839   3.888
28479WAT     H285680   2.326   4.963   3.815
28480WAT      O85681   7.348   1.863   5.011
28480WAT     H185682   7.436   1.885   5.053
28480WAT     H285683   7.339   1.764   5.000
28481WAT      O85684   0.127   7.310   8.068
28481WAT     H185685   0.067   7.389   8.082
28481WAT     H285686   0.124   7.252   8.150
28482WAT      O85687   5.037   0.960   5.734
28482WAT     H185688   5.047   0.877   5.789
28482WAT     H285689   4.940   0.976   5.716
28483WAT      O85690   4.902   2.055   5.212
28483WAT     H185691   4.976   2.039   5.148
28483WAT     H285692   4.840   1.976   5.213
28484WAT      O85693   2.618   7.528   5.430
28484WAT     H185694   2.680   7.486   5.496
28484WAT     H285695   2.659   7.612   5.395
28485WAT      O85696   1.982   2.986   0.496
28485WAT     H185697   1.960   2.901   0.543
28485WAT     H285698   1.908   3.009   0.433
28486WAT      O85699   5.749   0.328   9.706
28486WAT     H185700   5.793   0.240   9.686
28486WAT     H285701   5.667   0.338   9.650
28487WAT      O85702   6.313   6.237   0.934
28487WAT     H185703   6.402   6.212   0.971
28487WAT     H285704   6.271   6.158   0.890
28488WAT      O85705   1.237   4.004   7.315
28488WAT     H185706   1.266   4.005   7.411
28488WAT     H285707   1.140   4.029   7.310
28489WAT      O85708   4.795   6.492   6.783
28489WAT     H185709   4.882   6.454   6.811
28489WAT     H285710   4.736   6.420   6.747
28490WAT      O85711   2.262   2.357   2.095
28490WAT     H185712   2.319   2.382   2.173
28490WAT     H285713   2.168   2.342   2.126
28491WAT      O85714   0.455   8.411   0.880
28491WAT     H185715   0.426   8.380   0.970
28491WAT     H285716   0.440   8.509   0.871
28492WAT      O85717   5.833   9.291   2.359
28492WAT     H185718   5.736   9.269   2.348
28492WAT     H285719   5.847   9.389   2.343
28493WAT      O85720   9.074   2.876   6.019
28493WAT     H185721   9.114   2.963   6.049
28493WAT     H285722   9.144   2.822   5.972
28494WAT      O85723   8.070   7.866   8.263
28494WAT     H185724   8.057   7.943   8.325
28494WAT     H285725   8.126   7.894   8.185
28495WAT      O85726   7.041   6.117   1.170
28495WAT     H185727   7.103   6.043   1.144
28495WAT     H285728   7.010   6.102   1.264
28496WAT      O85729   7.371   5.811   8.346
28496WAT     H185730   7.466   5.827   8.322
28496WAT     H285731   7.366   5.750   8.425
28497WAT      O85732   3.143   8.430   0.163
28497WAT     H185733   3.184   8.388   0.244
28497WAT     H285734   3.157   8.529   0.167
28498WAT      O85735   2.993   2.557   8.908
28498WAT     H185736   3.063   2.487   8.901
28498WAT     H285737   3.015   2.633   8.847
28499WAT      O85738   6.917   9.361   4.638
28499WAT     H185739   6.901   9.370   4.539
28499WAT     H285740   6.833   9.387   4.687
28500WAT      O85741   2.507   2.226   0.177
28500WAT     H185742   2.559   2.311   0.176
28500WAT     H285743   2.524   2.176   0.092
28501WAT      O85744   3.143   9.336   2.339
28501WAT     H185745   3.230   9.309   2.380
28501WAT     H285746   3.074   9.348   2.412
28502WAT      O85747   3.809   1.223   2.226
28502WAT     H185748   3.720   1.217   2.180
28502WAT     H285749   3.882   1.222   2.158
28503WAT      O85750   8.990   2.821   9.108
28503WAT     H185751   8.922   2.894   9.101
28503WAT     H285752   8.992   2.769   9.023
28504WAT      O85753   7.948   2.656   0.219
28504WAT     H185754   7.945   2.754   0.201
28504WAT     H285755   7.856   2.617   0.209
28505WAT      O85756   0.572   0.278   8.425
28505WAT     H185757   0.579   0.197   8.483
28505WAT     H285758   0.497   0.336   8.457
28506WAT      O85759   2.433   0.460   3.864
28506WAT     H185760   2.503   0.526   3.893
28506WAT     H285761   2.393   0.417   3.945
28507WAT      O85762   9.857   8.509   4.055
28507WAT     H185763   9.877   8.531   3.960
28507WAT     H285764   9.831   8.593   4.104
28508WAT      O85765   1.827   0.629   6.154
28508WAT     H185766   1.872   0.703   6.205
28508WAT     H285767   1.729   0.629   6.175
28509WAT      O85768   9.243   7.537   7.990
28509WAT     H185769   9.239   7.504   7.896
28509WAT     H285770   9.265   7.635   7.991
28510WAT      O85771   2.089   5.965   0.488
28510WAT     H185772   2.122   5.955   0.582
28510WAT     H285773   1.989   5.974   0.489
28511WAT      O85774   3.107   4.247   1.977
28511WAT     H185775   3.122   4.284   2.069
28511WAT     H285776   3.024   4.286   1.938
28512WAT      O85777   0.139   3.273   2.248
28512WAT     H185778   0.081   3.310   2.175
28512WAT     H285779   0.228   3.249   2.210
28513WAT      O85780   2.280   5.596   7.735
28513WAT     H185781   2.288   5.588   7.636
28513WAT     H285782   2.298   5.507   7.777
28514WAT      O85783   2.409   0.545   7.874
28514WAT     H185784   2.337   0.536   7.805
28514WAT     H285785   2.367   0.555   7.964
28515WAT      O85786   4.485   3.418   2.472
28515WAT     H185787   4.505   3.335   2.420
28515WAT     H285788   4.451   3.489   2.410
28516WAT      O85789   8.156   3.026   4.098
28516WAT     H185790   8.075   2.975   4.127
28516WAT     H285791   8.172   3.103   4.161
28517WAT      O85792   9.817   1.391   1.956
28517WAT     H185793   9.779   1.478   1.927
28517WAT     H285794   9.791   1.373   2.051
28518WAT      O85795   4.160   6.193   1.929
28518WAT     H185796   4.092   6.148   1.987
28518WAT     H285797   4.171   6.288   1.958
28519WAT      O85798   7.843   7.843   4.996
28519WAT     H185799   7.754   7.860   4.954
28519WAT     H285800   7.869   7.922   5.052
28520WAT      O85801   2.923   4.736   5.034
28520WAT     H185802   2.925   4.809   4.965
28520WAT     H285803   2.887   4.653   4.992
28521WAT      O85804   6.736   1.757   7.673
28521WAT     H185805   6.834   1.775   7.661
28521WAT     H285806   6.690   1.769   7.585
28522WAT      O85807   9.785   6.391   5.240
28522WAT     H185808   9.833   6.457   5.183
28522WAT     H285809   9.832   6.303   5.236
28523WAT      O85810   3.152   2.239   1.620
28523WAT     H185811   3.135   2.141   1.607
28523WAT     H285812   3.235   2.251   1.675
28524WAT      O85813   3.856   0.173   7.014
28524WAT     H185814   3.863   0.221   6.926
28524WAT     H285815   3.796   0.225   7.075
28525WAT      O85816   9.169   4.888   7.240
28525WAT     H185817   9.109   4.808   7.237
28525WAT     H285818   9.159   4.934   7.329
28526WAT      O85819   5.331   6.696   4.598
28526WAT     H185820   5.235   6.693   4.570
28526WAT     H285821   5.346   6.775   4.658
28527WAT      O85822   4.687   5.879   3.083
28527WAT     H185823   4.598   5.834   3.084
28527WAT     H285824   4.706   5.915   2.992
28528WAT      O85825   4.119   7.730   9.580
28528WAT     H185826   4.155   7.720   9.673
28528WAT     H285827   4.019   7.719   9.582
28529WAT      O85828   6.579   6.285   6.681
28529WAT     H185829   6.623   6.231   6.609
28529WAT     H285830   6.583   6.382   6.657
28530WAT      O85831   1.147   8.113   5.737
28530WAT     H185832   1.224   8.176   5.750
28530WAT     H285833   1.068   8.146   5.788
28531WAT      O85834   1.040   9.814   7.633
28531WAT     H185835   1.030   9.720   7.665
28531WAT     H285836   1.133   9.847   7.653
28532WAT      O85837   7.294   6.785   9.403
28532WAT     H185838   7.322   6.705   9.350
28532WAT     H285839   7.359   6.800   9.478
28533WAT      O85840   4.540   6.985   5.345
28533WAT     H185841   4.602   7.009   5.420
28533WAT     H285842   4.591   6.984   5.259
28534WAT      O85843   4.405   2.931   4.354
28534WAT     H185844   4.357   2.924   4.441
28534WAT     H285845   4.343   2.964   4.283
28535WAT      O85846   6.176   6.653   3.865
28535WAT     H185847   6.178   6.566   3.915
28535WAT     H285848   6.115   6.717   3.913
28536WAT      O85849   0.708   6.587   7.101
28536WAT     H185850   0.738   6.558   7.192
28536WAT     H285851   0.780   6.644   7.060
28537WAT      O85852   6.701   5.242   0.978
28537WAT     H185853   6.769   5.258   1.050
28537WAT     H285854   6.749   5.226   0.891
28538WAT      O85855   2.072   3.218   5.768
28538WAT     H185856   2.166   3.185   5.766
28538WAT     H285857   2.029   3.193   5.855
28539WAT      O85858   6.202   9.168   8.393
28539WAT     H185859   6.268   9.203   8.326
28539WAT     H285860   6.220   9.208   8.482
28540WAT      O85861   4.920   9.261   0.124
28540WAT     H185862   4.874   9.202   0.191
28540WAT     H285863   5.005   9.218   0.095
28541WAT      O85864   5.902   7.013   3.244
28541WAT     H185865   5.838   6.986   3.171
28541WAT     H285866   5.952   6.932   3.275
28542WAT      O85867   4.457   6.128   4.096
28542WAT     H185868   4.472   6.142   3.998
28542WAT     H285869   4.372   6.077   4.110
28543WAT      O85870   8.035   5.829   3.246
28543WAT     H185871   8.092   5.747   3.247
28543WAT     H285872   7.989   5.836   3.157
28544WAT      O85873   1.064   6.001   6.626
28544WAT     H185874   1.020   5.980   6.539
28544WAT     H285875   0.995   6.036   6.690
28545WAT      O85876   7.868   4.213   5.641
28545WAT     H185877   7.781   4.258   5.623
28545WAT     H285878   7.853   4.114   5.652
28546WAT      O85879   7.681   1.651   4.943
28546WAT     H185880   7.665   1.713   4.867
28546WAT     H285881   7.617   1.575   4.938
28547WAT      O85882   9.498   8.139   5.878
28547WAT     H185883   9.438   8.190   5.816
28547WAT     H285884   9.593   8.164   5.861
28548WAT      O85885   0.405   3.159   9.422
28548WAT     H185886   0.377   3.242   9.471
28548WAT     H285887   0.329   3.123   9.369
28549WAT      O85888   3.581   9.579   9.549
28549WAT     H185889   3.606   9.633   9.630
28549WAT     H285890   3.657   9.580   9.484
28550WAT      O85891   0.905   1.191   4.533
28550WAT     H185892   0.894   1.114   4.469
28550WAT     H285893   0.989   1.180   4.584
28551WAT      O85894   1.958   5.682   9.043
28551WAT     H185895   2.011   5.760   9.077
28551WAT     H285896   2.012   5.633   8.973
28552WAT      O85897   4.265   4.414   3.491
28552WAT     H185898   4.226   4.369   3.411
28552WAT     H285899   4.193   4.463   3.541
28553WAT      O85900   9.545   3.324   1.311
28553WAT     H185901   9.454   3.323   1.271
28553WAT     H285902   9.540   3.355   1.406
28554WAT      O85903   5.284   9.599   7.953
28554WAT     H185904   5.280   9.509   7.909
28554WAT     H285905   5.325   9.590   8.044
28555WAT      O85906   1.209   6.095   4.257
28555WAT     H185907   1.132   6.156   4.280
28555WAT     H285908   1.293   6.132   4.297
28556WAT      O85909   7.824   7.075   7.375
28556WAT     H185910   7.920   7.080   7.404
28556WAT     H285911   7.787   6.986   7.399
28557WAT      O85912   9.059   3.373   5.862
28557WAT     H185913   9.039   3.371   5.960
28557WAT     H285914   9.147   3.419   5.848
28558WAT      O85915   8.386   6.341   7.831
28558WAT     H185916   8.331   6.412   7.874
28558WAT     H285917   8.452   6.304   7.896
28559WAT      O85918   0.326   0.330   3.166
28559WAT     H185919   0.235   0.344   3.128
28559WAT     H285920   0.375   0.417   3.170
28560WAT      O85921   3.611   8.499   7.448
28560WAT     H185922   3.631   8.470   7.542
28560WAT     H285923   3.694   8.538   7.408
28561WAT      O85924   9.160   0.413   9.541
28561WAT     H185925   9.241   0.411   9.483
28561WAT     H285926   9.099   0.487   9.512
28562WAT      O85927   2.238   5.612   9.699
28562WAT     H185928   2.199   5.624   9.608
28562WAT     H285929   2.334   5.638   9.698
28563WAT      O85930   7.679   3.027   3.662
28563WAT     H185931   7.726   3.097   3.609
28563WAT     H285932   7.619   2.974   3.601
28564WAT      O85933   6.569   0.854   0.269
28564WAT     H185934   6.584   0.918   0.344
28564WAT     H285935   6.478   0.868   0.231
28565WAT      O85936   2.969   0.883   4.980
28565WAT     H185937   3.065   0.898   4.960
28565WAT     H285938   2.917   0.875   4.895
28566WAT      O85939   3.879   1.361   1.215
28566WAT     H185940   3.908   1.456   1.205
28566WAT     H285941   3.814   1.354   1.291
28567WAT      O85942   3.179   2.908   9.028
28567WAT     H185943   3.269   2.881   9.063
28567WAT     H285944   3.158   3.001   9.057
28568WAT      O85945   2.416   4.737   8.055
28568WAT     H185946   2.348   4.773   8.119
28568WAT     H285947   2.371   4.679   7.987
28569WAT      O85948   2.417   6.697   6.839
28569WAT     H185949   2.373   6.624   6.891
28569WAT     H285950   2.405   6.784   6.888
28570WAT      O85951   6.265   1.190   6.335
28570WAT     H185952   6.172   1.228   6.335
28570WAT     H285953   6.263   1.097   6.371
28571WAT      O85954   7.702   5.980   3.128
28571WAT     H185955   7.621   5.929   3.159
28571WAT     H285956   7.766   5.917   3.084
28572WAT      O85957   5.189   2.140   8.957
28572WAT     H185958   5.227   2.222   8.914
28572WAT     H285959   5.100   2.119   8.916
28573WAT      O85960   9.711   1.822   9.522
28573WAT     H185961   9.666   1.853   9.605
28573WAT     H285962   9.753   1.899   9.475
28574WAT      O85963   6.422   8.323   5.483
28574WAT     H185964   6.510   8.362   5.511
28574WAT     H285965   6.407   8.237   5.532
28575WAT      O85966   7.237   4.942   1.858
28575WAT     H185967   7.237   4.855   1.905
28575WAT     H285968   7.229   4.927   1.759
28576WAT      O85969   8.693   2.683   6.027
28576WAT     H185970   8.688   2.637   5.938
28576WAT     H285971   8.645   2.628   6.095
28577WAT      O85972   2.501   4.060   4.781
28577WAT     H185973   2.599   4.053   4.762
28577WAT     H285974   2.459   3.970   4.771
28578WAT      O85975   5.936   1.722   8.322
28578WAT     H185976   5.839   1.734   8.346
28578WAT     H285977   5.958   1.780   8.244
28579WAT      O85978   5.084   4.736   4.753
28579WAT     H185979   5.143   4.689   4.687
28579WAT     H285980   5.136   4.807   4.800
28580WAT      O85981   6.918   3.605   0.817
28580WAT     H185982   6.832   3.564   0.847
28580WAT     H285983   6.898   3.675   0.748
28581WAT      O85984   3.533   0.062   6.375
28581WAT     H185985   3.446   0.103   6.402
28581WAT     H285986   3.521   0.008   6.292
28582WAT      O85987   2.872   5.520   6.536
28582WAT     H185988   2.889   5.615   6.560
28582WAT     H285989   2.792   5.513   6.477
28583WAT      O85990   4.650   9.027   0.760
28583WAT     H185991   4.737   9.015   0.713
28583WAT     H285992   4.576   8.988   0.705
28584WAT      O85993   5.675   8.180   0.205
28584WAT     H185994   5.654   8.117   0.130
28584WAT     H285995   5.703   8.128   0.286
28585WAT      O85996   5.027   5.012   3.786
28585WAT     H185997   5.047   5.014   3.884
28585WAT     H285998   5.086   4.945   3.741
28586WAT      O85999   6.242   7.994   3.225
28586WAT     H186000   6.150   8.009   3.188
28586WAT     H286001   6.242   7.912   3.282
28587WAT      O86002   4.396   0.903   4.704
28587WAT     H186003   4.360   0.838   4.771
28587WAT     H286004   4.327   0.922   4.635
28588WAT      O86005   2.093   5.743   2.806
28588WAT     H186006   2.143   5.822   2.769
28588WAT     H286007   2.004   5.773   2.838
28589WAT      O86008   9.633   2.125   8.663
28589WAT     H186009   9.698   2.174   8.721
28589WAT     H286010   9.546   2.115   8.712
28590WAT      O86011   2.444   5.432   1.836
28590WAT     H186012   2.491   5.456   1.751
28590WAT     H286013   2.442   5.333   1.846
28591WAT      O86014   7.704   4.343   8.414
28591WAT     H186015   7.776   4.306   8.355
28591WAT     H286016   7.669   4.428   8.373
28592WAT      O86017   6.578   3.242   3.115
28592WAT     H186018   6.515   3.170   3.088
28592WAT     H286019   6.531   3.330   3.115
28593WAT      O86020   1.167   9.626   2.658
28593WAT     H186021   1.101   9.595   2.590
28593WAT     H286022   1.121   9.634   2.747
28594WAT      O86023   8.478   7.387   1.117
28594WAT     H186024   8.459   7.293   1.145
28594WAT     H286025   8.498   7.442   1.198
28595WAT      O86026   9.499   7.950   5.227
28595WAT     H186027   9.429   8.007   5.270
28595WAT     H286028   9.563   7.917   5.297
28596WAT      O86029   7.640   8.582   8.250
28596WAT     H186030   7.607   8.671   8.217
28596WAT     H286031   7.654   8.586   8.349
28597WAT      O86032   4.884   1.241   6.818
28597WAT     H186033   4.807   1.280   6.768
28597WAT     H286034   4.912   1.155   6.774
28598WAT      O86035   7.241   1.946   6.174
28598WAT     H186036   7.192   1.935   6.261
28598WAT     H286037   7.248   2.043   6.153
28599WAT      O86038   9.508   5.894   9.597
28599WAT     H186039   9.556   5.918   9.513
28599WAT     H286040   9.460   5.807   9.584
28600WAT      O86041   1.477   5.993   4.783
28600WAT     H186042   1.501   6.090   4.784
28600WAT     H286043   1.446   5.965   4.873
28601WAT      O86044   3.688   9.353   6.919
28601WAT     H186045   3.677   9.393   6.828
28601WAT     H286046   3.600   9.315   6.949
28602WAT      O86047   2.997   4.628   0.772
28602WAT     H186048   3.065   4.638   0.699
28602WAT     H286049   2.905   4.636   0.734
28603WAT      O86050   7.249   4.303   6.295
28603WAT     H186051   7.329   4.362   6.282
28603WAT     H286052   7.181   4.322   6.224
28604WAT      O86053   1.362   6.599   3.539
28604WAT     H186054   1.358   6.698   3.523
28604WAT     H286055   1.430   6.580   3.609
28605WAT      O86056   9.759   1.951   0.264
28605WAT     H186057   9.820   2.009   0.209
28605WAT     H286058   9.673   1.999   0.279
28606WAT      O86059   1.932   0.851   8.763
28606WAT     H186060   2.025   0.886   8.748
28606WAT     H286061   1.909   0.784   8.693
28607WAT      O86062   7.030   4.507   7.225
28607WAT     H186063   7.098   4.474   7.291
28607WAT     H286064   6.982   4.586   7.263
28608WAT      O86065   7.285   2.237   5.794
28608WAT     H186066   7.208   2.182   5.829
28608WAT     H286067   7.361   2.176   5.770
28609WAT      O86068   5.954   9.569   2.271
28609WAT     H186069   6.037   9.532   2.228
28609WAT     H286070   5.978   9.607   2.361
28610WAT      O86071   8.595   7.367   1.588
28610WAT     H186072   8.664   7.320   1.642
28610WAT     H286073   8.536   7.299   1.543
28611WAT      O86074   1.959   3.125   4.517
28611WAT     H186075   1.885   3.117   4.451
28611WAT     H286076   2.038   3.169   4.474
28612WAT      O86077   2.269   1.984   2.629
28612WAT     H186078   2.171   1.972   2.646
28612WAT     H286079   2.287   2.078   2.600
28613WAT      O86080   5.799   0.793   6.369
28613WAT     H186081   5.775   0.706   6.327
28613WAT     H286082   5.892   0.818   6.344
28614WAT      O86083   5.578   9.037   4.120
28614WAT     H186084   5.591   9.121   4.067
28614WAT     H286085   5.631   9.043   4.205
28615WAT      O86086   4.096   0.644   2.404
28615WAT     H186087   4.068   0.739   2.414
28615WAT     H286088   4.189   0.640   2.366
28616WAT      O86089   9.190   5.085   8.261
28616WAT     H186090   9.158   5.127   8.176
28616WAT     H286091   9.256   5.146   8.305
28617WAT      O86092   7.567   2.360   0.262
28617WAT     H186093   7.540   2.384   0.355
28617WAT     H286094   7.564   2.260   0.252
28618WAT      O86095   6.669   5.447   4.439
28618WAT     H186096   6.730   5.368   4.447
28618WAT     H286097   6.621   5.443   4.351
28619WAT      O86098   7.791   4.270   4.663
28619WAT     H186099   7.804   4.175   4.635
28619WAT     H286100   7.757   4.272   4.757
28620WAT      O86101   9.186   5.919   2.463
28620WAT     H186102   9.237   5.907   2.378
28620WAT     H286103   9.179   6.016   2.485
28621WAT      O86104   5.856   3.592   6.011
28621WAT     H186105   5.797   3.575   6.090
28621WAT     H286106   5.948   3.557   6.030
28622WAT      O86107   3.301   4.053   2.377
28622WAT     H186108   3.347   4.142   2.387
28622WAT     H286109   3.323   3.995   2.456
28623WAT      O86110   8.106   9.096   8.142
28623WAT     H186111   8.019   9.055   8.168
28623WAT     H286112   8.131   9.167   8.208
28624WAT      O86113   0.980   8.418   1.964
28624WAT     H186114   1.078   8.434   1.959
28624WAT     H286115   0.960   8.322   1.946
28625WAT      O86116   7.270   6.902   2.858
28625WAT     H186117   7.285   6.803   2.860
28625WAT     H286118   7.258   6.933   2.764
28626WAT      O86119   6.669   4.670   2.425
28626WAT     H186120   6.724   4.752   2.442
28626WAT     H286121   6.712   4.616   2.352
28627WAT      O86122   2.587   2.899   6.852
28627WAT     H186123   2.565   2.991   6.882
28627WAT     H286124   2.514   2.836   6.878
28628WAT      O86125   7.915   0.309   5.464
28628WAT     H186126   7.838   0.374   5.466
28628WAT     H286127   7.913   0.254   5.548
28629WAT      O86128   2.710   6.917   9.000
28629WAT     H186129   2.695   6.889   9.095
28629WAT     H286130   2.680   7.011   8.989
28630WAT      O86131   1.165   6.452   3.382
28630WAT     H186132   1.246   6.486   3.430
28630WAT     H286133   1.154   6.354   3.400
28631WAT      O86134   9.412   4.632   1.630
28631WAT     H186135   9.416   4.619   1.729
28631WAT     H286136   9.318   4.654   1.603
28632WAT      O86137   3.982   5.312   6.894
28632WAT     H186138   4.003   5.225   6.938
28632WAT     H286139   4.040   5.384   6.933
28633WAT      O86140   3.664   5.158   5.145
28633WAT     H186141   3.570   5.179   5.171
28633WAT     H286142   3.717   5.135   5.226
28634WAT      O86143   5.573   3.622   5.840
28634WAT     H186144   5.513   3.546   5.818
28634WAT     H286145   5.590   3.625   5.938
28635WAT      O86146   2.384   7.291   8.810
28635WAT     H186147   2.337   7.335   8.886
28635WAT     H286148   2.321   7.280   8.733
28636WAT      O86149   8.053   9.763   6.876
28636WAT     H186150   8.107   9.813   6.945
28636WAT     H286151   8.113   9.736   6.801
28637WAT      O86152   5.007   8.191   3.200
28637WAT     H186153   5.017   8.288   3.225
28637WAT     H286154   5.045   8.176   3.109
28638WAT      O86155   3.406   4.617   9.472
28638WAT     H186156   3.385   4.544   9.537
28638WAT     H286157   3.471   4.583   9.404
28639WAT      O86158   5.074   8.385   6.100
28639WAT     H186159   5.115   8.476   6.102
28639WAT     H286160   5.061   8.352   6.194
28640WAT      O86161   6.449   8.150   6.317
28640WAT     H186162   6.360   8.194   6.327
28640WAT     H286163   6.437   8.053   6.297
28641WAT      O86164   7.516   0.049   6.061
28641WAT     H186165   7.603   0.002   6.048
28641WAT     H286166   7.507   0.075   6.158
28642WAT      O86167   7.951   4.955   4.701
28642WAT     H186168   7.954   4.888   4.627
28642WAT     H286169   7.924   5.044   4.663
28643WAT      O86170   0.502   6.409   4.522
28643WAT     H186171   0.584   6.445   4.478
28643WAT     H286172   0.464   6.479   4.583
28644WAT      O86173   0.568   2.294   2.822
28644WAT     H186174   0.493   2.352   2.790
28644WAT     H286175   0.586   2.314   2.919
28645WAT      O86176   9.507   2.905   8.950
28645WAT     H186177   9.470   2.812   8.951
28645WAT     H286178   9.590   2.909   9.005
28646WAT      O86179   8.372   8.944   6.545
28646WAT     H186180   8.329   8.866   6.591
28646WAT     H286181   8.302   8.998   6.499
28647WAT      O86182   8.790   7.796   4.923
28647WAT     H186183   8.757   7.828   4.835
28647WAT     H286184   8.727   7.825   4.995
28648WAT      O86185   6.539   3.747   1.442
28648WAT     H186186   6.472   3.776   1.511
28648WAT     H286187   6.571   3.655   1.464
28649WAT      O86188   3.635   3.147   8.546
28649WAT     H186189   3.549   3.192   8.571
28649WAT     H286190   3.681   3.116   8.629
28650WAT      O86191   9.760   8.383   9.123
28650WAT     H186192   9.771   8.431   9.036
28650WAT     H286193   9.723   8.292   9.107
28651WAT      O86194   8.979   1.637   4.879
28651WAT     H186195   9.060   1.677   4.921
28651WAT     H286196   8.913   1.612   4.950
28652WAT      O86197   9.704   0.243   3.541
28652WAT     H186198   9.695   0.239   3.641
28652WAT     H286199   9.786   0.294   3.517
28653WAT      O86200   5.596   7.179   2.131
28653WAT     H186201   5.628   7.245   2.063
28653WAT     H286202   5.545   7.106   2.085
28654WAT      O86203   4.006   4.828   2.585
28654WAT     H186204   4.029   4.885   2.663
28654WAT     H286205   4.043   4.736   2.599
28655WAT      O86206   7.241   6.721   7.584
28655WAT     H186207   7.159   6.689   7.537
28655WAT     H286208   7.221   6.808   7.629
28656WAT      O86209   4.610   1.912   6.773
28656WAT     H186210   4.641   1.999   6.734
28656WAT     H286211   4.677   1.880   6.840
28657WAT      O86212   0.435   8.252   2.359
28657WAT     H186213   0.392   8.339   2.383
28657WAT     H286214   0.377   8.202   2.296
28658WAT      O86215   7.458   2.269   2.408
28658WAT     H186216   7.488   2.181   2.445
28658WAT     H286217   7.451   2.263   2.308
28659WAT      O86218   7.500   9.778   9.102
28659WAT     H186219   7.520   9.690   9.058
28659WAT     H286220   7.402   9.798   9.093
28660WAT      O86221   8.421   4.745   1.470
28660WAT     H186222   8.422   4.839   1.438
28660WAT     H286223   8.387   4.742   1.564
28661WAT      O86224   7.217   6.013   8.976
28661WAT     H186225   7.258   6.055   9.057
28661WAT     H286226   7.290   5.978   8.917
28662WAT      O86227   1.428   5.709   8.163
28662WAT     H186228   1.339   5.738   8.197
28662WAT     H286229   1.487   5.685   8.240
28663WAT      O86230   1.201   4.235   2.136
28663WAT     H186231   1.207   4.244   2.236
28663WAT     H286232   1.243   4.314   2.093
28664WAT      O86233   8.715   7.806   1.872
28664WAT     H186234   8.630   7.784   1.824
28664WAT     H286235   8.695   7.826   1.968
28665WAT      O86236   4.137   8.059   7.551
28665WAT     H186237   4.074   7.990   7.586
28665WAT     H286238   4.089   8.146   7.541
28666WAT      O86239   0.647   6.128   1.843
28666WAT     H186240   0.571   6.148   1.781
28666WAT     H286241   0.732   6.127   1.790
28667WAT      O86242   4.850   5.296   6.019
28667WAT     H186243   4.802   5.348   5.949
28667WAT     H286244   4.850   5.348   6.105
28668WAT      O86245   0.024   4.515   3.719
28668WAT     H186246   0.025   4.573   3.638
28668WAT     H286247   0.093   4.443   3.709
28669WAT      O86248   1.037   0.898   8.737
28669WAT     H186249   0.978   0.821   8.712
28669WAT     H286250   1.132   0.867   8.739
28670WAT      O86251   1.718   5.322   8.265
28670WAT     H186252   1.688   5.282   8.351
28670WAT     H286253   1.677   5.272   8.188
28671WAT      O86254   8.793   9.583   4.280
28671WAT     H186255   8.838   9.555   4.195
28671WAT     H286256   8.749   9.503   4.322
28672WAT      O86257   4.359   4.334   8.059
28672WAT     H186258   4.359   4.250   8.004
28672WAT     H286259   4.285   4.394   8.027
28673WAT      O86260   2.694   7.272   3.299
28673WAT     H186261   2.607   7.304   3.337
28673WAT     H286262   2.768   7.333   3.327
28674WAT      O86263   1.012   0.548   7.972
28674WAT     H186264   1.086   0.515   7.913
28674WAT     H286265   0.992   0.480   8.042
28675WAT      O86266   7.970   4.901   8.301
28675WAT     H186267   7.930   4.838   8.367
28675WAT     H286268   8.068   4.882   8.292
28676WAT      O86269   3.510   0.302   9.770
28676WAT     H186270   3.458   0.363   9.829
28676WAT     H286271   3.449   0.232   9.732
28677WAT      O86272   0.722   8.941   9.398
28677WAT     H186273   0.768   9.028   9.383
28677WAT     H286274   0.789   8.867   9.399
28678WAT      O86275   9.712   4.278   6.192
28678WAT     H186276   9.666   4.230   6.266
28678WAT     H286277   9.795   4.322   6.228
28679WAT      O86278   5.994   7.365   9.583
28679WAT     H186279   5.916   7.335   9.528
28679WAT     H286280   6.073   7.377   9.523
28680WAT      O86281   0.484   6.388   6.108
28680WAT     H186282   0.522   6.414   6.019
28680WAT     H286283   0.556   6.350   6.165
28681WAT      O86284   5.754   5.155   9.573
28681WAT     H186285   5.772   5.232   9.635
28681WAT     H286286   5.658   5.157   9.544
28682WAT      O86287   6.376   0.777   2.068
28682WAT     H186288   6.321   0.821   2.140
28682WAT     H286289   6.329   0.695   2.036
28683WAT      O86290   0.676   7.909   4.121
28683WAT     H186291   0.634   7.997   4.142
28683WAT     H286292   0.690   7.902   4.022
28684WAT      O86293   3.695   5.396   9.093
28684WAT     H186294   3.631   5.354   9.157
28684WAT     H286295   3.734   5.326   9.033
28685WAT      O86296   1.520   7.533   2.257
28685WAT     H186297   1.599   7.512   2.314
28685WAT     H286298   1.498   7.452   2.201
28686WAT      O86299   7.522   8.874   1.790
28686WAT     H186300   7.476   8.922   1.865
28686WAT     H286301   7.548   8.940   1.719
28687WAT      O86302   4.022   2.264   0.303
28687WAT     H186303   4.013   2.176   0.350
28687WAT     H286304   3.969   2.334   0.352
28688WAT      O86305   2.214   8.744   5.582
28688WAT     H186306   2.162   8.730   5.498
28688WAT     H286307   2.299   8.793   5.561
28689WAT      O86308   7.745   8.490   7.139
28689WAT     H186309   7.711   8.399   7.118
28689WAT     H286310   7.777   8.535   7.056
28690WAT      O86311   7.014   9.417   8.850
28690WAT     H186312   6.936   9.429   8.912
28690WAT     H286313   7.096   9.397   8.903
28691WAT      O86314   5.365   7.410   3.230
28691WAT     H186315   5.413   7.396   3.317
28691WAT     H286316   5.294   7.480   3.243
28692WAT      O86317   6.820   0.207   3.379
28692WAT     H186318   6.879   0.163   3.447
28692WAT     H286319   6.791   0.140   3.311
28693WAT      O86320   1.859   8.459   1.892
28693WAT     H186321   1.929   8.453   1.822
28693WAT     H286322   1.768   8.456   1.849
28694WAT      O86323   6.906   3.889   4.470
28694WAT     H186324   6.951   3.826   4.534
28694WAT     H286325   6.837   3.942   4.518
28695WAT      O86326   8.204   4.024   9.443
28695WAT     H186327   8.291   3.993   9.404
28695WAT     H286328   8.129   3.993   9.384
28696WAT      O86329   2.217   2.126   1.130
28696WAT     H186330   2.194   2.029   1.118
28696WAT     H286331   2.142   2.182   1.097
28697WAT      O86332   1.607   6.812   6.814
28697WAT     H186333   1.622   6.895   6.869
28697WAT     H286334   1.686   6.752   6.823
28698WAT      O86335   5.303   4.921   6.428
28698WAT     H186336   5.359   4.936   6.509
28698WAT     H286337   5.356   4.869   6.360
28699WAT      O86338   5.641   7.469   9.875
28699WAT     H186339   5.612   7.401   9.807
28699WAT     H286340   5.727   7.511   9.846
28700WAT      O86341   9.131   9.510   9.115
28700WAT     H186342   9.187   9.587   9.143
28700WAT     H286343   9.054   9.501   9.179
28701WAT      O86344   6.327   1.526   4.657
28701WAT     H186345   6.284   1.448   4.701
28701WAT     H286346   6.287   1.541   4.567
28702WAT      O86347   7.599   7.639   8.040
28702WAT     H186348   7.553   7.555   8.070
28702WAT     H286349   7.695   7.619   8.021
28703WAT      O86350   9.413   4.475   8.324
28703WAT     H186351   9.461   4.456   8.410
28703WAT     H286352   9.465   4.438   8.248
28704WAT      O86353   0.826   2.083   6.784
28704WAT     H186354   0.799   1.990   6.763
28704WAT     H286355   0.925   2.093   6.769
28705WAT      O86356   6.427   4.085   5.443
28705WAT     H186357   6.422   3.993   5.481
28705WAT     H286358   6.351   4.140   5.478
28706WAT      O86359   3.373   8.318   6.239
28706WAT     H186360   3.282   8.276   6.233
28706WAT     H286361   3.435   8.256   6.288
28707WAT      O86362   8.804   9.122   4.113
28707WAT     H186363   8.865   9.173   4.174
28707WAT     H286364   8.780   9.179   4.035
28708WAT      O86365   9.010   2.607   9.295
28708WAT     H186366   9.019   2.694   9.248
28708WAT     H286367   9.088   2.548   9.273
28709WAT      O86368   7.632   5.844   1.403
28709WAT     H186369   7.667   5.881   1.488
28709WAT     H286370   7.708   5.809   1.347
28710WAT      O86371   0.995   0.924   0.378
28710WAT     H186372   0.976   0.948   0.473
28710WAT     H286373   1.026   1.005   0.328
28711WAT      O86374   7.437   7.319   0.755
28711WAT     H186375   7.349   7.313   0.707
28711WAT     H286376   7.422   7.331   0.852
28712WAT      O86377   3.230   1.725   0.107
28712WAT     H186378   3.173   1.643   0.110
28712WAT     H286379   3.223   1.774   0.194
28713WAT      O86380   5.037   5.807   5.430
28713WAT     H186381   4.987   5.886   5.394
28713WAT     H286382   5.133   5.814   5.404
28714WAT      O86383   1.771   5.861   6.534
28714WAT     H186384   1.864   5.850   6.501
28714WAT     H286385   1.738   5.775   6.574
28715WAT      O86386   1.891   5.904   2.945
28715WAT     H186387   1.955   5.981   2.954
28715WAT     H286388   1.802   5.931   2.982
28716WAT      O86389   1.994   6.644   8.293
28716WAT     H186390   2.080   6.696   8.302
28716WAT     H286391   2.009   6.565   8.234
28717WAT      O86392   3.313   5.974   9.372
28717WAT     H186393   3.336   5.917   9.451
28717WAT     H286394   3.318   5.918   9.289
28718WAT      O86395   9.016   1.163   1.706
28718WAT     H186396   8.944   1.094   1.697
28718WAT     H286397   9.094   1.124   1.753
28719WAT      O86398   0.409   1.724   4.094
28719WAT     H186399   0.333   1.788   4.095
28719WAT     H286400   0.375   1.631   4.077
28720WAT      O86401   8.454   5.348   6.863
28720WAT     H186402   8.466   5.308   6.954
28720WAT     H286403   8.541   5.385   6.831
28721WAT      O86404   5.072   0.515   6.848
28721WAT     H186405   5.027   0.603   6.830
28721WAT     H286406   5.123   0.487   6.766
28722WAT      O86407   8.240   6.132   9.238
28722WAT     H186408   8.339   6.124   9.254
28722WAT     H286409   8.199   6.189   9.309
28723WAT      O86410   1.092   9.202   8.530
28723WAT     H186411   1.130   9.160   8.447
28723WAT     H286412   1.040   9.284   8.505
28724WAT      O86413   0.093   6.287   1.075
28724WAT     H186414   0.088   6.250   0.982
28724WAT     H286415   0.028   6.362   1.084
28725WAT      O86416   1.305   4.309   9.813
28725WAT     H186417   1.370   4.242   9.779
28725WAT     H286418   1.235   4.263   9.868
28726WAT      O86419   1.563   5.335   2.073
28726WAT     H186420   1.526   5.418   2.116
28726WAT     H286421   1.662   5.332   2.085
28727WAT      O86422   5.460   7.979   6.453
28727WAT     H186423   5.506   8.061   6.419
28727WAT     H286424   5.424   7.926   6.376
28728WAT      O86425   8.188   1.109   5.052
28728WAT     H186426   8.194   1.014   5.081
28728WAT     H286427   8.159   1.114   4.957
28729WAT      O86428   9.460   0.794   2.513
28729WAT     H186429   9.502   0.882   2.490
28729WAT     H286430   9.487   0.726   2.445
28730WAT      O86431   3.345   1.199   8.643
28730WAT     H186432   3.389   1.121   8.598
28730WAT     H286433   3.406   1.278   8.641
28731WAT      O86434   9.115   4.625   1.628
28731WAT     H186435   9.040   4.590   1.684
28731WAT     H286436   9.083   4.643   1.535
28732WAT      O86437   5.600   7.089   8.463
28732WAT     H186438   5.552   7.113   8.379
28732WAT     H286439   5.694   7.121   8.459
28733WAT      O86440   9.331   4.806   2.849
28733WAT     H186441   9.335   4.755   2.935
28733WAT     H286442   9.401   4.771   2.786
28734WAT      O86443   0.770   2.143   0.069
28734WAT     H186444   0.688   2.123   0.016
28734WAT     H286445   0.782   2.242   0.076
28735WAT      O86446   7.319   6.461   8.484
28735WAT     H186447   7.243   6.417   8.436
28735WAT     H286448   7.327   6.556   8.452
28736WAT      O86449   4.814   4.382   9.240
28736WAT     H186450   4.785   4.422   9.326
28736WAT     H286451   4.749   4.312   9.211
28737WAT      O86452   2.828   4.538   6.613
28737WAT     H186453   2.868   4.623   6.646
28737WAT     H286454   2.862   4.461   6.668
28738WAT      O86455   0.916   4.054   1.978
28738WAT     H186456   1.009   4.065   1.943
28738WAT     H286457   0.854   4.116   1.929
28739WAT      O86458   0.524   9.450   3.546
28739WAT     H186459   0.490   9.359   3.523
28739WAT     H286460   0.448   9.514   3.547
28740WAT      O86461   5.974   2.178   0.914
28740WAT     H186462   5.997   2.138   0.826
28740WAT     H286463   5.931   2.267   0.901
28741WAT      O86464   2.293   1.134   8.964
28741WAT     H186465   2.307   1.099   8.871
28741WAT     H286466   2.358   1.208   8.981
28742WAT      O86467   6.732   1.946   5.654
28742WAT     H186468   6.652   1.976   5.602
28742WAT     H286469   6.717   1.854   5.689
28743WAT      O86470   5.630   0.398   0.032
28743WAT     H186471   5.657   0.388  -0.064
28743WAT     H286472   5.611   0.307   0.070
28744WAT      O86473   7.574   7.350   5.196
28744WAT     H186474   7.646   7.318   5.135
28744WAT     H286475   7.525   7.425   5.152
28745WAT      O86476   7.354   4.308   0.011
28745WAT     H186477   7.378   4.223   0.058
28745WAT     H286478   7.263   4.298  -0.031
28746WAT      O86479   8.861   2.323   8.663
28746WAT     H186480   8.823   2.342   8.573
28746WAT     H286481   8.787   2.324   8.731
28747WAT      O86482   2.536   1.506   8.657
28747WAT     H186483   2.609   1.481   8.721
28747WAT     H286484   2.525   1.433   8.589
28748WAT      O86485   2.705   1.709   0.517
28748WAT     H186486   2.776   1.744   0.578
28748WAT     H286487   2.747   1.680   0.431
28749WAT      O86488   3.279   9.266   1.113
28749WAT     H186489   3.218   9.211   1.170
28749WAT     H286490   3.309   9.347   1.165
28750WAT      O86491   1.527   1.377   7.927
28750WAT     H186492   1.467   1.297   7.936
28750WAT     H286493   1.490   1.439   7.859
28751WAT      O86494   9.513   9.023   2.502
28751WAT     H186495   9.439   8.982   2.448
28751WAT     H286496   9.522   8.974   2.589
28752WAT      O86497   2.791   6.558   4.173
28752WAT     H186498   2.706   6.517   4.208
28752WAT     H286499   2.791   6.552   4.073
28753WAT      O86500   5.384   1.910   6.447
28753WAT     H186501   5.298   1.874   6.485
28753WAT     H286502   5.423   1.976   6.511
28754WAT      O86503   2.142   2.830   2.820
28754WAT     H186504   2.108   2.830   2.914
28754WAT     H286505   2.241   2.823   2.820
28755WAT      O86506   0.184   3.473   7.815
28755WAT     H186507   0.203   3.470   7.914
28755WAT     H286508   0.176   3.380   7.780
28756WAT      O86509   9.429   9.026   9.378
28756WAT     H186510   9.435   9.064   9.470
28756WAT     H286511   9.386   9.092   9.317
28757WAT      O86512   5.562   4.262   3.346
28757WAT     H186513   5.519   4.187   3.296
28757WAT     H286514   5.652   4.232   3.379
28758WAT      O86515   9.430   6.457   8.238
28758WAT     H186516   9.458   6.548   8.269
28758WAT     H286517   9.504   6.415   8.187
28759WAT      O86518   2.964   3.060   8.109
28759WAT     H186519   2.866   3.044   8.097
28759WAT     H286520   3.015   2.999   8.048
28760WAT      O86521   0.367   5.839   9.030
28760WAT     H186522   0.467   5.842   9.035
28760WAT     H286523   0.335   5.904   8.962
28761WAT      O86524   5.799   3.066   3.314
28761WAT     H186525   5.807   3.162   3.340
28761WAT     H286526   5.717   3.027   3.356
28762WAT      O86527   9.131   3.549   7.094
28762WAT     H186528   9.143   3.646   7.113
28762WAT     H286529   9.148   3.496   7.177
28763WAT      O86530   7.840   9.091   6.129
28763WAT     H186531   7.891   9.005   6.133
28763WAT     H286532   7.752   9.075   6.085
28764WAT      O86533  -0.001   2.631   0.481
28764WAT     H186534   0.016   2.593   0.390
28764WAT     H286535   0.007   2.730   0.478
28765WAT      O86536   2.927   7.586   9.159
28765WAT     H186537   2.988   7.555   9.086
28765WAT     H286538   2.980   7.608   9.241
28766WAT      O86539   3.446   8.677   3.685
28766WAT     H186540   3.511   8.604   3.668
28766WAT     H286541   3.354   8.648   3.657
28767WAT      O86542   8.504   7.513   4.019
28767WAT     H186543   8.593   7.545   4.051
28767WAT     H286544   8.453   7.473   4.094
28768WAT      O86545   3.160   9.018   7.625
28768WAT     H186546   3.234   8.971   7.675
28768WAT     H286547   3.200   9.085   7.563
28769WAT      O86548   9.005   5.030   4.400
28769WAT     H186549   8.947   4.979   4.337
28769WAT     H286550   9.101   5.017   4.375
28770WAT      O86551   9.236   5.607   2.857
28770WAT     H186552   9.225   5.644   2.765
28770WAT     H286553   9.323   5.638   2.896
28771WAT      O86554   2.332   0.101   8.377
28771WAT     H186555   2.340   0.140   8.469
28771WAT     H286556   2.373   0.162   8.310
28772WAT      O86557   6.880   8.115   4.277
28772WAT     H186558   6.886   8.174   4.357
28772WAT     H286559   6.787   8.079   4.269
28773WAT      O86560   9.595   6.316   7.581
28773WAT     H186561   9.690   6.290   7.565
28773WAT     H286562   9.586   6.415   7.577
28774WAT      O86563   6.268   5.345   4.306
28774WAT     H186564   6.290   5.373   4.400
28774WAT     H286565   6.352   5.331   4.255
28775WAT      O86566   3.991   6.274   0.413
28775WAT     H186567   4.079   6.271   0.365
28775WAT     H286568   3.934   6.197   0.382
28776WAT      O86569   1.923   5.558   6.291
28776WAT     H186570   2.018   5.559   6.322
28776WAT     H286571   1.905   5.640   6.237
28777WAT      O86572   2.969   7.750   8.889
28777WAT     H186573   2.882   7.750   8.940
28777WAT     H286574   3.024   7.672   8.919
28778WAT      O86575   2.510   0.867   2.685
28778WAT     H186576   2.474   0.945   2.634
28778WAT     H286577   2.580   0.899   2.749
28779WAT      O86578   2.339   2.282   9.288
28779WAT     H186579   2.328   2.243   9.197
28779WAT     H286580   2.424   2.249   9.328
28780WAT      O86581   2.004   8.144   2.993
28780WAT     H186582   2.067   8.197   2.935
28780WAT     H286583   1.964   8.204   3.062
28781WAT      O86584   3.113   5.979   6.750
28781WAT     H186585   3.099   5.880   6.752
28781WAT     H286586   3.067   6.017   6.670
28782WAT      O86587   8.939   6.712   5.690
28782WAT     H186588   9.031   6.736   5.721
28782WAT     H286589   8.871   6.758   5.748
28783WAT      O86590   7.376   8.670   5.421
28783WAT     H186591   7.440   8.678   5.344
28783WAT     H286592   7.416   8.611   5.491
28784WAT      O86593   4.170   7.775   1.764
28784WAT     H186594   4.097   7.795   1.699
28784WAT     H286595   4.183   7.853   1.825
28785WAT      O86596   8.997   3.873   6.562
28785WAT     H186597   9.092   3.871   6.531
28785WAT     H286598   8.946   3.798   6.518
28786WAT      O86599   4.854   2.831   7.166
28786WAT     H186600   4.866   2.775   7.248
28786WAT     H286601   4.934   2.820   7.107
28787WAT      O86602   4.509   6.084   2.747
28787WAT     H186603   4.506   6.033   2.661
28787WAT     H286604   4.600   6.124   2.759
28788WAT      O86605   7.355   2.432   6.983
28788WAT     H186606   7.273   2.412   6.929
28788WAT     H286607   7.362   2.365   7.057
28789WAT      O86608   3.663   6.170   2.890
28789WAT     H186609   3.592   6.239   2.903
28789WAT     H286610   3.632   6.082   2.926
28790WAT      O86611   6.808   2.979   8.482
28790WAT     H186612   6.889   3.033   8.463
28790WAT     H286613   6.804   2.957   8.580
28791WAT      O86614   1.065   5.927   9.237
28791WAT     H186615   0.990   5.979   9.196
28791WAT     H286616   1.147   5.984   9.243
28792WAT      O86617   2.307   3.401   5.731
28792WAT     H186618   2.336   3.311   5.699
28792WAT     H286619   2.244   3.442   5.665
28793WAT      O86620   3.181   1.581   1.619
28793WAT     H186621   3.118   1.508   1.647
28793WAT     H286622   3.208   1.567   1.524
28794WAT      O86623   1.430   3.692   0.847
28794WAT     H186624   1.436   3.711   0.749
28794WAT     H286625   1.390   3.771   0.894
28795WAT      O86626   0.378   2.898   6.736
28795WAT     H186627   0.465   2.942   6.712
28795WAT     H286628   0.349   2.838   6.662
28796WAT      O86629   9.105   1.105   3.151
28796WAT     H186630   9.066   1.016   3.126
28796WAT     H286631   9.054   1.143   3.228
28797WAT      O86632   2.497   4.064   8.295
28797WAT     H186633   2.421   4.016   8.251
28797WAT     H286634   2.567   4.084   8.227
28798WAT      O86635   9.573   7.837   7.847
28798WAT     H186636   9.565   7.937   7.844
28798WAT     H286637   9.535   7.798   7.763
28799WAT      O86638   5.218   4.036   0.013
28799WAT     H186639   5.150   3.972  -0.023
28799WAT     H286640   5.245   4.100  -0.060
28800WAT      O86641   1.400   4.606   8.570
28800WAT     H186642   1.319   4.564   8.612
28800WAT     H286643   1.427   4.552   8.490
28801WAT      O86644   2.633   8.451   6.546
28801WAT     H186645   2.552   8.480   6.495
28801WAT     H286646   2.619   8.468   6.644
28802WAT      O86647   4.705   9.632   2.326
28802WAT     H186648   4.649   9.578   2.388
28802WAT     H286649   4.790   9.658   2.372
28803WAT      O86650   6.460   0.586   2.566
28803WAT     H186651   6.556   0.593   2.536
28803WAT     H286652   6.427   0.677   2.592
28804WAT      O86653   8.760   2.971   6.391
28804WAT     H186654   8.764   2.948   6.294
28804WAT     H286655   8.680   3.028   6.408
28805WAT      O86656   3.903   2.956   5.103
28805WAT     H186657   3.986   2.919   5.147
28805WAT     H286658   3.833   2.971   5.172
28806WAT      O86659   3.999   7.133   0.263
28806WAT     H186660   4.020   7.061   0.198
28806WAT     H286661   3.902   7.156   0.259
28807WAT      O86662   0.081   0.130   1.739
28807WAT     H186663  -0.012   0.094   1.731
28807WAT     H286664   0.080   0.213   1.796
28808WAT      O86665   4.108   1.901   1.733
28808WAT     H186666   4.071   1.911   1.826
28808WAT     H286667   4.078   1.978   1.677
28809WAT      O86668   9.277   9.324   4.491
28809WAT     H186669   9.200   9.337   4.555
28809WAT     H286670   9.342   9.399   4.502
28810WAT      O86671   7.202   5.763   1.347
28810WAT     H186672   7.260   5.682   1.359
28810WAT     H286673   7.203   5.818   1.430
28811WAT      O86674   5.234   8.103   0.689
28811WAT     H186675   5.148   8.086   0.738
28811WAT     H286676   5.215   8.127   0.594
28812WAT      O86677   1.642   3.560   2.940
28812WAT     H186678   1.729   3.592   2.978
28812WAT     H286679   1.605   3.629   2.878
28813WAT      O86680   3.369   8.004   2.463
28813WAT     H186681   3.393   8.101   2.459
28813WAT     H286682   3.438   7.955   2.516
28814WAT      O86683   8.393   2.711   5.040
28814WAT     H186684   8.446   2.646   4.987
28814WAT     H286685   8.419   2.705   5.137
28815WAT      O86686   9.301   6.219   3.202
28815WAT     H186687   9.340   6.257   3.286
28815WAT     H286688   9.241   6.287   3.160
28816WAT      O86689   7.217   5.392   3.000
28816WAT     H186690   7.150   5.427   2.935
28816WAT     H286691   7.170   5.364   3.084
28817WAT      O86692   6.495   7.225   3.898
28817WAT     H186693   6.524   7.176   3.980
28817WAT     H286694   6.418   7.177   3.856
28818WAT      O86695   0.536   4.291   5.924
28818WAT     H186696   0.545   4.212   5.985
28818WAT     H286697   0.584   4.272   5.838
28819WAT      O86698   2.121   9.818   8.685
28819WAT     H186699   2.105   9.836   8.588
28819WAT     H286700   2.072   9.734   8.712
28820WAT      O86701   5.755   1.036   7.185
28820WAT     H186702   5.655   1.036   7.187
28820WAT     H286703   5.786   0.996   7.099
28821WAT      O86704   1.369   2.989   8.934
28821WAT     H186705   1.432   2.978   8.857
28821WAT     H286706   1.297   3.054   8.909
28822WAT      O86707   7.563   8.770   0.349
28822WAT     H186708   7.596   8.773   0.444
28822WAT     H286709   7.606   8.694   0.301
28823WAT      O86710   7.527   3.345   4.795
28823WAT     H186711   7.515   3.269   4.732
28823WAT     H286712   7.438   3.386   4.817
28824WAT      O86713   1.939   7.362   2.179
28824WAT     H186714   2.012   7.305   2.215
28824WAT     H286715   1.976   7.425   2.111
28825WAT      O86716   2.983   1.472   6.086
28825WAT     H186717   3.017   1.500   6.176
28825WAT     H286718   2.891   1.508   6.072
28826WAT      O86719   3.985   2.308   3.385
28826WAT     H186720   4.080   2.332   3.408
28826WAT     H286721   3.928   2.322   3.466
28827WAT      O86722   2.872   0.870   9.321
28827WAT     H186723   2.783   0.826   9.327
28827WAT     H286724   2.883   0.933   9.398
28828WAT      O86725   1.977   7.544   3.591
28828WAT     H186726   1.938   7.577   3.505
28828WAT     H286727   2.038   7.468   3.573
28829WAT      O86728   9.347   3.938   1.865
28829WAT     H186729   9.402   3.866   1.908
28829WAT     H286730   9.376   3.951   1.771
28830WAT      O86731   3.590   5.692   7.885
28830WAT     H186732   3.568   5.768   7.824
28830WAT     H286733   3.555   5.607   7.847
28831WAT      O86734   1.423   0.505   7.370
28831WAT     H186735   1.430   0.544   7.461
28831WAT     H286736   1.353   0.553   7.318
28832WAT      O86737   7.219   8.567   8.973
28832WAT     H186738   7.167   8.571   9.059
28832WAT     H286739   7.179   8.496   8.915
28833WAT      O86740   7.596   3.259   9.875
28833WAT     H186741   7.537   3.193   9.922
28833WAT     H286742   7.651   3.308   9.942
28834WAT      O86743   9.828   2.991   2.920
28834WAT     H186744   9.844   3.018   2.825
28834WAT     H286745   9.906   3.018   2.976
28835WAT      O86746   3.982   1.329   2.579
28835WAT     H186747   4.057   1.269   2.609
28835WAT     H286748   3.935   1.286   2.502
28836WAT      O86749   6.429   0.648   7.588
28836WAT     H186750   6.438   0.609   7.496
28836WAT     H286751   6.348   0.612   7.632
28837WAT      O86752   1.843   5.486   6.022
28837WAT     H186753   1.911   5.426   5.981
28837WAT     H286754   1.851   5.484   6.122
28838WAT      O86755   9.532   3.596   2.332
28838WAT     H186756   9.614   3.547   2.302
28838WAT     H286757   9.456   3.532   2.338
28839WAT      O86758   7.011   8.399   9.204
28839WAT     H186759   7.055   8.425   9.290
28839WAT     H286760   6.955   8.475   9.171
28840WAT      O86761   9.632   6.480   8.695
28840WAT     H186762   9.634   6.401   8.757
28840WAT     H286763   9.718   6.530   8.703
28841WAT      O86764   3.470   0.764   1.530
28841WAT     H186765   3.373   0.789   1.535
28841WAT     H286766   3.488   0.690   1.595
28842WAT      O86767   2.056   0.503   0.360
28842WAT     H186768   1.994   0.429   0.388
28842WAT     H286769   2.140   0.463   0.324
28843WAT      O86770   5.213   3.159   2.098
28843WAT     H186771   5.168   3.084   2.048
28843WAT     H286772   5.160   3.243   2.086
28844WAT      O86773   8.348   1.456   1.894
28844WAT     H186774   8.383   1.407   1.974
28844WAT     H286775   8.344   1.554   1.915
28845WAT      O86776   4.209   5.863   5.148
28845WAT     H186777   4.160   5.945   5.115
28845WAT     H286778   4.159   5.782   5.120
28846WAT      O86779   4.836   5.742   7.356
28846WAT     H186780   4.798   5.735   7.449
28846WAT     H286781   4.903   5.816   7.353
28847WAT      O86782   1.496   4.266   2.210
28847WAT     H186783   1.440   4.336   2.164
28847WAT     H286784   1.543   4.211   2.141
28848WAT      O86785   0.084   7.093   9.401
28848WAT     H186786   0.167   7.106   9.454
28848WAT     H286787   0.058   7.179   9.358
28849WAT      O86788   7.398   8.626   3.362
28849WAT     H186789   7.388   8.527   3.378
28849WAT     H286790   7.428   8.641   3.267
28850WAT      O86791   3.873   8.575   5.844
28850WAT     H186792   3.773   8.569   5.839
28850WAT     H286793   3.909   8.493   5.889
28851WAT      O86794   6.201   2.419   9.526
28851WAT     H186795   6.177   2.428   9.429
28851WAT     H286796   6.300   2.426   9.536
28852WAT      O86797   0.588   5.624   2.689
28852WAT     H186798   0.546   5.714   2.676
28852WAT     H286799   0.578   5.596   2.784
28853WAT      O86800   1.165   1.863   3.608
28853WAT     H186801   1.232   1.917   3.557
28853WAT     H286802   1.160   1.771   3.569
28854WAT      O86803   1.336   7.846   8.197
28854WAT     H186804   1.281   7.923   8.229
28854WAT     H286805   1.429   7.877   8.178
28855WAT      O86806   6.167   3.199   3.449
28855WAT     H186807   6.265   3.219   3.445
28855WAT     H286808   6.117   3.269   3.398
28856WAT      O86809   8.686   3.441   7.256
28856WAT     H186810   8.738   3.380   7.196
28856WAT     H286811   8.656   3.389   7.337
28857WAT      O86812   1.312   8.028   1.898
28857WAT     H186813   1.388   8.009   1.960
28857WAT     H286814   1.341   8.010   1.804
28858WAT      O86815   8.068   5.270   5.725
28858WAT     H186816   8.090   5.278   5.822
28858WAT     H286817   8.127   5.202   5.683
28859WAT      O86818   4.872   8.746   5.949
28859WAT     H186819   4.853   8.662   5.898
28859WAT     H286820   4.798   8.812   5.933
28860WAT      O86821   9.218   0.317   5.321
28860WAT     H186822   9.143   0.377   5.350
28860WAT     H286823   9.284   0.369   5.268
28861WAT      O86824   9.233   8.438   9.684
28861WAT     H186825   9.155   8.483   9.640
28861WAT     H286826   9.207   8.345   9.710
28862WAT      O86827   7.211   4.400   7.397
28862WAT     H186828   7.141   4.330   7.385
28862WAT     H286829   7.202   4.442   7.487
28863WAT      O86830   7.298   8.962   6.473
28863WAT     H186831   7.232   8.995   6.541
28863WAT     H286832   7.385   9.009   6.486
28864WAT      O86833   8.095   6.339   0.725
28864WAT     H186834   8.001   6.364   0.701
28864WAT     H286835   8.155   6.353   0.647
28865WAT      O86836   5.921   4.660   2.130
28865WAT     H186837   5.907   4.685   2.226
28865WAT     H286838   5.832   4.639   2.088
28866WAT      O86839   5.785   8.014   1.523
28866WAT     H186840   5.848   7.967   1.586
28866WAT     H286841   5.784   7.965   1.435
28867WAT      O86842   2.436   6.230   6.526
28867WAT     H186843   2.521   6.218   6.475
28867WAT     H286844   2.394   6.317   6.502
28868WAT      O86845   0.969   2.018   7.525
28868WAT     H186846   1.050   2.075   7.512
28868WAT     H286847   0.984   1.928   7.486
28869WAT      O86848   6.234   4.698   4.732
28869WAT     H186849   6.271   4.700   4.639
28869WAT     H286850   6.287   4.633   4.787
28870WAT      O86851   0.141   0.458   8.687
28870WAT     H186852   0.141   0.558   8.692
28870WAT     H286853   0.156   0.420   8.778
28871WAT      O86854   7.806   5.310   8.968
28871WAT     H186855   7.829   5.404   8.993
28871WAT     H286856   7.889   5.257   8.956
28872WAT      O86857   8.359   9.353   8.106
28872WAT     H186858   8.423   9.333   8.180
28872WAT     H286859   8.350   9.272   8.048
28873WAT      O86860   2.113   0.795   6.668
28873WAT     H186861   2.147   0.824   6.757
28873WAT     H286862   2.120   0.871   6.603
28874WAT      O86863   6.807   8.743   6.739
28874WAT     H186864   6.857   8.706   6.817
28874WAT     H286865   6.790   8.841   6.753
28875WAT      O86866   0.055   2.469   0.692
28875WAT     H186867   0.054   2.516   0.603
28875WAT     H286868   0.084   2.534   0.762
28876WAT      O86869   5.527   0.213   8.312
28876WAT     H186870   5.498   0.233   8.406
28876WAT     H286871   5.566   0.121   8.308
28877WAT      O86872   8.678   9.293   6.029
28877WAT     H186873   8.606   9.224   6.028
28877WAT     H286874   8.766   9.251   6.010
28878WAT      O86875   2.180   2.492   2.778
28878WAT     H186876   2.264   2.438   2.778
28878WAT     H286877   2.166   2.531   2.869
28879WAT      O86878   4.820   9.014   2.747
28879WAT     H186879   4.779   9.064   2.670
28879WAT     H286880   4.896   8.958   2.714
28880WAT      O86881   3.210   4.207   7.972
28880WAT     H186882   3.193   4.134   7.905
28880WAT     H286883   3.231   4.292   7.924
28881WAT      O86884   7.484   5.781   0.986
28881WAT     H186885   7.566   5.745   1.030
28881WAT     H286886   7.493   5.880   0.974
28882WAT      O86887   9.044   6.561   8.801
28882WAT     H186888   9.007   6.472   8.775
28882WAT     H286889   9.077   6.557   8.896
28883WAT      O86890   4.174   4.017   8.638
28883WAT     H186891   4.107   3.974   8.577
28883WAT     H286892   4.167   4.117   8.629
28884WAT      O86893   7.857   6.017   1.816
28884WAT     H186894   7.779   6.058   1.863
28884WAT     H286895   7.939   6.025   1.873
28885WAT      O86896   9.173   7.094   4.766
28885WAT     H186897   9.179   7.072   4.669
28885WAT     H286898   9.111   7.172   4.779
28886WAT      O86899   3.131   6.357   7.613
28886WAT     H186900   3.187   6.439   7.622
28886WAT     H286901   3.061   6.371   7.543
28887WAT      O86902   4.920   7.282   7.031
28887WAT     H186903   5.018   7.282   7.049
28887WAT     H286904   4.897   7.355   6.967
28888WAT      O86905   8.729   4.570   5.198
28888WAT     H186906   8.828   4.563   5.191
28888WAT     H286907   8.690   4.478   5.210
28889WAT      O86908   5.232   4.944   4.869
28889WAT     H186909   5.301   5.016   4.862
28889WAT     H286910   5.188   4.948   4.959
28890WAT      O86911   2.170   7.930   3.103
28890WAT     H186912   2.147   8.017   3.059
28890WAT     H286913   2.266   7.908   3.085
28891WAT      O86914   7.289   1.607   0.047
28891WAT     H186915   7.296   1.656   0.135
28891WAT     H286916   7.215   1.648  -0.007
28892WAT      O86917   1.086   2.889   2.445
28892WAT     H186918   1.151   2.839   2.502
28892WAT     H286919   1.013   2.925   2.503
28893WAT      O86920   8.177   1.868   7.634
28893WAT     H186921   8.079   1.882   7.631
28893WAT     H286922   8.197   1.770   7.627
28894WAT      O86923   0.082   7.373   2.574
28894WAT     H186924   0.145   7.305   2.537
28894WAT     H286925   0.002   7.327   2.612
28895WAT      O86926   5.022   1.308   0.607
28895WAT     H186927   5.118   1.286   0.595
28895WAT     H286928   4.999   1.390   0.554
28896WAT      O86929   1.463   3.158   0.966
28896WAT     H186930   1.401   3.080   0.961
28896WAT     H286931   1.411   3.242   0.950
28897WAT      O86932   4.564   3.761   3.448
28897WAT     H186933   4.478   3.810   3.432
28897WAT     H286934   4.559   3.669   3.410
28898WAT      O86935   8.864   7.879   6.956
28898WAT     H186936   8.875   7.940   7.034
28898WAT     H286937   8.918   7.796   6.971
28899WAT      O86938   2.852   3.678   6.707
28899WAT     H186939   2.804   3.755   6.665
28899WAT     H286940   2.790   3.630   6.768
28900WAT      O86941   0.951   4.151   5.857
28900WAT     H186942   0.907   4.213   5.922
28900WAT     H286943   0.986   4.071   5.906
28901WAT      O86944   6.547   8.317   0.478
28901WAT     H186945   6.523   8.393   0.417
28901WAT     H286946   6.501   8.330   0.566
28902WAT      O86947   8.923   5.083   9.816
28902WAT     H186948   8.840   5.133   9.790
28902WAT     H286949   8.904   5.030   9.899
28903WAT      O86950   2.954   0.051   5.921
28903WAT     H186951   2.937  -0.038   5.877
28903WAT     H286952   2.916   0.050   6.013
28904WAT      O86953   4.578   5.123   8.735
28904WAT     H186954   4.563   5.102   8.639
28904WAT     H286955   4.554   5.044   8.791
28905WAT      O86956   8.948   5.744   2.543
28905WAT     H186957   9.029   5.794   2.513
28905WAT     H286958   8.884   5.806   2.587
28906WAT      O86959   8.094   7.380   6.001
28906WAT     H186960   8.141   7.398   5.915
28906WAT     H286961   8.033   7.302   5.989
28907WAT      O86962   4.021   4.161   7.126
28907WAT     H186963   3.957   4.094   7.163
28907WAT     H286964   4.042   4.228   7.197
28908WAT      O86965   3.429   0.778   1.106
28908WAT     H186966   3.481   0.768   1.191
28908WAT     H286967   3.335   0.805   1.128
28909WAT      O86968   9.838   3.893   8.382
28909WAT     H186969   9.898   3.927   8.309
28909WAT     H286970   9.857   3.943   8.466
28910WAT      O86971   9.376   9.498   3.874
28910WAT     H186972   9.343   9.411   3.909
28910WAT     H286973   9.312   9.571   3.898
28911WAT      O86974   0.755   5.809   4.733
28911WAT     H186975   0.731   5.822   4.829
28911WAT     H286976   0.796   5.719   4.720
28912WAT      O86977   0.281   5.050   9.708
28912WAT     H186978   0.337   4.967   9.711
28912WAT     H286979   0.220   5.052   9.787
28913WAT      O86980   1.000   3.978   5.078
28913WAT     H186981   1.001   4.075   5.055
28913WAT     H286982   1.092   3.950   5.107
28914WAT      O86983   5.565   3.395   0.837
28914WAT     H186984   5.623   3.374   0.758
28914WAT     H286985   5.564   3.494   0.852
28915WAT      O86986   0.057   9.569   7.010
28915WAT     H186987   0.145   9.582   7.055
28915WAT     H286988  -0.013   9.546   7.077
28916WAT      O86989   2.038   6.343   4.334
28916WAT     H186990   2.033   6.382   4.242
28916WAT     H286991   1.972   6.268   4.342
28917WAT      O86992   8.940   8.664   4.049
28917WAT     H186993   8.998   8.737   4.015
28917WAT     H286994   8.965   8.578   4.005
28918WAT      O86995   7.679   9.217   9.374
28918WAT     H186996   7.648   9.145   9.312
28918WAT     H286997   7.758   9.264   9.335
28919WAT      O86998   6.249   7.064   1.501
28919WAT     H186999   6.179   7.089   1.567
28919WAT     H287000   6.339   7.067   1.545
28920WAT      O87001   0.411   2.883   1.715
28920WAT     H187002   0.455   2.826   1.784
28920WAT     H287003   0.467   2.965   1.699
28921WAT      O87004   5.062   4.091   8.871
28921WAT     H187005   4.991   4.136   8.925
28921WAT     H287006   5.132   4.158   8.846
28922WAT      O87007   9.177   6.692   5.230
28922WAT     H187008   9.242   6.668   5.302
28922WAT     H287009   9.166   6.613   5.168
28923WAT      O87010   5.609   4.783   1.845
28923WAT     H187011   5.511   4.801   1.836
28923WAT     H287012   5.624   4.717   1.919
28924WAT      O87013   7.703   2.637   8.780
28924WAT     H187014   7.773   2.626   8.709
28924WAT     H287015   7.627   2.574   8.761
28925WAT      O87016   6.830   4.954   9.625
28925WAT     H187017   6.889   5.010   9.684
28925WAT     H287018   6.882   4.878   9.587
28926WAT      O87019   3.222   9.516   4.342
28926WAT     H187020   3.315   9.551   4.354
28926WAT     H287021   3.157   9.584   4.375
28927WAT      O87022   5.680   7.061   4.603
28927WAT     H187023   5.698   7.069   4.505
28927WAT     H287024   5.743   6.993   4.643
28928WAT      O87025   2.101   3.557   0.309
28928WAT     H187026   2.019   3.592   0.264
28928WAT     H287027   2.132   3.624   0.376
28929WAT      O87028   9.620   3.870   7.458
28929WAT     H187029   9.640   3.877   7.360
28929WAT     H287030   9.654   3.952   7.504
28930WAT      O87031   4.886   1.854   4.705
28930WAT     H187032   4.968   1.867   4.760
28930WAT     H287033   4.843   1.767   4.727
28931WAT      O87034   3.691   1.386   4.707
28931WAT     H187035   3.655   1.299   4.742
28931WAT     H287036   3.790   1.388   4.718
28932WAT      O87037   7.929   6.889   6.658
28932WAT     H187038   7.923   6.953   6.582
28932WAT     H287039   7.898   6.799   6.628
28933WAT      O87040   5.570   8.485   5.393
28933WAT     H187041   5.602   8.493   5.298
28933WAT     H287042   5.576   8.575   5.437
28934WAT      O87043   1.978   5.478   9.242
28934WAT     H187044   1.969   5.541   9.165
28934WAT     H287045   1.913   5.504   9.314
28935WAT      O87046   8.997   9.761   6.257
28935WAT     H187047   8.917   9.755   6.198
28935WAT     H287048   9.006   9.854   6.292
28936WAT      O87049   7.272   8.362   7.473
28936WAT     H187050   7.353   8.419   7.488
28936WAT     H287051   7.265   8.293   7.545
28937WAT      O87052   7.602   2.384   2.594
28937WAT     H187053   7.540   2.354   2.522
28937WAT     H287054   7.689   2.413   2.554
28938WAT      O87055   3.416   6.011   0.236
28938WAT     H187056   3.361   5.928   0.231
28938WAT     H287057   3.457   6.030   0.146
28939WAT      O87058   6.653   9.450   1.830
28939WAT     H187059   6.608   9.360   1.824
28939WAT     H287060   6.654   9.493   1.740
28940WAT      O87061   6.382   6.175   5.572
28940WAT     H187062   6.286   6.179   5.548
28940WAT     H287063   6.401   6.242   5.644
28941WAT      O87064   7.643   2.377   4.958
28941WAT     H187065   7.636   2.279   4.975
28941WAT     H287066   7.583   2.427   5.020
28942WAT      O87067   3.361   2.709   6.662
28942WAT     H187068   3.297   2.745   6.730
28942WAT     H287069   3.451   2.699   6.704
28943WAT      O87070   8.718   1.293   2.587
28943WAT     H187071   8.620   1.305   2.602
28943WAT     H287072   8.768   1.320   2.669
28944WAT      O87073   0.438   8.320   8.189
28944WAT     H187074   0.488   8.298   8.105
28944WAT     H287075   0.342   8.295   8.178
28945WAT      O87076   1.968   6.576   5.097
28945WAT     H187077   2.030   6.514   5.144
28945WAT     H287078   1.933   6.644   5.162
28946WAT      O87079   2.392   3.579   2.481
28946WAT     H187080   2.296   3.554   2.489
28946WAT     H287081   2.414   3.648   2.551
28947WAT      O87082   6.677   3.452   6.972
28947WAT     H187083   6.710   3.544   6.995
28947WAT     H287084   6.740   3.409   6.908
28948WAT      O87085   1.262   7.401   2.715
28948WAT     H187086   1.290   7.494   2.690
28948WAT     H287087   1.164   7.390   2.695
28949WAT      O87088   7.871   4.001   3.015
28949WAT     H187089   7.798   4.059   2.977
28949WAT     H287090   7.957   4.023   2.969
28950WAT      O87091   4.956   3.776   8.266
28950WAT     H187092   4.984   3.860   8.219
28950WAT     H287093   4.989   3.778   8.360
28951WAT      O87094   6.694   8.966   8.930
28951WAT     H187095   6.684   9.020   9.014
28951WAT     H287096   6.614   8.909   8.918
28952WAT      O87097   8.061   3.239   0.491
28952WAT     H187098   8.013   3.322   0.520
28952WAT     H287099   8.157   3.261   0.474
28953WAT      O87100   6.841   6.880   5.000
28953WAT     H187101   6.748   6.854   5.023
28953WAT     H287102   6.876   6.942   5.070
28954WAT      O87103   0.415   9.336   3.193
28954WAT     H187104   0.345   9.269   3.170
28954WAT     H287105   0.494   9.289   3.233
28955WAT      O87106   1.053   5.515   6.368
28955WAT     H187107   1.117   5.476   6.434
28955WAT     H287108   0.994   5.443   6.331
28956WAT      O87109   0.330   9.255   3.940
28956WAT     H187110   0.341   9.161   3.971
28956WAT     H287111   0.236   9.285   3.958
28957WAT      O87112   2.617   3.644   0.461
28957WAT     H187113   2.632   3.721   0.522
28957WAT     H287114   2.691   3.577   0.472
28958WAT      O87115   6.071   4.959   4.508
28958WAT     H187116   6.116   5.008   4.583
28958WAT     H287117   6.104   4.865   4.505
28959WAT      O87118   6.891   8.166   1.343
28959WAT     H187119   6.833   8.091   1.373
28959WAT     H287120   6.894   8.168   1.243
28960WAT      O87121   3.062   5.224   8.599
28960WAT     H187122   3.091   5.315   8.570
28960WAT     H287123   3.065   5.162   8.522
28961WAT      O87124   9.512   5.917   1.554
28961WAT     H187125   9.418   5.949   1.565
28961WAT     H287126   9.536   5.914   1.457
28962WAT      O87127   8.678   1.815   0.083
28962WAT     H187128   8.580   1.797   0.076
28962WAT     H287129   8.697   1.909   0.056
28963WAT      O87130   6.075   7.988   7.256
28963WAT     H187131   6.034   7.958   7.343
28963WAT     H287132   6.173   8.000   7.269
28964WAT      O87133   4.744   7.371   6.454
28964WAT     H187134   4.740   7.397   6.357
28964WAT     H287135   4.651   7.368   6.491
28965WAT      O87136   1.223   3.554   6.301
28965WAT     H187137   1.190   3.591   6.388
28965WAT     H287138   1.236   3.455   6.310
28966WAT      O87139   2.102   2.018   3.283
28966WAT     H187140   2.014   2.000   3.241
28966WAT     H287141   2.110   2.115   3.306
28967WAT      O87142   3.232   7.155   4.959
28967WAT     H187143   3.237   7.206   5.044
28967WAT     H287144   3.317   7.166   4.908
28968WAT      O87145   0.345   5.239   7.668
28968WAT     H187146   0.262   5.296   7.671
28968WAT     H287147   0.346   5.188   7.582
28969WAT      O87148   0.492   0.893   2.537
28969WAT     H187149   0.550   0.818   2.567
28969WAT     H287150   0.536   0.980   2.560
28970WAT      O87151   9.287   2.738   2.645
28970WAT     H187152   9.325   2.819   2.691
28970WAT     H287153   9.355   2.700   2.583
28971WAT      O87154   1.932   6.993   3.948
28971WAT     H187155   1.989   6.971   4.027
28971WAT     H287156   1.951   7.087   3.918
28972WAT      O87157   4.223   2.870   1.248
28972WAT     H187158   4.278   2.791   1.277
28972WAT     H287159   4.275   2.954   1.265
28973WAT      O87160   0.356   7.244   3.359
28973WAT     H187161   0.325   7.224   3.452
28973WAT     H287162   0.400   7.164   3.320
28974WAT      O87163   3.865   0.808   4.633
28974WAT     H187164   3.897   0.893   4.675
28974WAT     H287165   3.830   0.827   4.541
28975WAT      O87166   4.912   8.267   2.782
28975WAT     H187167   4.914   8.367   2.775
28975WAT     H287168   4.981   8.237   2.848
28976WAT      O87169   8.818   8.879   4.914
28976WAT     H187170   8.742   8.940   4.894
28976WAT     H287171   8.783   8.786   4.929
28977WAT      O87172   1.872   4.209   9.149
28977WAT     H187173   1.969   4.198   9.171
28977WAT     H287174   1.863   4.245   9.057
28978WAT      O87175   1.877   2.557   2.403
28978WAT     H187176   1.841   2.569   2.311
28978WAT     H287177   1.947   2.486   2.403
28979WAT      O87178   4.266   9.508   0.063
28979WAT     H187179   4.266   9.598   0.106
28979WAT     H287180   4.172   9.473   0.061
28980WAT      O87181   7.759   7.677   1.892
28980WAT     H187182   7.841   7.684   1.950
28980WAT     H287183   7.759   7.752   1.826
28981WAT      O87184   3.404   2.490   7.814
28981WAT     H187185   3.409   2.504   7.913
28981WAT     H287186   3.347   2.562   7.773
28982WAT      O87187   2.309   0.188   1.886
28982WAT     H187188   2.384   0.252   1.901
28982WAT     H287189   2.248   0.223   1.814
28983WAT      O87190   0.441   5.908   5.102
28983WAT     H187191   0.453   5.828   5.043
28983WAT     H287192   0.397   5.981   5.050
28984WAT      O87193   3.988   7.710   5.775
28984WAT     H187194   3.917   7.780   5.768
28984WAT     H287195   4.032   7.699   5.685
28985WAT      O87196   9.533   5.156   6.417
28985WAT     H187197   9.576   5.105   6.342
28985WAT     H287198   9.434   5.161   6.401
28986WAT      O87199   1.829   5.608   6.678
28986WAT     H187200   1.809   5.517   6.712
28986WAT     H287201   1.897   5.602   6.604
28987WAT      O87202   2.535   8.028   9.600
28987WAT     H187203   2.576   7.939   9.580
28987WAT     H287204   2.436   8.021   9.595
28988WAT      O87205   9.444   8.910   8.082
28988WAT     H187206   9.496   8.872   8.159
28988WAT     H287207   9.347   8.896   8.097
28989WAT      O87208   3.981   3.524   3.891
28989WAT     H187209   3.940   3.574   3.967
28989WAT     H287210   3.928   3.539   3.808
28990WAT      O87211   4.010   7.679   1.109
28990WAT     H187212   3.988   7.625   1.190
28990WAT     H287213   4.004   7.620   1.028
28991WAT      O87214   6.169   0.676   1.558
28991WAT     H187215   6.198   0.763   1.599
28991WAT     H287216   6.227   0.602   1.592
28992WAT      O87217   4.986   1.506   6.861
28992WAT     H187218   5.012   1.535   6.769
28992WAT     H287219   4.949   1.413   6.857
28993WAT      O87220   4.214   6.492   0.725
28993WAT     H187221   4.129   6.497   0.672
28993WAT     H287222   4.242   6.396   0.734
28994WAT      O87223   8.714   2.359   0.682
28994WAT     H187224   8.691   2.381   0.777
28994WAT     H287225   8.777   2.281   0.680
28995WAT      O87226   5.118   3.815   7.952
28995WAT     H187227   5.204   3.777   7.916
28995WAT     H287228   5.049   3.743   7.955
28996WAT      O87229   1.657   5.036   1.541
28996WAT     H187230   1.570   5.015   1.496
28996WAT     H287231   1.662   4.988   1.629
28997WAT      O87232   9.379   4.990   0.744
28997WAT     H187233   9.445   4.926   0.784
28997WAT     H287234   9.396   4.997   0.645
28998WAT      O87235   1.376   7.784   5.338
28998WAT     H187236   1.360   7.783   5.437
28998WAT     H287237   1.440   7.711   5.314
28999WAT      O87238   3.243   7.704   9.827
28999WAT     H187239   3.305   7.777   9.855
28999WAT     H287240   3.240   7.698   9.728
29000WAT      O87241   1.063   3.616   2.401
29000WAT     H187242   1.143   3.631   2.459
29000WAT     H287243   1.074   3.664   2.315
29001WAT      O87244   8.820   7.156   6.559
29001WAT     H187245   8.874   7.115   6.485
29001WAT     H287246   8.853   7.122   6.647
29002WAT      O87247   1.770   3.086   6.212
29002WAT     H187248   1.719   3.055   6.132
29002WAT     H287249   1.770   3.186   6.215
29003WAT      O87250   1.392   1.720   5.042
29003WAT     H187251   1.425   1.781   4.970
29003WAT     H287252   1.467   1.695   5.103
29004WAT      O87253   4.950   0.165   1.721
29004WAT     H187254   4.948   0.093   1.651
29004WAT     H287255   5.038   0.164   1.767
29005WAT      O87256   4.362   2.232   1.142
29005WAT     H187257   4.403   2.147   1.174
29005WAT     H287258   4.360   2.233   1.042
29006WAT      O87259   0.905   8.379   4.630
29006WAT     H187260   0.932   8.454   4.690
29006WAT     H287261   0.917   8.406   4.535
29007WAT      O87262   1.882   0.867   9.845
29007WAT     H187263   1.921   0.783   9.809
29007WAT     H287264   1.789   0.849   9.878
29008WAT      O87265   3.636   4.034   9.478
29008WAT     H187266   3.631   3.944   9.435
29008WAT     H287267   3.731   4.056   9.499
29009WAT      O87268   0.209   7.351   5.458
29009WAT     H187269   0.180   7.416   5.529
29009WAT     H287270   0.148   7.272   5.459
29010WAT      O87271   5.694   8.509   9.431
29010WAT     H187272   5.779   8.539   9.475
29010WAT     H287273   5.716   8.459   9.347
29011WAT      O87274   8.804   3.670   3.635
29011WAT     H187275   8.795   3.583   3.684
29011WAT     H287276   8.732   3.733   3.664
29012WAT      O87277   7.324   9.559   4.428
29012WAT     H187278   7.381   9.581   4.348
29012WAT     H287279   7.330   9.633   4.495
29013WAT      O87280   6.059   6.868   0.401
29013WAT     H187281   6.140   6.881   0.459
29013WAT     H287282   6.065   6.930   0.322
29014WAT      O87283   4.571   5.874   8.982
29014WAT     H187284   4.552   5.969   8.959
29014WAT     H287285   4.491   5.833   9.026
29015WAT      O87286   6.121   5.119   2.015
29015WAT     H187287   6.157   5.042   2.068
29015WAT     H287288   6.149   5.109   1.919
29016WAT      O87289   6.104   9.352   6.267
29016WAT     H187290   6.090   9.255   6.251
29016WAT     H287291   6.201   9.369   6.288
29017WAT      O87292   8.389   9.629   2.854
29017WAT     H187293   8.428   9.561   2.792
29017WAT     H287294   8.441   9.628   2.940
29018WAT      O87295   0.188   2.823   7.671
29018WAT     H187296   0.194   2.902   7.732
29018WAT     H287297   0.150   2.745   7.722
29019WAT      O87298   0.474   3.789   4.635
29019WAT     H187299   0.464   3.696   4.600
29019WAT     H287300   0.505   3.785   4.730
29020WAT      O87301   2.954   3.501   8.753
29020WAT     H187302   2.904   3.414   8.751
29020WAT     H287303   3.033   3.493   8.814
29021WAT      O87304   8.217   2.952   8.235
29021WAT     H187305   8.264   2.934   8.148
29021WAT     H287306   8.270   2.912   8.310
29022WAT      O87307   9.123   2.176   6.641
29022WAT     H187308   9.196   2.127   6.593
29022WAT     H287309   9.044   2.185   6.582
29023WAT      O87310   2.779   3.878   7.988
29023WAT     H187311   2.754   3.844   7.898
29023WAT     H287312   2.875   3.855   8.007
29024WAT      O87313   9.880   4.924   1.220
29024WAT     H187314   9.922   4.855   1.161
29024WAT     H287315   9.920   5.013   1.202
29025WAT      O87316   8.897   6.729   7.332
29025WAT     H187317   8.913   6.647   7.387
29025WAT     H287318   8.927   6.809   7.384
29026WAT      O87319   7.948   3.954   7.630
29026WAT     H187320   7.954   3.922   7.535
29026WAT     H287321   7.853   3.951   7.661
29027WAT      O87322   1.736   7.631   7.460
29027WAT     H187323   1.801   7.571   7.508
29027WAT     H287324   1.778   7.720   7.446
29028WAT      O87325   1.708   3.336   0.669
29028WAT     H187326   1.803   3.306   0.656
29028WAT     H287327   1.647   3.259   0.652
29029WAT      O87328   7.775   5.569   7.458
29029WAT     H187329   7.710   5.495   7.479
29029WAT     H287330   7.867   5.530   7.448
29030WAT      O87331   1.297   3.378   9.009
29030WAT     H187332   1.395   3.390   9.027
29030WAT     H287333   1.281   3.287   8.971
29031WAT      O87334   6.628   6.118   5.112
29031WAT     H187335   6.621   6.213   5.080
29031WAT     H287336   6.575   6.108   5.196
29032WAT      O87337   6.835   3.411   5.404
29032WAT     H187338   6.891   3.477   5.455
29032WAT     H287339   6.894   3.342   5.363
29033WAT      O87340   4.152   0.049   5.008
29033WAT     H187341   4.217  -0.024   5.028
29033WAT     H287342   4.076   0.044   5.072
29034WAT      O87343   9.108   1.227   4.583
29034WAT     H187344   9.142   1.148   4.634
29034WAT     H287345   9.079   1.298   4.646
29035WAT      O87346   0.052   7.964   5.111
29035WAT     H187347   0.028   8.021   5.033
29035WAT     H287348   0.048   8.019   5.195
29036WAT      O87349   1.043   8.422   6.541
29036WAT     H187350   0.948   8.399   6.520
29036WAT     H287351   1.046   8.511   6.586
29037WAT      O87352   4.616   5.608   3.996
29037WAT     H187353   4.536   5.598   3.936
29037WAT     H287354   4.638   5.520   4.037
29038WAT      O87355   6.085   5.295   2.670
29038WAT     H187356   6.185   5.291   2.676
29038WAT     H287357   6.055   5.244   2.589
29039WAT      O87358   7.943   6.675   0.642
29039WAT     H187359   7.883   6.595   0.641
29039WAT     H287360   8.016   6.663   0.575
29040WAT      O87361   3.016   0.919   1.768
29040WAT     H187362   3.015   0.820   1.754
29040WAT     H287363   3.008   0.966   1.680
29041WAT      O87364   7.297   3.303   3.546
29041WAT     H187365   7.374   3.248   3.514
29041WAT     H287366   7.312   3.328   3.642
29042WAT      O87367   5.099   0.646   7.198
29042WAT     H187368   5.017   0.649   7.141
29042WAT     H287369   5.081   0.692   7.285
29043WAT      O87370   1.109   0.186   2.357
29043WAT     H187371   1.183   0.137   2.310
29043WAT     H287372   1.149   0.256   2.416
29044WAT      O87373   7.247   0.582   8.680
29044WAT     H187374   7.282   0.630   8.600
29044WAT     H287375   7.280   0.626   8.763
29045WAT      O87376   1.312   4.629   9.052
29045WAT     H187377   1.345   4.545   9.008
29045WAT     H287378   1.282   4.608   9.145
29046WAT      O87379   0.205   3.171   5.702
29046WAT     H187380   0.296   3.138   5.680
29046WAT     H287381   0.211   3.245   5.769
29047WAT      O87382   3.748   1.126   2.728
29047WAT     H187383   3.715   1.191   2.659
29047WAT     H287384   3.845   1.141   2.744
29048WAT      O87385   8.348   8.729   0.274
29048WAT     H187386   8.314   8.652   0.221
29048WAT     H287387   8.448   8.730   0.273
29049WAT      O87388   1.937   4.435   7.624
29049WAT     H187389   1.901   4.449   7.532
29049WAT     H287390   1.932   4.521   7.675
29050WAT      O87391   5.796   3.607   7.146
29050WAT     H187392   5.726   3.656   7.197
29050WAT     H287393   5.873   3.587   7.206
29051WAT      O87394   1.828   6.161   5.262
29051WAT     H187395   1.843   6.173   5.164
29051WAT     H287396   1.730   6.154   5.280
29052WAT      O87397   6.377   7.597   5.645
29052WAT     H187398   6.439   7.634   5.715
29052WAT     H287399   6.425   7.590   5.558
29053WAT      O87400   2.579   7.823   5.158
29053WAT     H187401   2.594   7.870   5.071
29053WAT     H287402   2.511   7.750   5.145
29054WAT      O87403   5.283   6.333   0.255
29054WAT     H187404   5.359   6.318   0.192
29054WAT     H287405   5.293   6.273   0.335
29055WAT      O87406   4.573   3.684   7.233
29055WAT     H187407   4.622   3.606   7.195
29055WAT     H287408   4.613   3.709   7.321
29056WAT      O87409   1.777   6.222   1.910
29056WAT     H187410   1.686   6.262   1.919
29056WAT     H287411   1.772   6.139   1.854
29057WAT      O87412   6.463   4.318   4.270
29057WAT     H187413   6.443   4.223   4.293
29057WAT     H287414   6.492   4.324   4.174
29058WAT      O87415   7.241   1.597   7.731
29058WAT     H187416   7.321   1.643   7.692
29058WAT     H287417   7.254   1.587   7.830
29059WAT      O87418   6.549   6.851   5.347
29059WAT     H187419   6.540   6.944   5.384
29059WAT     H287420   6.459   6.810   5.339
29060WAT      O87421   8.281   7.282   6.432
29060WAT     H187422   8.317   7.196   6.398
29060WAT     H287423   8.346   7.323   6.497
29061WAT      O87424   6.218   8.800   0.760
29061WAT     H187425   6.188   8.710   0.730
29061WAT     H287426   6.226   8.861   0.681
29062WAT      O87427   5.962   8.070   1.130
29062WAT     H187428   6.022   8.034   1.201
29062WAT     H287429   5.923   7.994   1.078
29063WAT      O87430   8.470   0.740   3.837
29063WAT     H187431   8.374   0.724   3.861
29063WAT     H287432   8.480   0.832   3.798
29064WAT      O87433   8.572   9.522   6.442
29064WAT     H187434   8.528   9.611   6.432
29064WAT     H287435   8.648   9.529   6.507
29065WAT      O87436   4.259   9.012   0.762
29065WAT     H187437   4.273   9.101   0.719
29065WAT     H287438   4.322   8.946   0.722
29066WAT      O87439   7.214   7.057   7.491
29066WAT     H187440   7.115   7.049   7.501
29066WAT     H287441   7.257   7.066   7.581
29067WAT      O87442   7.682   8.233   7.036
29067WAT     H187443   7.756   8.212   6.973
29067WAT     H287444   7.637   8.148   7.065
29068WAT      O87445   1.223   7.213   1.017
29068WAT     H187446   1.202   7.210   0.919
29068WAT     H287447   1.155   7.268   1.064
29069WAT      O87448   6.412   4.996   7.180
29069WAT     H187449   6.349   4.924   7.150
29069WAT     H287450   6.457   5.037   7.100
29070WAT      O87451   4.778   3.755   1.871
29070WAT     H187452   4.741   3.843   1.901
29070WAT     H287453   4.834   3.769   1.790
29071WAT      O87454   6.271   7.032   2.277
29071WAT     H187455   6.300   6.956   2.220
29071WAT     H287456   6.179   7.014   2.313
29072WAT      O87457   9.392   9.033   0.444
29072WAT     H187458   9.443   9.087   0.511
29072WAT     H287459   9.380   9.086   0.361
29073WAT      O87460   1.156   0.527   5.801
29073WAT     H187461   1.247   0.562   5.775
29073WAT     H287462   1.168   0.452   5.867
29074WAT      O87463   5.673   9.696   3.957
29074WAT     H187464   5.622   9.632   3.900
29074WAT     H287465   5.698   9.652   4.044
29075WAT      O87466   1.330   0.367   1.206
29075WAT     H187467   1.236   0.380   1.240
29075WAT     H287468   1.369   0.285   1.248
29076WAT      O87469   0.349   7.070   4.377
29076WAT     H187470   0.288   6.996   4.407
29076WAT     H287471   0.296   7.153   4.363
29077WAT      O87472   6.847   1.612   2.171
29077WAT     H187473   6.891   1.699   2.150
29077WAT     H287474   6.801   1.577   2.090
29078WAT      O87475   7.861   8.314   4.597
29078WAT     H187476   7.955   8.305   4.564
29078WAT     H287477   7.803   8.348   4.523
29079WAT      O87478   0.412   4.518   5.330
29079WAT     H187479   0.394   4.536   5.234
29079WAT     H287480   0.400   4.602   5.383
29080WAT      O87481   3.058   0.546   8.021
29080WAT     H187482   2.984   0.490   8.059
29080WAT     H287483   3.088   0.506   7.934
29081WAT      O87484   0.314   4.981   8.088
29081WAT     H187485   0.298   4.882   8.094
29081WAT     H287486   0.382   5.008   8.156
29082WAT      O87487   4.246   2.524   1.537
29082WAT     H187488   4.260   2.426   1.527
29082WAT     H287489   4.252   2.549   1.634
29083WAT      O87490   8.403   2.492   4.698
29083WAT     H187491   8.457   2.449   4.770
29083WAT     H287492   8.358   2.421   4.643
29084WAT      O87493   8.330   5.550   2.995
29084WAT     H187494   8.271   5.564   2.916
29084WAT     H287495   8.421   5.587   2.976
29085WAT      O87496   8.158   0.727   3.886
29085WAT     H187497   8.173   0.824   3.908
29085WAT     H287498   8.162   0.673   3.970
29086WAT      O87499   2.681   8.678   5.621
29086WAT     H187500   2.737   8.749   5.579
29086WAT     H287501   2.645   8.712   5.708
29087WAT      O87502   5.830   9.452   9.573
29087WAT     H187503   5.859   9.371   9.623
29087WAT     H287504   5.740   9.437   9.534
29088WAT      O87505   7.752   9.039   3.686
29088WAT     H187506   7.826   8.973   3.693
29088WAT     H287507   7.753   9.100   3.765
29089WAT      O87508   7.654   9.732   3.786
29089WAT     H187509   7.580   9.794   3.758
29089WAT     H287510   7.659   9.729   3.886
29090WAT      O87511   6.576   2.971   9.435
29090WAT     H187512   6.517   2.937   9.362
29090WAT     H287513   6.621   3.056   9.405
29091WAT      O87514   9.402   3.186   3.190
29091WAT     H187515   9.354   3.122   3.251
29091WAT     H287516   9.467   3.135   3.134
29092WAT      O87517   2.338   5.990   6.531
29092WAT     H187518   2.372   6.082   6.552
29092WAT     H287519   2.262   5.968   6.593
29093WAT      O87520   5.964   1.987   2.941
29093WAT     H187521   5.970   2.081   2.975
29093WAT     H287522   6.040   1.933   2.977
29094WAT      O87523   3.244   2.979   5.451
29094WAT     H187524   3.168   2.952   5.509
29094WAT     H287525   3.243   3.078   5.438
29095WAT      O87526   6.066   3.489   8.618
29095WAT     H187527   5.992   3.537   8.665
29095WAT     H287528   6.123   3.441   8.685
29096WAT      O87529   1.276   1.134   1.769
29096WAT     H187530   1.230   1.096   1.850
29096WAT     H287531   1.372   1.151   1.790
29097WAT      O87532   7.048   8.824   4.357
29097WAT     H187533   7.083   8.898   4.300
29097WAT     H287534   6.951   8.839   4.374
29098WAT      O87535   1.277   8.847   8.274
29098WAT     H187536   1.373   8.861   8.296
29098WAT     H287537   1.240   8.930   8.230
29099WAT      O87538   5.507   4.360   9.597
29099WAT     H187539   5.522   4.337   9.501
29099WAT     H287540   5.465   4.450   9.603
29100WAT      O87541   9.351   9.677   3.523
29100WAT     H187542   9.405   9.761   3.523
29100WAT     H287543   9.262   9.695   3.565
29101WAT      O87544   0.711   0.651   3.969
29101WAT     H187545   0.753   0.610   3.889
29101WAT     H287546   0.640   0.590   4.005
29102WAT      O87547   9.152   9.465   5.783
29102WAT     H187548   9.152   9.379   5.834
29102WAT     H287549   9.074   9.520   5.813
29103WAT      O87550   2.266   2.932   7.794
29103WAT     H187551   2.283   3.027   7.767
29103WAT     H287552   2.347   2.877   7.772
29104WAT      O87553   2.035   0.487   1.707
29104WAT     H187554   1.986   0.561   1.663
29104WAT     H287555   2.128   0.517   1.731
29105WAT      O87556   3.097   4.367   1.357
29105WAT     H187557   3.137   4.440   1.301
29105WAT     H287558   3.129   4.377   1.451
29106WAT      O87559   3.795   1.941   6.848
29106WAT     H187560   3.846   1.855   6.853
29106WAT     H287561   3.761   1.965   6.939
29107WAT      O87562   3.007   0.415   5.483
29107WAT     H187563   2.932   0.463   5.529
29107WAT     H287564   3.018   0.324   5.522
29108WAT      O87565   4.614   4.660   4.526
29108WAT     H187566   4.583   4.635   4.434
29108WAT     H287567   4.541   4.640   4.592
29109WAT      O87568   5.282   0.973   6.401
29109WAT     H187569   5.196   0.960   6.351
29109WAT     H287570   5.269   0.947   6.497
29110WAT      O87571   7.378   1.814   4.704
29110WAT     H187572   7.329   1.777   4.782
29110WAT     H287573   7.432   1.893   4.733
29111WAT      O87574   2.842   5.517   2.439
29111WAT     H187575   2.825   5.584   2.368
29111WAT     H287576   2.938   5.489   2.437
29112WAT      O87577   4.520   0.321   6.017
29112WAT     H187578   4.549   0.229   6.042
29112WAT     H287579   4.425   0.336   6.045
29113WAT      O87580   5.438   0.761   6.280
29113WAT     H187581   5.496   0.785   6.202
29113WAT     H287582   5.392   0.843   6.314
29114WAT      O87583   5.807   3.669   9.026
29114WAT     H187584   5.878   3.699   9.090
29114WAT     H287585   5.749   3.601   9.070
29115WAT      O87586   6.281   4.348   8.110
29115WAT     H187587   6.302   4.429   8.057
29115WAT     H287588   6.337   4.346   8.193
29116WAT      O87589   5.864   5.920   0.676
29116WAT     H187590   5.877   5.863   0.595
29116WAT     H287591   5.885   6.015   0.653
29117WAT      O87592   5.615   4.224   0.400
29117WAT     H187593   5.697   4.176   0.430
29117WAT     H287594   5.555   4.241   0.478
29118WAT      O87595   0.411   8.131   9.630
29118WAT     H187596   0.426   8.085   9.542
29118WAT     H287597   0.491   8.117   9.689
29119WAT      O87598   0.757   4.414   6.206
29119WAT     H187599   0.699   4.494   6.194
29119WAT     H287600   0.807   4.423   6.292
29120WAT      O87601   1.400   0.823   6.728
29120WAT     H187602   1.330   0.838   6.658
29120WAT     H287603   1.487   0.803   6.685
29121WAT      O87604   2.725   1.630   3.510
29121WAT     H187605   2.743   1.545   3.461
29121WAT     H287606   2.637   1.667   3.481
29122WAT      O87607   2.524   9.329   4.329
29122WAT     H187608   2.462   9.357   4.402
29122WAT     H287609   2.615   9.310   4.368
29123WAT      O87610   7.167   0.726   3.097
29123WAT     H187611   7.217   0.639   3.089
29123WAT     H287612   7.207   0.781   3.170
29124WAT      O87613   8.987   6.686   3.935
29124WAT     H187614   9.010   6.654   4.027
29124WAT     H287615   8.966   6.608   3.876
29125WAT      O87616   7.785   1.934   6.505
29125WAT     H187617   7.860   1.903   6.446
29125WAT     H287618   7.799   1.898   6.597
29126WAT      O87619   8.501   0.645   7.550
29126WAT     H187620   8.436   0.708   7.593
29126WAT     H287621   8.462   0.553   7.545
29127WAT      O87622   1.351   2.728   1.559
29127WAT     H187623   1.351   2.634   1.524
29127WAT     H287624   1.257   2.761   1.566
29128WAT      O87625   5.122   0.298   3.666
29128WAT     H187626   5.155   0.237   3.594
29128WAT     H287627   5.051   0.358   3.629
29129WAT      O87628   9.203   8.575   3.706
29129WAT     H187629   9.214   8.674   3.715
29129WAT     H287630   9.165   8.555   3.615
29130WAT      O87631   2.587   1.616   3.128
29130WAT     H187632   2.640   1.589   3.047
29130WAT     H287633   2.571   1.715   3.126
29131WAT      O87634   4.742   5.520   5.878
29131WAT     H187635   4.728   5.485   5.785
29131WAT     H287636   4.808   5.595   5.875
29132WAT      O87637   2.740   6.432   4.760
29132WAT     H187638   2.660   6.373   4.771
29132WAT     H287639   2.785   6.412   4.673
29133WAT      O87640   6.082   8.118   0.403
29133WAT     H187641   6.001   8.071   0.367
29133WAT     H287642   6.097   8.202   0.351
29134WAT      O87643   9.273   7.713   5.200
29134WAT     H187644   9.335   7.792   5.196
29134WAT     H287645   9.220   7.709   5.115
29135WAT      O87646   6.224   8.401   3.753
29135WAT     H187647   6.135   8.448   3.750
29135WAT     H287648   6.280   8.439   3.826
29136WAT      O87649   4.704   4.458   1.075
29136WAT     H187650   4.644   4.520   1.125
29136WAT     H287651   4.795   4.459   1.117
29137WAT      O87652   5.316   9.275   9.809
29137WAT     H187653   5.354   9.366   9.824
29137WAT     H287654   5.237   9.281   9.748
29138WAT      O87655   1.380   2.961   2.030
29138WAT     H187656   1.344   2.986   2.120
29138WAT     H287657   1.404   3.044   1.979
29139WAT      O87658   8.647   0.781   7.093
29139WAT     H187659   8.603   0.781   7.003
29139WAT     H287660   8.580   0.808   7.162
29140WAT      O87661   4.994   5.704   8.630
29140WAT     H187662   4.910   5.757   8.640
29140WAT     H287663   5.030   5.682   8.721
29141WAT      O87664   3.731   7.212   7.649
29141WAT     H187665   3.719   7.183   7.744
29141WAT     H287666   3.810   7.272   7.642
29142WAT      O87667   0.599   3.118   0.466
29142WAT     H187668   0.534   3.193   0.465
29142WAT     H287669   0.686   3.149   0.505
29143WAT      O87670   3.707   9.598   7.431
29143WAT     H187671   3.732   9.689   7.465
29143WAT     H287672   3.784   9.536   7.444
29144WAT      O87673   1.523   3.349   0.225
29144WAT     H187674   1.613   3.392   0.224
29144WAT     H287675   1.469   3.388   0.299
29145WAT      O87676   8.549   6.404   9.233
29145WAT     H187677   8.558   6.310   9.201
29145WAT     H287678   8.639   6.440   9.257
29146WAT      O87679   0.174   2.452   8.536
29146WAT     H187680   0.093   2.492   8.578
29146WAT     H287681   0.255   2.471   8.592
29147WAT      O87682   8.214   7.764   2.447
29147WAT     H187683   8.261   7.741   2.361
29147WAT     H287684   8.164   7.850   2.435
29148WAT      O87685   8.480   4.555   3.390
29148WAT     H187686   8.464   4.563   3.489
29148WAT     H287687   8.572   4.588   3.369
29149WAT      O87688   0.946   5.014   4.770
29149WAT     H187689   1.000   5.071   4.832
29149WAT     H287690   0.917   5.069   4.691
29150WAT      O87691   8.087   6.977   4.798
29150WAT     H187692   8.086   6.984   4.898
29150WAT     H287693   8.120   7.063   4.759
29151WAT      O87694   8.837   5.006   9.448
29151WAT     H187695   8.738   5.000   9.460
29151WAT     H287696   8.865   5.102   9.453
29152WAT      O87697   9.821   9.711   8.732
29152WAT     H187698   9.812   9.809   8.745
29152WAT     H287699   9.883   9.673   8.800
29153WAT      O87700   0.858   2.423   0.895
29153WAT     H187701   0.857   2.521   0.875
29153WAT     H287702   0.946   2.384   0.869
29154WAT      O87703   3.031   7.929   9.869
29154WAT     H187704   3.091   7.849   9.872
29154WAT     H287705   3.026   7.971   9.960
29155WAT      O87706   9.033   0.857   1.903
29155WAT     H187707   9.052   0.913   1.984
29155WAT     H287708   8.977   0.909   1.839
29156WAT      O87709   4.550   4.853   0.535
29156WAT     H187710   4.477   4.807   0.484
29156WAT     H287711   4.541   4.831   0.632
29157WAT      O87712   9.841   5.930   8.120
29157WAT     H187713   9.802   5.851   8.074
29157WAT     H287714   9.782   5.955   8.198
29158WAT      O87715   0.702   2.646   8.059
29158WAT     H187716   0.606   2.631   8.082
29158WAT     H287717   0.731   2.577   7.992
29159WAT      O87718   7.236   7.927   1.246
29159WAT     H187719   7.196   7.839   1.272
29159WAT     H287720   7.333   7.928   1.272
29160WAT      O87721   2.202   7.546   0.064
29160WAT     H187722   2.218   7.456   0.024
29160WAT     H287723   2.289   7.592   0.079
29161WAT      O87724   9.792   3.846   5.275
29161WAT     H187725   9.864   3.890   5.221
29161WAT     H287726   9.705   3.851   5.226
29162WAT      O87727   5.310   6.855   7.701
29162WAT     H187728   5.361   6.932   7.661
29162WAT     H287729   5.247   6.818   7.633
29163WAT      O87730   6.387   5.489   0.504
29163WAT     H187731   6.474   5.487   0.454
29163WAT     H287732   6.314   5.517   0.442
29164WAT      O87733   2.924   9.152   0.113
29164WAT     H187734   2.826   9.137   0.122
29164WAT     H287735   2.947   9.245   0.145
29165WAT      O87736   8.543   8.615   6.155
29165WAT     H187737   8.476   8.688   6.165
29165WAT     H287738   8.579   8.590   6.245
29166WAT      O87739   4.953   6.016   8.855
29166WAT     H187740   4.895   6.097   8.854
29166WAT     H287741   5.048   6.042   8.837
29167WAT      O87742   6.347   5.251   6.416
29167WAT     H187743   6.288   5.310   6.361
29167WAT     H287744   6.371   5.297   6.501
29168WAT      O87745   7.571   5.135   2.986
29168WAT     H187746   7.574   5.042   3.020
29168WAT     H287747   7.644   5.149   2.920
29169WAT      O87748   6.960   6.350   8.562
29169WAT     H187749   6.883   6.290   8.586
29169WAT     H287750   7.021   6.358   8.641
29170WAT      O87751   6.313   8.707   5.629
29170WAT     H187752   6.391   8.663   5.673
29170WAT     H287753   6.319   8.806   5.642
29171WAT      O87754   9.420   1.545   2.773
29171WAT     H187755   9.481   1.566   2.697
29171WAT     H287756   9.464   1.479   2.834
29172WAT      O87757   3.197   3.219   6.162
29172WAT     H187758   3.280   3.181   6.122
29172WAT     H287759   3.158   3.154   6.227
29173WAT      O87760   2.027   3.580   2.763
29173WAT     H187761   2.107   3.594   2.820
29173WAT     H287762   1.944   3.591   2.819
29174WAT      O87763   1.856   4.623   3.418
29174WAT     H187764   1.833   4.619   3.515
29174WAT     H287765   1.777   4.598   3.363
29175WAT      O87766   4.736   1.949   5.637
29175WAT     H187767   4.703   1.856   5.651
29175WAT     H287768   4.794   1.976   5.713
29176WAT      O87769   9.285   4.524   1.245
29176WAT     H187770   9.327   4.603   1.200
29176WAT     H287771   9.190   4.515   1.215
29177WAT      O87772   6.574   2.563   7.169
29177WAT     H187773   6.522   2.620   7.107
29177WAT     H287774   6.530   2.562   7.259
29178WAT      O87775   4.443   4.076   3.090
29178WAT     H187776   4.479   4.157   3.044
29178WAT     H287777   4.464   4.081   3.187
29179WAT      O87778   5.325   4.454   3.405
29179WAT     H187779   5.261   4.462   3.482
29179WAT     H287780   5.390   4.381   3.424
29180WAT      O87781   1.819   8.038   1.012
29180WAT     H187782   1.782   7.964   1.068
29180WAT     H287783   1.919   8.036   1.017
29181WAT      O87784   0.230   9.030   6.591
29181WAT     H187785   0.293   8.985   6.528
29181WAT     H287786   0.238   9.129   6.582
29182WAT      O87787   8.670   1.120   5.851
29182WAT     H187788   8.705   1.058   5.922
29182WAT     H287789   8.579   1.090   5.823
29183WAT      O87790   0.238   0.308   2.217
29183WAT     H187791   0.330   0.271   2.208
29183WAT     H287792   0.171   0.242   2.183
29184WAT      O87793   3.861   8.872   1.655
29184WAT     H187794   3.913   8.957   1.666
29184WAT     H287795   3.920   8.802   1.614
29185WAT      O87796   6.666   1.678   4.992
29185WAT     H187797   6.594   1.609   4.999
29185WAT     H287798   6.686   1.695   4.896
29186WAT      O87799   5.244   1.633   7.543
29186WAT     H187800   5.151   1.617   7.512
29186WAT     H287801   5.308   1.591   7.479
29187WAT      O87802   6.765   0.604   1.173
29187WAT     H187803   6.783   0.673   1.103
29187WAT     H287804   6.791   0.639   1.263
29188WAT      O87805   7.093   7.832   7.089
29188WAT     H187806   7.007   7.807   7.133
29188WAT     H287807   7.160   7.858   7.158
29189WAT      O87808   1.244   3.692   8.588
29189WAT     H187809   1.241   3.651   8.497
29189WAT     H287810   1.267   3.622   8.656
29190WAT      O87811   1.563   3.965   7.080
29190WAT     H187812   1.531   3.894   7.017
29190WAT     H287813   1.484   4.018   7.112
29191WAT      O87814   6.737   4.626   1.370
29191WAT     H187815   6.714   4.586   1.281
29191WAT     H287816   6.659   4.618   1.431
29192WAT      O87817   7.404   2.323   4.661
29192WAT     H187818   7.325   2.264   4.646
29192WAT     H287819   7.386   2.384   4.738
29193WAT      O87820   5.623   3.967   0.818
29193WAT     H187821   5.539   4.016   0.799
29193WAT     H287822   5.662   3.999   0.905
29194WAT      O87823   6.731   6.834   8.131
29194WAT     H187824   6.727   6.907   8.199
29194WAT     H287825   6.800   6.856   8.063
29195WAT      O87826   1.729   5.927   3.421
29195WAT     H187827   1.805   5.863   3.420
29195WAT     H287828   1.750   6.003   3.483
29196WAT      O87829   4.929   3.945   7.400
29196WAT     H187830   4.953   3.856   7.361
29196WAT     H287831   4.883   4.000   7.331
29197WAT      O87832   1.571   3.916   9.379
29197WAT     H187833   1.600   4.001   9.334
29197WAT     H287834   1.652   3.868   9.414
29198WAT      O87835   4.546   4.255   4.415
29198WAT     H187836   4.510   4.204   4.337
29198WAT     H287837   4.605   4.329   4.382
29199WAT      O87838   9.791   3.037   2.044
29199WAT     H187839   9.881   3.007   2.076
29199WAT     H287840   9.758   2.973   1.974
29200WAT      O87841   8.654   7.879   9.461
29200WAT     H187842   8.618   7.827   9.384
29200WAT     H287843   8.750   7.855   9.475
29201WAT      O87844   6.802   3.529   2.105
29201WAT     H187845   6.768   3.435   2.105
29201WAT     H287846   6.791   3.567   2.197
29202WAT      O87847   0.120   1.949   6.968
29202WAT     H187848   0.045   1.961   6.903
29202WAT     H287849   0.084   1.938   7.060
29203WAT      O87850   7.778   2.870   5.607
29203WAT     H187851   7.721   2.952   5.615
29203WAT     H287852   7.720   2.790   5.597
29204WAT      O87853   1.301   5.119   4.644
29204WAT     H187854   1.399   5.099   4.655
29204WAT     H287855   1.254   5.107   4.731
29205WAT      O87856   1.633   3.081   3.227
29205WAT     H187857   1.547   3.122   3.257
29205WAT     H287858   1.709   3.143   3.250
29206WAT      O87859   0.159   1.914   4.235
29206WAT     H187860   0.189   1.922   4.140
29206WAT     H287861   0.102   1.832   4.245
29207WAT      O87862   3.962   8.276   3.523
29207WAT     H187863   4.048   8.293   3.570
29207WAT     H287864   3.891   8.252   3.589
29208WAT      O87865   5.768   8.454   1.733
29208WAT     H187866   5.838   8.524   1.738
29208WAT     H287867   5.781   8.398   1.651
29209WAT      O87868   8.625   0.769   7.803
29209WAT     H187869   8.579   0.850   7.838
29209WAT     H287870   8.648   0.782   7.707
29210WAT      O87871   3.375   9.389   6.617
29210WAT     H187872   3.283   9.421   6.640
29210WAT     H287873   3.378   9.365   6.520
29211WAT      O87874   6.763   8.232   8.041
29211WAT     H187875   6.814   8.317   8.054
29211WAT     H287876   6.782   8.170   8.116
29212WAT      O87877   0.267   5.153   3.859
29212WAT     H187878   0.336   5.185   3.925
29212WAT     H287879   0.310   5.141   3.770
29213WAT      O87880   7.672   2.954   2.938
29213WAT     H187881   7.631   2.926   2.851
29213WAT     H287882   7.659   2.881   3.006
29214WAT      O87883   1.636   9.056   4.040
29214WAT     H187884   1.557   9.116   4.048
29214WAT     H287885   1.707   9.083   4.105
29215WAT      O87886   8.178   3.620   0.229
29215WAT     H187887   8.269   3.661   0.223
29215WAT     H287888   8.113   3.676   0.178
29216WAT      O87889   6.445   4.756   1.837
29216WAT     H187890   6.490   4.667   1.850
29216WAT     H287891   6.513   4.829   1.846
29217WAT      O87892   9.395   8.967   3.631
29217WAT     H187893   9.339   8.923   3.702
29217WAT     H287894   9.358   8.945   3.541
29218WAT      O87895   5.125   6.474   7.153
29218WAT     H187896   5.223   6.459   7.144
29218WAT     H287897   5.107   6.569   7.175
29219WAT      O87898   1.952   4.330   4.906
29219WAT     H187899   1.961   4.392   4.828
29219WAT     H287900   1.983   4.238   4.878
29220WAT      O87901   9.025   0.668   2.724
29220WAT     H187902   9.093   0.710   2.664
29220WAT     H287903   8.967   0.739   2.764
29221WAT      O87904   1.978   9.680   8.004
29221WAT     H187905   2.011   9.617   7.934
29221WAT     H287906   1.926   9.754   7.960
29222WAT      O87907   8.941   4.808   5.624
29222WAT     H187908   9.007   4.808   5.550
29222WAT     H287909   8.988   4.818   5.712
29223WAT      O87910   1.878   5.769   5.086
29223WAT     H187911   1.933   5.797   5.165
29223WAT     H287912   1.845   5.850   5.038
29224WAT      O87913   8.612   1.860   4.970
29224WAT     H187914   8.554   1.780   4.985
29224WAT     H287915   8.703   1.842   5.007
29225WAT      O87916   4.595   5.926   2.474
29225WAT     H187917   4.592   5.829   2.448
29225WAT     H287918   4.679   5.967   2.440
29226WAT      O87919   2.680   7.424   7.116
29226WAT     H187920   2.608   7.421   7.186
29226WAT     H287921   2.747   7.353   7.135
29227WAT      O87922   6.370   1.511   0.167
29227WAT     H187923   6.401   1.532   0.074
29227WAT     H287924   6.424   1.436   0.204
29228WAT      O87925   6.466   6.687   6.851
29228WAT     H187926   6.507   6.774   6.823
29228WAT     H287927   6.530   6.613   6.831
29229WAT      O87928   7.248   5.776   5.627
29229WAT     H187929   7.223   5.840   5.555
29229WAT     H287930   7.263   5.826   5.712
29230WAT      O87931   3.982   9.274   0.621
29230WAT     H187932   3.992   9.308   0.714
29230WAT     H287933   4.069   9.236   0.590
29231WAT      O87934   3.613   7.823   6.335
29231WAT     H187935   3.638   7.789   6.244
29231WAT     H287936   3.696   7.833   6.390
29232WAT      O87937   0.114   9.672   3.895
29232WAT     H187938   0.077   9.625   3.976
29232WAT     H287939   0.214   9.673   3.900
29233WAT      O87940   0.566   5.969   8.143
29233WAT     H187941   0.474   5.936   8.164
29233WAT     H287942   0.609   5.908   8.076
29234WAT      O87943   9.798   9.515   7.231
29234WAT     H187944   9.851   9.494   7.313
29234WAT     H287945   9.706   9.543   7.257
29235WAT      O87946   6.992   4.742   9.575
29235WAT     H187947   6.996   4.665   9.512
29235WAT     H287948   7.018   4.711   9.667
29236WAT      O87949   8.203   0.613   5.782
29236WAT     H187950   8.163   0.562   5.705
29236WAT     H287951   8.229   0.549   5.854
29237WAT      O87952   4.600   2.140   5.526
29237WAT     H187953   4.632   2.057   5.571
29237WAT     H287954   4.648   2.151   5.439
29238WAT      O87955   4.699   4.437   4.304
29238WAT     H187956   4.789   4.426   4.346
29238WAT     H287957   4.710   4.458   4.207
29239WAT      O87958   9.380   4.286   1.108
29239WAT     H187959   9.433   4.308   1.025
29239WAT     H287960   9.353   4.370   1.154
29240WAT      O87961   3.464   7.476   2.447
29240WAT     H187962   3.366   7.476   2.431
29240WAT     H287963   3.501   7.568   2.434
29241WAT      O87964   7.080   3.875   1.163
29241WAT     H187965   7.070   3.867   1.262
29241WAT     H287966   7.039   3.795   1.119
29242WAT      O87967   9.320   8.657   6.147
29242WAT     H187968   9.243   8.718   6.129
29242WAT     H287969   9.390   8.705   6.201
29243WAT      O87970   0.937   7.362   8.423
29243WAT     H187971   0.893   7.401   8.504
29243WAT     H287972   0.937   7.262   8.430
29244WAT      O87973   7.575   1.165   3.238
29244WAT     H187974   7.579   1.197   3.144
29244WAT     H287975   7.611   1.235   3.300
29245WAT      O87976   2.317   5.439   2.755
29245WAT     H187977   2.372   5.403   2.831
29245WAT     H287978   2.376   5.492   2.694
29246WAT      O87979   5.904   7.691   3.586
29246WAT     H187980   5.923   7.731   3.497
29246WAT     H287981   5.911   7.762   3.657
29247WAT      O87982   0.090   1.406   7.975
29247WAT     H187983   0.189   1.400   7.983
29247WAT     H287984   0.052   1.445   8.059
29248WAT      O87985   5.366   1.173   1.704
29248WAT     H187986   5.410   1.259   1.731
29248WAT     H287987   5.267   1.182   1.715
29249WAT      O87988   5.022   4.948   7.062
29249WAT     H187989   5.111   4.980   7.029
29249WAT     H287990   5.034   4.864   7.115
29250WAT      O87991   9.338   8.477   6.751
29250WAT     H187992   9.250   8.434   6.770
29250WAT     H287993   9.350   8.487   6.652
29251WAT      O87994   5.541   3.575   9.605
29251WAT     H187995   5.510   3.632   9.529
29251WAT     H287996   5.604   3.627   9.662
29252WAT      O87997   4.850   1.061   1.057
29252WAT     H187998   4.756   1.030   1.074
29252WAT     H287999   4.896   1.077   1.144
29253WAT      O88000   4.878   1.614   5.779
29253WAT     H188001   4.871   1.525   5.825
29253WAT     H288002   4.929   1.603   5.694
29254WAT      O88003   5.187   5.356   5.350
29254WAT     H188004   5.276   5.312   5.341
29254WAT     H288005   5.167   5.409   5.267
29255WAT      O88006   5.992   4.809   5.446
29255WAT     H188007   6.075   4.838   5.399
29255WAT     H288008   6.016   4.748   5.521
29256WAT      O88009   9.659   3.060   5.165
29256WAT     H188010   9.650   3.020   5.074
29256WAT     H288011   9.755   3.082   5.183
29257WAT      O88012   8.156   7.160   8.499
29257WAT     H188013   8.170   7.258   8.501
29257WAT     H288014   8.205   7.120   8.421
29258WAT      O88015   0.609   9.555   4.901
29258WAT     H188016   0.569   9.489   4.964
29258WAT     H288017   0.594   9.525   4.807
29259WAT      O88018   5.070   5.913   7.342
29259WAT     H188019   5.114   5.827   7.320
29259WAT     H288020   5.043   5.960   7.258
29260WAT      O88021   7.000   4.331   4.609
29260WAT     H188022   7.051   4.245   4.611
29260WAT     H288023   6.909   4.316   4.648
29261WAT      O88024   5.305   4.220   1.000
29261WAT     H188025   5.342   4.177   0.917
29261WAT     H288026   5.225   4.275   0.976
29262WAT      O88027   1.851   3.102   0.071
29262WAT     H188028   1.783   3.135   0.137
29262WAT     H288029   1.839   3.003   0.058
29263WAT      O88030   1.834   6.803   0.385
29263WAT     H188031   1.785   6.753   0.314
29263WAT     H288032   1.778   6.807   0.468
29264WAT      O88033   7.578   0.782   6.195
29264WAT     H188034   7.636   0.817   6.121
29264WAT     H288035   7.505   0.726   6.156
29265WAT      O88036   5.990   4.284   3.246
29265WAT     H188037   5.950   4.352   3.185
29265WAT     H288038   5.917   4.243   3.302
29266WAT      O88039   2.787   0.223   5.292
29266WAT     H188040   2.743   0.300   5.339
29266WAT     H288041   2.736   0.139   5.312
29267WAT      O88042   0.139   5.631   1.784
29267WAT     H188043   0.202   5.554   1.798
29267WAT     H288044   0.131   5.684   1.868
29268WAT      O88045   3.158   8.768   3.382
29268WAT     H188046   3.190   8.709   3.456
29268WAT     H288047   3.105   8.844   3.421
29269WAT      O88048   8.681   8.452   5.397
29269WAT     H188049   8.739   8.504   5.335
29269WAT     H288050   8.647   8.511   5.470
29270WAT      O88051   7.127   8.955   8.700
29270WAT     H188052   7.133   8.934   8.797
29270WAT     H288053   7.056   8.899   8.658
29271WAT      O88054   9.674   6.169   6.381
29271WAT     H188055   9.738   6.246   6.383
29271WAT     H288056   9.717   6.092   6.335
29272WAT      O88057   1.828   3.366   1.341
29272WAT     H188058   1.905   3.313   1.306
29272WAT     H288059   1.743   3.318   1.320
29273WAT      O88060   7.068   5.936   6.762
29273WAT     H188061   7.166   5.921   6.772
29273WAT     H288062   7.031   5.870   6.697
29274WAT      O88063   8.273   1.069   2.542
29274WAT     H188064   8.300   0.979   2.510
29274WAT     H288065   8.282   1.073   2.642
29275WAT      O88066   4.815   7.608   3.186
29275WAT     H188067   4.810   7.708   3.187
29275WAT     H288068   4.785   7.572   3.274
29276WAT      O88069   6.265   6.675   9.471
29276WAT     H188070   6.295   6.596   9.418
29276WAT     H288071   6.188   6.650   9.530
29277WAT      O88072   7.716   0.527   6.267
29277WAT     H188073   7.731   0.491   6.175
29277WAT     H288074   7.673   0.617   6.261
29278WAT      O88075   4.869   2.490   1.497
29278WAT     H188076   4.776   2.455   1.508
29278WAT     H288077   4.901   2.469   1.404
29279WAT      O88078   5.270   3.467   2.731
29279WAT     H188079   5.296   3.492   2.638
29279WAT     H288080   5.212   3.386   2.729
29280WAT      O88081   2.167   5.063   1.819
29280WAT     H188082   2.072   5.051   1.847
29280WAT     H288083   2.174   5.144   1.760
29281WAT      O88084   9.619   0.332   1.711
29281WAT     H188085   9.657   0.242   1.733
29281WAT     H288086   9.556   0.361   1.783
29282WAT      O88087   8.132   5.713   9.220
29282WAT     H188088   8.136   5.630   9.275
29282WAT     H288089   8.143   5.793   9.279
29283WAT      O88090   0.427   1.078   4.616
29283WAT     H188091   0.442   1.164   4.568
29283WAT     H288092   0.508   1.056   4.672
29284WAT      O88093   1.477   9.199   2.133
29284WAT     H188094   1.387   9.234   2.159
29284WAT     H288095   1.494   9.113   2.182
29285WAT      O88096   1.969   5.458   1.775
29285WAT     H188097   1.959   5.505   1.687
29285WAT     H288098   2.060   5.475   1.812
29286WAT      O88099   4.646   3.908   2.821
29286WAT     H188100   4.743   3.886   2.808
29286WAT     H288101   4.590   3.838   2.775
29287WAT      O88102   3.742   3.060   1.955
29287WAT     H188103   3.662   3.077   2.012
29287WAT     H288104   3.823   3.097   2.000
29288WAT      O88105   6.701   4.223   1.184
29288WAT     H188106   6.629   4.154   1.192
29288WAT     H288107   6.777   4.200   1.244
29289WAT      O88108   5.462   2.108   0.010
29289WAT     H188109   5.553   2.148  -0.004
29289WAT     H288110   5.403   2.134  -0.066
29290WAT      O88111   6.062   8.819   3.102
29290WAT     H188112   6.022   8.740   3.056
29290WAT     H288113   6.161   8.811   3.103
29291WAT      O88114   7.486   7.587   4.774
29291WAT     H188115   7.473   7.494   4.740
29291WAT     H288116   7.397   7.626   4.798
29292WAT      O88117   0.930   5.260   6.278
29292WAT     H188118   0.930   5.201   6.359
29292WAT     H288119   0.837   5.266   6.241
29293WAT      O88120   5.762   6.881   6.872
29293WAT     H188121   5.724   6.936   6.946
29293WAT     H288122   5.719   6.790   6.872
29294WAT      O88123   8.781   3.390   1.931
29294WAT     H188124   8.761   3.488   1.930
29294WAT     H288125   8.853   3.370   1.864
29295WAT      O88126   9.849   8.699   7.109
29295WAT     H188127   9.843   8.681   7.207
29295WAT     H288128   9.780   8.766   7.083
29296WAT      O88129   8.715   8.165   9.212
29296WAT     H188130   8.744   8.098   9.143
29296WAT     H288131   8.625   8.140   9.246
29297WAT      O88132   4.544   0.618   3.704
29297WAT     H188133   4.532   0.570   3.617
29297WAT     H288134   4.504   0.709   3.698
29298WAT      O88135   2.493   6.903   0.143
29298WAT     H188136   2.518   6.900   0.239
29298WAT     H288137   2.413   6.844   0.128
29299WAT      O88138   6.325   3.794   0.352
29299WAT     H188139   6.403   3.856   0.359
29299WAT     H288140   6.272   3.797   0.437
29300WAT      O88141   5.650   0.367   0.544
29300WAT     H188142   5.566   0.359   0.599
29300WAT     H288143   5.697   0.279   0.542
29301WAT      O88144   1.701   6.729   0.115
29301WAT     H188145   1.769   6.664   0.081
29301WAT     H288146   1.665   6.696   0.202
29302WAT      O88147   4.598   4.035   0.870
29302WAT     H188148   4.536   3.982   0.929
29302WAT     H288149   4.644   4.105   0.925
29303WAT      O88150   6.968   2.423   1.474
29303WAT     H188151   7.059   2.466   1.472
29303WAT     H288152   6.941   2.406   1.569
29304WAT      O88153   3.346   4.769   8.989
29304WAT     H188154   3.263   4.825   8.989
29304WAT     H288155   3.391   4.776   8.900
29305WAT      O88156   3.286   8.271   7.444
29305WAT     H188157   3.316   8.328   7.367
29305WAT     H288158   3.358   8.266   7.512
29306WAT      O88159   9.539   7.260   6.000
29306WAT     H188160   9.555   7.305   5.912
29306WAT     H288161   9.464   7.305   6.048
29307WAT      O88162   7.697   9.755   5.653
29307WAT     H188163   7.663   9.831   5.597
29307WAT     H288164   7.673   9.771   5.748
29308WAT      O88165   0.199   7.406   1.098
29308WAT     H188166   0.197   7.439   1.192
29308WAT     H288167   0.111   7.425   1.055
29309WAT      O88168   9.000   4.666   5.185
29309WAT     H188169   9.042   4.715   5.261
29309WAT     H288170   9.035   4.702   5.099
29310WAT      O88171   4.300   6.662   7.819
29310WAT     H188172   4.281   6.749   7.772
29310WAT     H288173   4.216   6.627   7.859
29311WAT      O88174   6.654   6.304   3.124
29311WAT     H188175   6.571   6.359   3.133
29311WAT     H288176   6.635   6.224   3.067
29312WAT      O88177   7.661   8.406   6.415
29312WAT     H188178   7.727   8.406   6.339
29312WAT     H288179   7.617   8.496   6.420
29313WAT      O88180   7.032   4.672   4.382
29313WAT     H188181   7.090   4.681   4.301
29313WAT     H288182   7.087   4.640   4.459
29314WAT      O88183   6.368   4.274   7.607
29314WAT     H188184   6.450   4.283   7.549
29314WAT     H288185   6.339   4.365   7.637
29315WAT      O88186   2.074   9.517   0.311
29315WAT     H188187   1.980   9.539   0.337
29315WAT     H288188   2.117   9.598   0.271
29316WAT      O88189   1.886   5.295   1.235
29316WAT     H188190   1.832   5.237   1.173
29316WAT     H288191   1.834   5.309   1.319
29317WAT      O88192   4.617   5.196   4.367
29317WAT     H188193   4.638   5.238   4.455
29317WAT     H288194   4.611   5.096   4.378
29318WAT      O88195   4.724   6.921   3.565
29318WAT     H188196   4.777   6.971   3.633
29318WAT     H288197   4.764   6.936   3.475
29319WAT      O88198   5.471   1.667   2.072
29319WAT     H188199   5.475   1.582   2.125
29319WAT     H288200   5.518   1.654   1.985
29320WAT      O88201   4.427   8.753   1.072
29320WAT     H188202   4.353   8.819   1.064
29320WAT     H288203   4.510   8.798   1.106
29321WAT      O88204   6.992   9.721   4.740
29321WAT     H188205   7.034   9.649   4.795
29321WAT     H288206   6.965   9.683   4.651
29322WAT      O88207   9.645   7.484   0.271
29322WAT     H188208   9.559   7.484   0.221
29322WAT     H288209   9.704   7.412   0.235
29323WAT      O88210   8.936   3.966   5.042
29323WAT     H188211   8.914   3.945   5.137
29323WAT     H288212   8.881   3.908   4.981
29324WAT      O88213   1.680   6.231   7.223
29324WAT     H188214   1.610   6.271   7.282
29324WAT     H288215   1.768   6.275   7.240
29325WAT      O88216   8.223   0.257   4.843
29325WAT     H188217   8.254   0.175   4.893
29325WAT     H288218   8.299   0.293   4.789
29326WAT      O88219   3.100   4.593   3.979
29326WAT     H188220   3.177   4.642   3.938
29326WAT     H288221   3.099   4.609   4.078
29327WAT      O88222   5.163   4.857   0.231
29327WAT     H188223   5.147   4.857   0.330
29327WAT     H288224   5.248   4.905   0.211
29328WAT      O88225   7.632   7.161   3.533
29328WAT     H188226   7.714   7.110   3.561
29328WAT     H288227   7.553   7.127   3.583
29329WAT      O88228   7.882   4.380   3.823
29329WAT     H188229   7.842   4.362   3.734
29329WAT     H288230   7.812   4.416   3.885
29330WAT      O88231   0.064   3.246   8.376
29330WAT     H188232   0.140   3.238   8.311
29330WAT     H288233   0.100   3.264   8.467
29331WAT      O88234   4.546   0.554   4.873
29331WAT     H188235   4.450   0.528   4.881
29331WAT     H288236   4.575   0.545   4.778
29332WAT      O88237   8.337   5.302   9.488
29332WAT     H188238   8.298   5.335   9.574
29332WAT     H288239   8.409   5.236   9.507
29333WAT      O88240   5.310   5.381   3.644
29333WAT     H188241   5.384   5.327   3.684
29333WAT     H288242   5.224   5.359   3.691
29334WAT      O88243   9.525   5.970   7.771
29334WAT     H188244   9.566   6.040   7.830
29334WAT     H288245   9.547   5.991   7.676
29335WAT      O88246   0.764   4.803   8.753
29335WAT     H188247   0.855   4.827   8.721
29335WAT     H288248   0.695   4.851   8.699
29336WAT      O88249   7.285   5.530   4.892
29336WAT     H188250   7.190   5.499   4.897
29336WAT     H288251   7.289   5.615   4.841
29337WAT      O88252   6.818   0.432   6.419
29337WAT     H188253   6.852   0.461   6.330
29337WAT     H288254   6.766   0.507   6.461
29338WAT      O88255   1.011   4.261   5.062
29338WAT     H188256   1.051   4.283   5.151
29338WAT     H288257   0.921   4.304   5.054
29339WAT      O88258   4.629   2.954   4.505
29339WAT     H188259   4.543   2.978   4.459
29339WAT     H288260   4.626   2.858   4.531
29340WAT      O88261   9.845   0.867   0.496
29340WAT     H188262   9.824   0.907   0.586
29340WAT     H288263   9.780   0.793   0.478
29341WAT      O88264   2.008   0.024   2.054
29341WAT     H188265   1.958   0.105   2.024
29341WAT     H288266   1.944  -0.042   2.093
29342WAT      O88267   6.017   8.104   3.097
29342WAT     H188268   5.958   8.051   3.037
29342WAT     H288269   5.964   8.177   3.140
29343WAT      O88270   3.616   9.195   1.389
29343WAT     H188271   3.673   9.113   1.380
29343WAT     H288272   3.611   9.241   1.300
29344WAT      O88273   2.050   1.931   6.364
29344WAT     H188274   2.147   1.938   6.343
29344WAT     H288275   1.996   1.951   6.282
29345WAT      O88276   1.741   4.967   7.522
29345WAT     H188277   1.651   4.936   7.552
29345WAT     H288278   1.770   5.044   7.578
29346WAT      O88279   6.331   8.378   8.148
29346WAT     H188280   6.394   8.339   8.080
29346WAT     H288281   6.298   8.466   8.115
29347WAT      O88282   5.413   9.477   7.070
29347WAT     H188283   5.465   9.560   7.052
29347WAT     H288284   5.319   9.488   7.038
29348WAT      O88285   3.504   4.040   8.613
29348WAT     H188286   3.518   4.133   8.647
29348WAT     H288287   3.581   4.012   8.557
29349WAT      O88288   2.959   0.151   6.475
29349WAT     H188289   3.008   0.128   6.559
29349WAT     H288290   3.024   0.181   6.406
29350WAT      O88291   3.549   6.147   7.267
29350WAT     H188292   3.508   6.148   7.175
29350WAT     H288293   3.648   6.134   7.258
29351WAT      O88294   8.362   7.348   9.030
29351WAT     H188295   8.364   7.435   9.080
29351WAT     H288296   8.293   7.353   8.957
29352WAT      O88297   2.660   5.984   0.726
29352WAT     H188298   2.692   6.010   0.817
29352WAT     H288299   2.716   6.029   0.657
29353WAT      O88300   7.932   2.281   6.301
29353WAT     H188301   7.856   2.326   6.348
29353WAT     H288302   7.901   2.194   6.263
29354WAT      O88303   4.639   0.734   6.336
29354WAT     H188304   4.670   0.734   6.240
29354WAT     H288305   4.609   0.827   6.360
29355WAT      O88306   0.432   7.364   3.719
29355WAT     H188307   0.509   7.312   3.681
29355WAT     H288308   0.435   7.458   3.683
29356WAT      O88309   4.217   1.363   3.232
29356WAT     H188310   4.277   1.316   3.166
29356WAT     H288311   4.244   1.458   3.239
29357WAT      O88312   0.323   4.061   5.863
29357WAT     H188313   0.245   4.100   5.913
29357WAT     H288314   0.320   4.091   5.768
29358WAT      O88315   5.611   7.029   6.276
29358WAT     H188316   5.575   7.040   6.368
29358WAT     H288317   5.708   7.007   6.279
29359WAT      O88318   5.645   3.297   1.529
29359WAT     H188319   5.688   3.327   1.614
29359WAT     H288320   5.560   3.348   1.514
29360WAT      O88321   5.369   3.697   7.887
29360WAT     H188322   5.390   3.660   7.978
29360WAT     H288323   5.385   3.627   7.818
29361WAT      O88324   7.009   8.082   3.473
29361WAT     H188325   7.017   8.126   3.562
29361WAT     H288326   7.036   8.146   3.401
29362WAT      O88327   4.233   1.990   7.697
29362WAT     H188328   4.189   1.951   7.617
29362WAT     H288329   4.226   1.927   7.774
29363WAT      O88330   5.670   7.626   3.245
29363WAT     H188331   5.587   7.585   3.280
29363WAT     H288332   5.745   7.613   3.310
29364WAT      O88333   7.415   8.484   5.865
29364WAT     H188334   7.319   8.507   5.880
29364WAT     H288335   7.429   8.456   5.770
29365WAT      O88336   7.067   4.622   3.062
29365WAT     H188337   7.015   4.567   2.997
29365WAT     H288338   7.142   4.668   3.013
29366WAT      O88339   8.642   2.564   6.981
29366WAT     H188340   8.584   2.578   7.060
29366WAT     H288341   8.586   2.549   6.900
29367WAT      O88342   4.574   3.218   8.568
29367WAT     H188343   4.600   3.201   8.473
29367WAT     H288344   4.562   3.131   8.616
29368WAT      O88345   6.430   6.752   3.200
29368WAT     H188346   6.335   6.750   3.170
29368WAT     H288347   6.436   6.794   3.290
29369WAT      O88348   9.760   6.298   3.294
29369WAT     H188349   9.799   6.358   3.224
29369WAT     H288350   9.698   6.232   3.252
29370WAT      O88351   6.612   4.319   7.536
29370WAT     H188352   6.594   4.370   7.619
29370WAT     H288353   6.682   4.366   7.481
29371WAT      O88354   4.747   3.477   0.191
29371WAT     H188355   4.687   3.504   0.115
29371WAT     H288356   4.819   3.418   0.156
29372WAT      O88357   3.737   4.796   6.006
29372WAT     H188358   3.815   4.805   5.944
29372WAT     H288359   3.689   4.711   5.986
29373WAT      O88360   5.804   5.557   3.351
29373WAT     H188361   5.816   5.563   3.252
29373WAT     H288362   5.708   5.535   3.371
29374WAT      O88363   6.858   7.814   5.616
29374WAT     H188364   6.900   7.731   5.655
29374WAT     H288365   6.897   7.894   5.660
29375WAT      O88366   3.353   3.600   8.559
29375WAT     H188367   3.398   3.559   8.638
29375WAT     H288368   3.364   3.541   8.479
29376WAT      O88369   5.446   1.185   4.057
29376WAT     H188370   5.426   1.098   4.103
29376WAT     H288371   5.520   1.232   4.106
29377WAT      O88372   5.588   1.879   2.930
29377WAT     H188373   5.628   1.862   3.020
29377WAT     H288374   5.565   1.976   2.920
29378WAT      O88375   7.816   0.346   3.444
29378WAT     H188376   7.877   0.334   3.523
29378WAT     H288377   7.746   0.275   3.444
29379WAT      O88378   0.648   5.896   1.082
29379WAT     H188379   0.565   5.946   1.059
29379WAT     H288380   0.638   5.853   1.172
29380WAT      O88381   3.604   0.346   1.666
29380WAT     H188382   3.538   0.287   1.711
29380WAT     H288383   3.677   0.371   1.730
29381WAT      O88384   4.513   6.906   0.442
29381WAT     H188385   4.565   6.871   0.364
29381WAT     H288386   4.469   6.993   0.416
29382WAT      O88387   3.943   4.856   1.396
29382WAT     H188388   3.985   4.767   1.379
29382WAT     H288389   3.856   4.843   1.445
29383WAT      O88390   2.726   2.091   3.773
29383WAT     H188391   2.638   2.138   3.781
29383WAT     H288392   2.717   1.999   3.810
29384WAT      O88393   0.155   4.822   5.239
29384WAT     H188394   0.240   4.796   5.192
29384WAT     H288395   0.077   4.807   5.178
29385WAT      O88396   3.681   4.731   4.007
29385WAT     H188397   3.604   4.680   3.969
29385WAT     H288398   3.766   4.681   3.987
29386WAT      O88399   6.472   1.346   1.796
29386WAT     H188400   6.508   1.428   1.842
29386WAT     H288401   6.441   1.281   1.865
29387WAT      O88402   3.531   8.670   9.284
29387WAT     H188403   3.570   8.587   9.325
29387WAT     H288404   3.602   8.739   9.274
29388WAT      O88405   3.733   1.817   2.998
29388WAT     H188406   3.649   1.763   3.001
29388WAT     H288407   3.736   1.879   3.077
29389WAT      O88408   2.477   7.712   2.994
29389WAT     H188409   2.529   7.647   3.050
29389WAT     H288410   2.435   7.664   2.917
29390WAT      O88411   3.935   4.067   5.496
29390WAT     H188412   3.935   4.163   5.469
29390WAT     H288413   3.934   4.059   5.595
29391WAT      O88414   3.275   3.674   4.799
29391WAT     H188415   3.371   3.665   4.825
29391WAT     H288416   3.251   3.770   4.791
29392WAT      O88417   3.892   4.129   9.559
29392WAT     H188418   3.886   4.173   9.649
29392WAT     H288419   3.989   4.116   9.535
29393WAT      O88420   7.393   6.996   3.611
29393WAT     H188421   7.305   7.014   3.655
29393WAT     H288422   7.391   6.906   3.567
29394WAT      O88423   9.285   1.910   4.329
29394WAT     H188424   9.268   1.831   4.270
29394WAT     H288425   9.224   1.906   4.408
29395WAT      O88426   4.373   3.680   7.817
29395WAT     H188427   4.460   3.730   7.819
29395WAT     H288428   4.298   3.745   7.826
29396WAT      O88429   2.376   8.126   5.029
29396WAT     H188430   2.310   8.201   5.030
29396WAT     H288431   2.332   8.044   4.991
29397WAT      O88432   6.571   2.275   7.567
29397WAT     H188433   6.495   2.326   7.527
29397WAT     H288434   6.637   2.340   7.606
29398WAT      O88435   5.751   8.863   2.958
29398WAT     H188436   5.669   8.895   3.006
29398WAT     H288437   5.761   8.913   2.872
29399WAT      O88438   3.314   3.802   5.157
29399WAT     H188439   3.379   3.839   5.091
29399WAT     H288440   3.317   3.702   5.155
29400WAT      O88441   0.124   9.478   3.688
29400WAT     H188442   0.079   9.567   3.698
29400WAT     H288443   0.128   9.433   3.777
29401WAT      O88444   3.027   9.811   2.388
29401WAT     H188445   3.049   9.743   2.318
29401WAT     H288446   3.109   9.834   2.440
29402WAT      O88447   5.379   0.554   1.729
29402WAT     H188448   5.467   0.558   1.680
29402WAT     H288449   5.374   0.629   1.795
29403WAT      O88450   5.189   2.552   0.014
29403WAT     H188451   5.208   2.530  -0.082
29403WAT     H288452   5.239   2.635   0.040
29404WAT      O88453   2.040   6.189   6.559
29404WAT     H188454   2.103   6.181   6.481
29404WAT     H288455   2.078   6.141   6.638
29405WAT      O88456   0.374   1.780   0.093
29405WAT     H188457   0.453   1.812   0.145
29405WAT     H288458   0.374   1.823   0.003
29406WAT      O88459   6.661   1.157   3.247
29406WAT     H188460   6.724   1.145   3.324
29406WAT     H288461   6.676   1.085   3.179
29407WAT      O88462   4.674   7.701   5.758
29407WAT     H188463   4.723   7.777   5.715
29407WAT     H288464   4.693   7.701   5.856
29408WAT      O88465   1.415   0.748   4.423
29408WAT     H188466   1.361   0.811   4.367
29408WAT     H288467   1.373   0.738   4.513
29409WAT      O88468   3.782   3.568   8.140
29409WAT     H188469   3.778   3.610   8.231
29409WAT     H288470   3.876   3.544   8.119
29410WAT      O88471   5.892   5.648   4.487
29410WAT     H188472   5.959   5.644   4.414
29410WAT     H288473   5.931   5.612   4.571
29411WAT      O88474   8.810   5.776   7.884
29411WAT     H188475   8.811   5.746   7.789
29411WAT     H288476   8.869   5.717   7.939
29412WAT      O88477   6.542   5.757   0.804
29412WAT     H188478   6.497   5.680   0.759
29412WAT     H288479   6.516   5.759   0.901
29413WAT      O88480   9.709   4.153   5.048
29413WAT     H188481   9.669   4.063   5.063
29413WAT     H288482   9.693   4.211   5.128
29414WAT      O88483   0.359   5.522   8.850
29414WAT     H188484   0.441   5.575   8.830
29414WAT     H288485   0.332   5.536   8.945
29415WAT      O88486   9.712   6.800   2.205
29415WAT     H188487   9.726   6.832   2.298
29415WAT     H288488   9.758   6.862   2.141
29416WAT      O88489   7.753   4.523   7.682
29416WAT     H188490   7.734   4.446   7.742
29416WAT     H288491   7.738   4.496   7.587
29417WAT      O88492   9.069   8.402   6.715
29417WAT     H188493   9.062   8.501   6.713
29417WAT     H288494   9.060   8.366   6.622
29418WAT      O88495   3.550   8.457   9.038
29418WAT     H188496   3.534   8.378   9.096
29418WAT     H288497   3.481   8.527   9.059
29419WAT      O88498   3.521   6.113   9.873
29419WAT     H188499   3.451   6.167   9.825
29419WAT     H288500   3.610   6.158   9.864
29420WAT      O88501   0.984   1.123   4.078
29420WAT     H188502   0.901   1.069   4.088
29420WAT     H288503   1.060   1.063   4.052
29421WAT      O88504   5.996   5.614   5.223
29421WAT     H188505   6.093   5.620   5.198
29421WAT     H288506   5.971   5.692   5.281
29422WAT      O88507   2.565   4.051   9.255
29422WAT     H188508   2.577   4.070   9.158
29422WAT     H288509   2.631   4.105   9.308
29423WAT      O88510   8.067   0.989   4.049
29423WAT     H188511   7.991   0.936   4.086
29423WAT     H288512   8.055   1.086   4.070
29424WAT      O88513   2.436   7.202   7.082
29424WAT     H188514   2.366   7.130   7.086
29424WAT     H288515   2.526   7.160   7.074
29425WAT      O88516   1.850   8.075   8.455
29425WAT     H188517   1.788   8.001   8.429
29425WAT     H288518   1.848   8.088   8.554
29426WAT      O88519   9.679   7.801   7.406
29426WAT     H188520   9.655   7.713   7.448
29426WAT     H288521   9.616   7.820   7.331
29427WAT      O88522   6.259   4.040   3.856
29427WAT     H188523   6.287   3.968   3.794
29427WAT     H288524   6.159   4.050   3.853
29428WAT      O88525   0.966   0.810   2.596
29428WAT     H188526   0.958   0.851   2.686
29428WAT     H288527   0.875   0.795   2.558
29429WAT      O88528   5.559   4.218   1.114
29429WAT     H188529   5.475   4.175   1.080
29429WAT     H288530   5.637   4.159   1.096
29430WAT      O88531   9.027   1.157   7.372
29430WAT     H188532   8.952   1.113   7.322
29430WAT     H288533   9.003   1.252   7.391
29431WAT      O88534   6.149   8.554   4.143
29431WAT     H188535   6.170   8.501   4.226
29431WAT     H288536   6.232   8.562   4.087
29432WAT      O88537   9.492   3.646   9.656
29432WAT     H188538   9.500   3.581   9.581
29432WAT     H288539   9.398   3.679   9.662
29433WAT      O88540   4.999   0.512   4.321
29433WAT     H188541   5.024   0.416   4.332
29433WAT     H288542   4.927   0.520   4.251
29434WAT      O88543   5.807   7.278   4.172
29434WAT     H188544   5.906   7.284   4.188
29434WAT     H288545   5.781   7.341   4.099
29435WAT      O88546   4.378   7.076   4.362
29435WAT     H188547   4.332   7.081   4.274
29435WAT     H288548   4.429   6.990   4.369
29436WAT      O88549   8.024   5.844   4.166
29436WAT     H188550   7.965   5.919   4.197
29436WAT     H288551   7.973   5.758   4.171
29437WAT      O88552   5.531   7.942   4.191
29437WAT     H188553   5.519   8.040   4.206
29437WAT     H288554   5.470   7.912   4.118
29438WAT      O88555   1.218   1.081   6.207
29438WAT     H188556   1.251   1.001   6.157
29438WAT     H288557   1.280   1.157   6.191
29439WAT      O88558   9.000   4.885   8.915
29439WAT     H188559   8.949   4.822   8.857
29439WAT     H288560   8.982   4.863   9.011
29440WAT      O88561   8.142   2.715   6.154
29440WAT     H188562   8.166   2.621   6.129
29440WAT     H288563   8.043   2.725   6.156
29441WAT      O88564   5.958   9.154   3.503
29441WAT     H188565   5.970   9.083   3.434
29441WAT     H288566   5.889   9.219   3.472
29442WAT      O88567   1.262   2.554   7.827
29442WAT     H188568   1.209   2.639   7.817
29442WAT     H288569   1.344   2.559   7.770
29443WAT      O88570   0.425   5.917   4.703
29443WAT     H188571   0.515   5.958   4.684
29443WAT     H288572   0.373   5.908   4.618
29444WAT      O88573   7.461   8.327   7.985
29444WAT     H188574   7.418   8.243   7.951
29444WAT     H288575   7.523   8.305   8.060
29445WAT      O88576   8.635   0.886   6.350
29445WAT     H188577   8.730   0.869   6.378
29445WAT     H288578   8.576   0.815   6.388
29446WAT      O88579   6.695   9.196   0.781
29446WAT     H188580   6.738   9.287   0.780
29446WAT     H288581   6.687   9.165   0.876
29447WAT      O88582   3.227   4.386   7.330
29447WAT     H188583   3.142   4.356   7.286
29447WAT     H288584   3.273   4.453   7.272
29448WAT      O88585   2.549   0.600   6.939
29448WAT     H188586   2.452   0.625   6.935
29448WAT     H288587   2.592   0.619   6.850
29449WAT      O88588   7.882   8.717   4.937
29449WAT     H188589   7.940   8.787   4.979
29449WAT     H288590   7.874   8.639   4.999
29450WAT      O88591   1.804   7.613   9.817
29450WAT     H188592   1.810   7.708   9.785
29450WAT     H288593   1.753   7.610   9.903
29451WAT      O88594   2.800   6.674   2.028
29451WAT     H188595   2.740   6.605   1.987
29451WAT     H288596   2.751   6.721   2.102
29452WAT      O88597   6.113   6.162   5.930
29452WAT     H188598   6.157   6.123   6.011
29452WAT     H288599   6.037   6.103   5.902
29453WAT      O88600   7.879   8.502   1.940
29453WAT     H188601   7.947   8.557   1.890
29453WAT     H288602   7.787   8.535   1.918
29454WAT      O88603   9.363   2.346   0.411
29454WAT     H188604   9.315   2.403   0.478
29454WAT     H288605   9.446   2.393   0.380
29455WAT      O88606   2.443   6.315   3.213
29455WAT     H188607   2.437   6.410   3.244
29455WAT     H288608   2.522   6.305   3.152
29456WAT      O88609   7.109   2.782   4.983
29456WAT     H188610   7.097   2.752   5.078
29456WAT     H288611   7.050   2.861   4.966
29457WAT      O88612   6.611   2.110   7.321
29457WAT     H188613   6.624   2.174   7.245
29457WAT     H288614   6.619   2.160   7.407
29458WAT      O88615   4.647   2.623   2.389
29458WAT     H188616   4.568   2.560   2.391
29458WAT     H288617   4.715   2.592   2.455
29459WAT      O88618   0.755   7.479   3.860
29459WAT     H188619   0.718   7.416   3.929
29459WAT     H288620   0.831   7.434   3.812
29460WAT      O88621   3.137   3.658   2.193
29460WAT     H188622   3.223   3.629   2.235
29460WAT     H288623   3.155   3.735   2.130
29461WAT      O88624   1.502   1.270   1.851
29461WAT     H188625   1.548   1.201   1.794
29461WAT     H288626   1.557   1.353   1.853
29462WAT      O88627   2.659   2.254   8.267
29462WAT     H188628   2.706   2.172   8.299
29462WAT     H288629   2.712   2.335   8.291
29463WAT      O88630   4.401   2.034   5.158
29463WAT     H188631   4.428   1.949   5.203
29463WAT     H288632   4.463   2.054   5.083
29464WAT      O88633   5.015   6.196   7.739
29464WAT     H188634   4.951   6.154   7.804
29464WAT     H288635   4.991   6.170   7.646
29465WAT      O88636   0.241   5.973   5.659
29465WAT     H188637   0.193   6.030   5.593
29465WAT     H288638   0.249   5.880   5.623
29466WAT      O88639   4.868   0.025   8.685
29466WAT     H188640   4.906  -0.061   8.719
29466WAT     H288641   4.942   0.090   8.668
29467WAT      O88642   6.671   9.090   8.478
29467WAT     H188643   6.584   9.128   8.512
29467WAT     H288644   6.721   9.161   8.429
29468WAT      O88645   8.432   7.237   7.972
29468WAT     H188646   8.516   7.205   8.016
29468WAT     H288647   8.387   7.161   7.927
29469WAT      O88648   6.594   1.508   5.291
29469WAT     H188649   6.608   1.504   5.192
29469WAT     H288650   6.514   1.454   5.315
29470WAT      O88651   5.973   7.051   9.276
29470WAT     H188652   6.058   7.104   9.274
29470WAT     H288653   5.905   7.093   9.217
29471WAT      O88654   3.391   3.037   9.629
29471WAT     H188655   3.314   3.051   9.691
29471WAT     H288656   3.465   3.100   9.651
29472WAT      O88657   7.978   8.992   1.025
29472WAT     H188658   7.939   9.049   0.953
29472WAT     H288659   7.909   8.929   1.059
29473WAT      O88660   9.136   1.498   5.835
29473WAT     H188661   9.066   1.562   5.805
29473WAT     H288662   9.194   1.541   5.904
29474WAT      O88663   8.430   7.206   1.476
29474WAT     H188664   8.449   7.111   1.502
29474WAT     H288665   8.397   7.209   1.382
29475WAT      O88666   4.991   1.999   8.811
29475WAT     H188667   4.974   1.941   8.732
29475WAT     H288668   4.944   1.961   8.891
29476WAT      O88669   3.301   1.026   8.943
29476WAT     H188670   3.290   0.928   8.961
29476WAT     H288671   3.212   1.071   8.949
29477WAT      O88672   3.104   1.223   6.169
29477WAT     H188673   3.022   1.279   6.161
29477WAT     H288674   3.082   1.128   6.147
29478WAT      O88675   0.257   6.859   2.622
29478WAT     H188676   0.319   6.937   2.620
29478WAT     H288677   0.311   6.775   2.627
29479WAT      O88678   7.065   9.790   5.431
29479WAT     H188679   7.066   9.692   5.452
29479WAT     H288680   7.065   9.803   5.332
29480WAT      O88681   6.863   4.740   1.613
29480WAT     H188682   6.961   4.755   1.603
29480WAT     H288683   6.836   4.659   1.560
29481WAT      O88684   6.989   7.666   4.062
29481WAT     H188685   7.083   7.675   4.029
29481WAT     H288686   6.990   7.646   4.160
29482WAT      O88687   5.952   7.777   9.006
29482WAT     H188688   6.013   7.833   8.950
29482WAT     H288689   5.921   7.831   9.084
29483WAT      O88690   6.940   6.803   9.057
29483WAT     H188691   7.021   6.789   8.999
29483WAT     H288692   6.963   6.780   9.152
29484WAT      O88693   3.011   1.823   0.487
29484WAT     H188694   3.039   1.738   0.444
29484WAT     H288695   2.973   1.885   0.419
29485WAT      O88696   0.351   8.405   9.289
29485WAT     H188697   0.377   8.488   9.240
29485WAT     H288698   0.433   8.352   9.311
29486WAT      O88699   0.413   6.895   2.970
29486WAT     H188700   0.461   6.848   2.896
29486WAT     H288701   0.346   6.834   3.011
29487WAT      O88702   1.170   6.076   7.512
29487WAT     H188703   1.172   6.116   7.603
29487WAT     H288704   1.259   6.084   7.469
29488WAT      O88705   8.678   4.841   2.282
29488WAT     H188706   8.739   4.837   2.203
29488WAT     H288707   8.707   4.774   2.350
29489WAT      O88708   7.150   8.067   0.526
29489WAT     H188709   7.110   8.124   0.599
29489WAT     H288710   7.116   8.097   0.437
29490WAT      O88711   2.379   5.051   8.723
29490WAT     H188712   2.352   5.063   8.818
29490WAT     H288713   2.464   4.998   8.718
29491WAT      O88714   2.049   5.349   0.694
29491WAT     H188715   2.124   5.383   0.637
29491WAT     H288716   2.084   5.326   0.785
29492WAT      O88717   6.898   3.985   0.941
29492WAT     H188718   6.950   4.071   0.945
29492WAT     H288719   6.928   3.925   1.016
29493WAT      O88720   0.209   0.473   8.131
29493WAT     H188721   0.245   0.563   8.158
29493WAT     H288722   0.114   0.483   8.102
29494WAT      O88723   1.992   3.567   1.419
29494WAT     H188724   1.973   3.633   1.347
29494WAT     H288725   1.931   3.488   1.409
29495WAT      O88726   1.230   9.179   8.775
29495WAT     H188727   1.321   9.139   8.765
29495WAT     H288728   1.193   9.200   8.684
29496WAT      O88729   5.608   5.438   9.254
29496WAT     H188730   5.681   5.370   9.266
29496WAT     H288731   5.624   5.515   9.315
29497WAT      O88732   5.606   5.846   4.671
29497WAT     H188733   5.516   5.812   4.644
29497WAT     H288734   5.597   5.940   4.706
29498WAT      O88735   8.099   1.953   0.368
29498WAT     H188736   8.035   2.028   0.382
29498WAT     H288737   8.186   1.990   0.334
29499WAT      O88738   5.820   5.106   7.888
29499WAT     H188739   5.815   5.020   7.837
29499WAT     H288740   5.732   5.153   7.880
29500WAT      O88741   6.712   8.710   0.260
29500WAT     H188742   6.779   8.636   0.262
29500WAT     H288743   6.643   8.691   0.191
29501WAT      O88744   1.473   7.025   7.769
29501WAT     H188745   1.433   6.948   7.818
29501WAT     H288746   1.408   7.058   7.701
29502WAT      O88747   6.641   0.837   2.960
29502WAT     H188748   6.596   0.748   2.948
29502WAT     H288749   6.728   0.824   3.008
29503WAT      O88750   6.542   1.463   4.310
29503WAT     H188751   6.452   1.455   4.265
29503WAT     H288752   6.534   1.518   4.392
29504WAT      O88753   4.966   2.256   6.114
29504WAT     H188754   5.044   2.193   6.112
29504WAT     H288755   4.884   2.208   6.145
29505WAT      O88756   8.795   5.991   4.598
29505WAT     H188757   8.837   6.013   4.510
29505WAT     H288758   8.740   5.908   4.589
29506WAT      O88759   8.988   3.528   9.642
29506WAT     H188760   9.044   3.586   9.702
29506WAT     H288761   8.923   3.586   9.592
29507WAT      O88762   6.227   6.381   7.186
29507WAT     H188763   6.244   6.464   7.132
29507WAT     H288764   6.282   6.306   7.149
29508WAT      O88765   3.540   4.820   2.448
29508WAT     H188766   3.606   4.777   2.509
29508WAT     H288767   3.588   4.868   2.375
29509WAT      O88768   2.452   9.701   6.870
29509WAT     H188769   2.396   9.765   6.818
29509WAT     H288770   2.495   9.749   6.947
29510WAT      O88771   3.377   0.540   9.318
29510WAT     H188772   3.365   0.499   9.228
29510WAT     H288773   3.336   0.481   9.388
29511WAT      O88774   5.348   7.323   0.110
29511WAT     H188775   5.376   7.236   0.069
29511WAT     H288776   5.315   7.384   0.038
29512WAT      O88777   2.013   0.509   8.708
29512WAT     H188778   2.018   0.426   8.651
29512WAT     H288779   1.957   0.578   8.662
29513WAT      O88780   3.946   7.884   1.972
29513WAT     H188781   3.875   7.813   1.969
29513WAT     H288782   4.034   7.841   1.990
29514WAT      O88783   7.142   3.011   0.279
29514WAT     H188784   7.233   2.969   0.282
29514WAT     H288785   7.117   3.030   0.184
29515WAT      O88786   9.241   8.105   8.176
29515WAT     H188787   9.160   8.160   8.154
29515WAT     H288788   9.323   8.153   8.143
29516WAT      O88789   2.256   0.743   0.195
29516WAT     H188790   2.175   0.793   0.162
29516WAT     H288791   2.236   0.645   0.195
29517WAT      O88792   4.708   1.211   3.036
29517WAT     H188793   4.781   1.279   3.047
29517WAT     H288794   4.691   1.197   2.938
29518WAT      O88795   6.050   3.887   0.861
29518WAT     H188796   6.023   3.852   0.951
29518WAT     H288797   5.972   3.882   0.798
29519WAT      O88798   1.662   5.681   7.147
29519WAT     H188799   1.629   5.721   7.232
29519WAT     H288800   1.729   5.610   7.167
29520WAT      O88801   0.009   0.355   1.586
29520WAT     H188802  -0.069   0.325   1.641
29520WAT     H288803   0.037   0.280   1.525
29521WAT      O88804   9.346   7.948   3.421
29521WAT     H188805   9.250   7.975   3.411
29521WAT     H288806   9.374   7.957   3.516
29522WAT      O88807   5.713   1.575   3.976
29522WAT     H188808   5.807   1.603   3.995
29522WAT     H288809   5.651   1.621   4.040
29523WAT      O88810   7.025   9.056   1.271
29523WAT     H188811   7.094   8.986   1.292
29523WAT     H288812   7.063   9.122   1.207
29524WAT      O88813   1.010   2.644   2.984
29524WAT     H188814   1.101   2.608   3.003
29524WAT     H288815   0.944   2.568   2.984
29525WAT      O88816   7.740   6.428   8.128
29525WAT     H188817   7.717   6.337   8.163
29525WAT     H288818   7.720   6.497   8.198
29526WAT      O88819   9.871   5.082   0.879
29526WAT     H188820   9.787   5.045   0.919
29526WAT     H288821   9.849   5.130   0.794
29527WAT      O88822   8.885   2.196   9.223
29527WAT     H188823   8.864   2.110   9.269
29527WAT     H288824   8.969   2.187   9.171
29528WAT      O88825   3.999   6.285   5.829
29528WAT     H188826   3.940   6.299   5.749
29528WAT     H288827   3.941   6.264   5.908
29529WAT      O88828   5.805   8.616   2.525
29529WAT     H188829   5.806   8.543   2.456
29529WAT     H288830   5.791   8.704   2.480
29530WAT      O88831   0.165   6.328   4.824
29530WAT     H188832   0.125   6.256   4.767
29530WAT     H288833   0.149   6.417   4.781
29531WAT      O88834   8.507   0.790   8.163
29531WAT     H188835   8.533   0.857   8.094
29531WAT     H288836   8.408   0.776   8.160
29532WAT      O88837   2.026   3.975   6.193
29532WAT     H188838   2.097   4.042   6.216
29532WAT     H288839   1.948   4.023   6.154
29533WAT      O88840   0.179   2.001   9.863
29533WAT     H188841   0.196   2.100   9.863
29533WAT     H288842   0.182   1.967   9.956
29534WAT      O88843   4.327   8.402   6.515
29534WAT     H188844   4.347   8.319   6.463
29534WAT     H288845   4.357   8.483   6.464
29535WAT      O88846   6.820   1.613   6.507
29535WAT     H188847   6.901   1.640   6.558
29535WAT     H288848   6.837   1.621   6.409
29536WAT      O88849   7.668   3.884   7.325
29536WAT     H188850   7.721   3.817   7.376
29536WAT     H288851   7.596   3.923   7.384
29537WAT      O88852   9.582   8.762   5.681
29537WAT     H188853   9.551   8.853   5.657
29537WAT     H288854   9.520   8.694   5.643
29538WAT      O88855   2.838   4.459   7.862
29538WAT     H188856   2.875   4.542   7.821
29538WAT     H288857   2.854   4.381   7.802
29539WAT      O88858   6.912   0.617   8.757
29539WAT     H188859   7.000   0.603   8.712
29539WAT     H288860   6.879   0.709   8.737
29540WAT      O88861   8.762   3.905   8.184
29540WAT     H188862   8.764   3.823   8.128
29540WAT     H288863   8.720   3.884   8.273
29541WAT      O88864   5.823   8.872   9.057
29541WAT     H188865   5.862   8.786   9.088
29541WAT     H288866   5.897   8.935   9.031
29542WAT      O88867   1.232   0.865   7.057
29542WAT     H188868   1.325   0.892   7.034
29542WAT     H288869   1.171   0.889   6.981
29543WAT      O88870   6.548   8.606   6.742
29543WAT     H188871   6.608   8.668   6.792
29543WAT     H288872   6.468   8.657   6.708
29544WAT      O88873   3.392   7.980   3.169
29544WAT     H188874   3.430   8.071   3.184
29544WAT     H288875   3.393   7.960   3.071
29545WAT      O88876   2.990   9.136   2.814
29545WAT     H188877   2.936   9.212   2.778
29545WAT     H288878   2.980   9.133   2.914
29546WAT      O88879   6.885   1.588   9.450
29546WAT     H188880   6.880   1.495   9.487
29546WAT     H288881   6.950   1.589   9.373
29547WAT      O88882   4.753   1.505   4.567
29547WAT     H188883   4.771   1.574   4.496
29547WAT     H288884   4.742   1.415   4.524
29548WAT      O88885   4.468   1.782   5.861
29548WAT     H188886   4.497   1.876   5.875
29548WAT     H288887   4.509   1.747   5.777
29549WAT      O88888   5.592   3.467   6.583
29549WAT     H188889   5.504   3.465   6.535
29549WAT     H288890   5.620   3.373   6.605
29550WAT      O88891   1.414   0.454   8.673
29550WAT     H188892   1.409   0.533   8.734
29550WAT     H288893   1.437   0.372   8.727
29551WAT      O88894   6.308   6.422   4.966
29551WAT     H188895   6.289   6.507   4.917
29551WAT     H288896   6.308   6.346   4.901
29552WAT      O88897   0.901   5.106   7.106
29552WAT     H188898   0.907   5.021   7.158
29552WAT     H288899   0.991   5.131   7.071
29553WAT      O88900   4.597   9.315   4.139
29553WAT     H188901   4.686   9.352   4.113
29553WAT     H288902   4.547   9.286   4.058
29554WAT      O88903   6.818   0.319   0.432
29554WAT     H188904   6.855   0.383   0.364
29554WAT     H288905   6.723   0.298   0.410
29555WAT      O88906   8.320   2.699   2.541
29555WAT     H188907   8.333   2.724   2.637
29555WAT     H288908   8.405   2.716   2.491
29556WAT      O88909   7.721   8.513   1.255
29556WAT     H188910   7.670   8.452   1.316
29556WAT     H288911   7.659   8.555   1.190
29557WAT      O88912   4.391   5.449   1.566
29557WAT     H188913   4.403   5.466   1.663
29557WAT     H288914   4.311   5.499   1.533
29558WAT      O88915   2.265   3.481   1.415
29558WAT     H188916   2.186   3.541   1.431
29558WAT     H288917   2.304   3.500   1.325
29559WAT      O88918   9.718   4.479   7.800
29559WAT     H188919   9.690   4.563   7.753
29559WAT     H288920   9.714   4.493   7.898
29560WAT      O88921   7.532   4.059   8.796
29560WAT     H188922   7.516   3.972   8.842
29560WAT     H288923   7.474   4.129   8.836
29561WAT      O88924   0.719   7.163   4.796
29561WAT     H188925   0.718   7.092   4.725
29561WAT     H288926   0.650   7.232   4.775
29562WAT      O88927   0.904   0.569   5.333
29562WAT     H188928   0.893   0.668   5.322
29562WAT     H288929   0.944   0.550   5.423
29563WAT      O88930   5.311   0.679   3.056
29563WAT     H188931   5.296   0.765   3.105
29563WAT     H288932   5.270   0.685   2.965
29564WAT      O88933   2.832   8.385   1.906
29564WAT     H188934   2.803   8.457   1.842
29564WAT     H288935   2.803   8.410   1.999
29565WAT      O88936   7.193   2.722   4.085
29565WAT     H188937   7.293   2.725   4.084
29565WAT     H288938   7.160   2.727   4.179
29566WAT      O88939   9.583   2.213   9.563
29566WAT     H188940   9.647   2.260   9.624
29566WAT     H288941   9.496   2.198   9.611
29567WAT      O88942   1.086   4.998   5.252
29567WAT     H188943   1.006   5.053   5.227
29567WAT     H288944   1.095   4.921   5.189
29568WAT      O88945   4.028   6.427   9.430
29568WAT     H188946   4.124   6.455   9.435
29568WAT     H288947   4.008   6.395   9.337
29569WAT      O88948   5.609   3.403   4.835
29569WAT     H188949   5.612   3.469   4.760
29569WAT     H288950   5.585   3.450   4.920
29570WAT      O88951   0.188   8.346   3.457
29570WAT     H188952   0.170   8.364   3.554
29570WAT     H288953   0.220   8.430   3.414
29571WAT      O88954   7.091   8.932   2.290
29571WAT     H188955   7.046   8.987   2.220
29571WAT     H288956   7.137   8.992   2.355
29572WAT      O88957   3.870   2.986   1.080
29572WAT     H188958   3.816   3.012   0.999
29572WAT     H288959   3.887   2.888   1.078
29573WAT      O88960   6.321   1.977   6.420
29573WAT     H188961   6.279   1.981   6.511
29573WAT     H288962   6.260   2.018   6.353
29574WAT      O88963   8.926   4.893   4.840
29574WAT     H188964   8.860   4.842   4.896
29574WAT     H288965   9.002   4.924   4.898
29575WAT      O88966   0.014   5.379   6.236
29575WAT     H188967   0.039   5.405   6.143
29575WAT     H288968  -0.075   5.418   6.258
29576WAT      O88969   5.720   0.193   9.367
29576WAT     H188970   5.685   0.264   9.428
29576WAT     H288971   5.820   0.196   9.366
29577WAT      O88972   0.872   1.600   3.773
29577WAT     H188973   0.972   1.600   3.772
29577WAT     H288974   0.839   1.634   3.861
29578WAT      O88975   4.090   1.876   7.490
29578WAT     H188976   4.072   1.778   7.502
29578WAT     H288977   4.014   1.919   7.442
29579WAT      O88978   6.149   4.681   4.455
29579WAT     H188979   6.126   4.594   4.497
29579WAT     H288980   6.247   4.682   4.433
29580WAT      O88981   1.876   3.968   8.808
29580WAT     H188982   1.924   3.903   8.749
29580WAT     H288983   1.792   3.998   8.764
29581WAT      O88984   3.391   0.718   8.566
29581WAT     H188985   3.452   0.690   8.640
29581WAT     H288986   3.396   0.651   8.492
29582WAT      O88987   5.992   8.440   5.399
29582WAT     H188988   6.068   8.381   5.372
29582WAT     H288989   5.974   8.507   5.327
29583WAT      O88990   3.726   5.668   9.531
29583WAT     H188991   3.736   5.591   9.594
29583WAT     H288992   3.652   5.650   9.467
29584WAT      O88993   6.572   6.336   7.898
29584WAT     H188994   6.595   6.294   7.810
29584WAT     H288995   6.609   6.280   7.972
29585WAT      O88996   7.193   0.198   4.909
29585WAT     H188997   7.221   0.270   4.845
29585WAT     H288998   7.231   0.110   4.880
29586WAT      O88999   1.894   0.843   8.162
29586WAT     H189000   1.837   0.911   8.116
29586WAT     H289001   1.934   0.781   8.095
29587WAT      O89002   1.180   8.493   1.709
29587WAT     H189003   1.199   8.569   1.647
29587WAT     H289004   1.210   8.516   1.801
29588WAT      O89005   0.412   9.490   5.450
29588WAT     H189006   0.434   9.394   5.468
29588WAT     H289007   0.327   9.495   5.398
29589WAT      O89008   1.467   2.756   3.695
29589WAT     H189009   1.567   2.762   3.696
29589WAT     H289010   1.437   2.690   3.764
29590WAT      O89011   2.480   0.961   3.121
29590WAT     H189012   2.532   1.026   3.066
29590WAT     H289013   2.409   1.010   3.172
29591WAT      O89014   0.457   8.204   0.357
29591WAT     H189015   0.532   8.257   0.317
29591WAT     H289016   0.379   8.203   0.294
29592WAT      O89017   2.762   2.949   3.243
29592WAT     H189018   2.708   2.995   3.313
29592WAT     H289019   2.718   2.960   3.154
29593WAT      O89020   3.648   5.487   3.680
29593WAT     H189021   3.591   5.518   3.756
29593WAT     H289022   3.634   5.389   3.664
29594WAT      O89023   0.208   6.013   1.388
29594WAT     H189024   0.182   5.941   1.323
29594WAT     H289025   0.172   5.991   1.478
29595WAT      O89026   3.827   3.300   7.712
29595WAT     H189027   3.917   3.344   7.714
29595WAT     H289028   3.756   3.369   7.731
29596WAT      O89029   4.914   1.539   7.513
29596WAT     H189030   4.913   1.625   7.462
29596WAT     H289031   4.883   1.464   7.453
29597WAT      O89032   3.433   2.424   9.576
29597WAT     H189033   3.453   2.350   9.640
29597WAT     H289034   3.518   2.455   9.533
29598WAT      O89035   6.528   9.405   8.083
29598WAT     H189036   6.589   9.468   8.034
29598WAT     H289037   6.513   9.323   8.028
29599WAT      O89038   1.326   0.845   3.069
29599WAT     H189039   1.294   0.903   2.994
29599WAT     H289040   1.426   0.839   3.065
29600WAT      O89041   3.570   3.671   5.468
29600WAT     H189042   3.560   3.739   5.395
29600WAT     H289043   3.664   3.670   5.500
29601WAT      O89044   3.069   9.603   9.663
29601WAT     H189045   3.040   9.573   9.573
29601WAT     H289046   3.021   9.550   9.733
29602WAT      O89047   3.818   3.599   0.148
29602WAT     H189048   3.839   3.602   0.246
29602WAT     H289049   3.786   3.688   0.118
29603WAT      O89050   2.924   4.070   4.541
29603WAT     H189051   2.959   4.164   4.548
29603WAT     H289052   2.967   4.025   4.463
29604WAT      O89053   5.369   9.234   0.231
29604WAT     H189054   5.339   9.260   0.139
29604WAT     H289055   5.297   9.181   0.276
29605WAT      O89056   6.637   7.846   3.003
29605WAT     H189057   6.586   7.775   2.954
29605WAT     H289058   6.700   7.891   2.940
29606WAT      O89059   0.661   0.984   4.724
29606WAT     H189060   0.759   0.964   4.725
29606WAT     H289061   0.610   0.898   4.725
29607WAT      O89062   8.405   4.732   8.523
29607WAT     H189063   8.381   4.639   8.552
29607WAT     H289064   8.432   4.785   8.604
29608WAT      O89065   4.069   1.536   9.384
29608WAT     H189066   4.094   1.627   9.419
29608WAT     H289067   4.149   1.493   9.343
29609WAT      O89068   6.866   7.160   7.648
29609WAT     H189069   6.876   7.103   7.730
29609WAT     H289070   6.830   7.250   7.675
29610WAT      O89071   2.353   4.060   7.344
29610WAT     H189072   2.355   4.025   7.438
29610WAT     H289073   2.321   3.988   7.282
29611WAT      O89074   2.614   7.803   5.873
29611WAT     H189075   2.685   7.842   5.932
29611WAT     H289076   2.650   7.724   5.824
29612WAT      O89077   3.923   2.142   1.374
29612WAT     H189078   3.967   2.060   1.410
29612WAT     H289079   3.932   2.144   1.274
29613WAT      O89080   0.674   3.361   1.905
29613WAT     H189081   0.660   3.356   2.004
29613WAT     H289082   0.772   3.361   1.885
29614WAT      O89083   4.217   5.398   4.034
29614WAT     H189084   4.124   5.433   4.023
29614WAT     H289085   4.229   5.362   4.127
29615WAT      O89086   6.304   9.217   0.585
29615WAT     H189087   6.229   9.160   0.551
29615WAT     H289088   6.342   9.271   0.510
29616WAT      O89089   5.221   6.510   1.953
29616WAT     H189090   5.243   6.605   1.973
29616WAT     H289091   5.276   6.479   1.876
29617WAT      O89092   0.194   4.376   0.282
29617WAT     H189093   0.222   4.464   0.243
29617WAT     H289094   0.142   4.325   0.214
29618WAT      O89095   5.238   2.707   8.859
29618WAT     H189096   5.208   2.759   8.939
29618WAT     H289097   5.335   2.723   8.844
29619WAT      O89098   3.807   7.107   9.431
29619WAT     H189099   3.708   7.091   9.429
29619WAT     H289100   3.847   7.058   9.508
29620WAT      O89101   6.616   1.595   9.481
29620WAT     H189102   6.576   1.506   9.502
29620WAT     H289103   6.714   1.585   9.465
29621WAT      O89104   8.361   9.832   5.800
29621WAT     H189105   8.373   9.735   5.821
29621WAT     H289106   8.432   9.885   5.848
29622WAT      O89107   4.216   0.544   7.104
29622WAT     H189108   4.152   0.558   7.180
29622WAT     H289109   4.204   0.451   7.068
29623WAT      O89110   8.070   4.317   1.131
29623WAT     H189111   8.023   4.282   1.050
29623WAT     H289112   8.106   4.409   1.112
29624WAT      O89113   7.814   3.701   7.529
29624WAT     H189114   7.796   3.604   7.549
29624WAT     H289115   7.912   3.713   7.509
29625WAT      O89116   2.581   3.193   7.616
29625WAT     H189117   2.588   3.111   7.558
29625WAT     H289118   2.642   3.264   7.581
29626WAT      O89119   8.223   3.568   6.355
29626WAT     H189120   8.253   3.654   6.396
29626WAT     H289121   8.301   3.507   6.344
29627WAT      O89122   8.810   9.535   6.606
29627WAT     H189123   8.868   9.503   6.682
29627WAT     H289124   8.866   9.555   6.527
29628WAT      O89125   3.163   1.409   8.793
29628WAT     H189126   3.222   1.447   8.865
29628WAT     H289127   3.211   1.336   8.745
29629WAT      O89128   5.572   4.164   6.995
29629WAT     H189129   5.642   4.234   7.006
29629WAT     H289130   5.610   4.074   7.017
29630WAT      O89131   6.993   8.438   1.096
29630WAT     H189132   6.897   8.415   1.080
29630WAT     H289133   7.031   8.484   1.016
29631WAT      O89134   5.734   9.488   0.224
29631WAT     H189135   5.777   9.472   0.135
29631WAT     H289136   5.691   9.403   0.256
29632WAT      O89137   5.491   4.231   6.057
29632WAT     H189138   5.557   4.294   6.097
29632WAT     H289139   5.401   4.275   6.054
29633WAT      O89140   6.965   4.633   3.977
29633WAT     H189141   6.895   4.701   3.955
29633WAT     H289142   6.925   4.560   4.032
29634WAT      O89143   7.940   7.512   8.374
29634WAT     H189144   8.039   7.495   8.378
29634WAT     H289145   7.915   7.574   8.449
29635WAT      O89146   4.532   6.786   1.834
29635WAT     H189147   4.628   6.814   1.837
29635WAT     H289148   4.508   6.741   1.920
29636WAT      O89149   4.380   6.575   4.220
29636WAT     H189150   4.454   6.520   4.180
29636WAT     H289151   4.294   6.524   4.213
29637WAT      O89152   1.213   6.709   0.199
29637WAT     H189153   1.250   6.738   0.110
29637WAT     H289154   1.115   6.727   0.201
29638WAT      O89155   9.653   8.167   5.086
29638WAT     H189156   9.645   8.130   4.993
29638WAT     H289157   9.680   8.093   5.148
29639WAT      O89158   3.300   4.565   9.188
29639WAT     H189159   3.220   4.508   9.206
29639WAT     H289160   3.277   4.635   9.120
29640WAT      O89161   6.684   4.290   5.725
29640WAT     H189162   6.765   4.267   5.671
29640WAT     H289163   6.608   4.311   5.664
29641WAT      O89164   7.556   1.956   7.713
29641WAT     H189165   7.478   1.984   7.768
29641WAT     H289166   7.641   1.980   7.760
29642WAT      O89167   1.795   8.733   7.506
29642WAT     H189168   1.850   8.654   7.478
29642WAT     H289169   1.851   8.794   7.562
29643WAT      O89170   4.664   7.272   3.749
29643WAT     H189171   4.646   7.200   3.815
29643WAT     H289172   4.671   7.360   3.796
29644WAT      O89173   7.504   3.110   0.492
29644WAT     H189174   7.491   3.120   0.591
29644WAT     H289175   7.557   3.027   0.475
29645WAT      O89176   0.160   7.931   8.425
29645WAT     H189177   0.180   7.938   8.327
29645WAT     H289178   0.212   7.855   8.464
29646WAT      O89179   5.649   1.705   5.762
29646WAT     H189180   5.628   1.751   5.676
29646WAT     H289181   5.746   1.715   5.782
29647WAT      O89182   1.335   5.686   9.166
29647WAT     H189183   1.378   5.751   9.103
29647WAT     H289184   1.286   5.737   9.237
29648WAT      O89185   1.757   1.011   6.547
29648WAT     H189186   1.817   1.051   6.616
29648WAT     H289187   1.754   1.071   6.467
29649WAT      O89188   6.236   3.405   2.907
29649WAT     H189189   6.273   3.335   2.846
29649WAT     H289190   6.146   3.376   2.940
29650WAT      O89191   8.959   9.809   1.136
29650WAT     H189192   8.971   9.718   1.097
29650WAT     H289193   8.988   9.808   1.232
29651WAT      O89194   2.515   3.608   1.277
29651WAT     H189195   2.517   3.683   1.343
29651WAT     H289196   2.474   3.640   1.192
29652WAT      O89197   9.660   0.483   2.601
29652WAT     H189198   9.648   0.482   2.502
29652WAT     H289199   9.584   0.533   2.643
29653WAT      O89200   8.399   0.613   5.365
29653WAT     H189201   8.399   0.619   5.265
29653WAT     H289202   8.374   0.702   5.404
29654WAT      O89203   4.315   6.847   2.300
29654WAT     H189204   4.253   6.774   2.330
29654WAT     H289205   4.374   6.813   2.227
29655WAT      O89206   6.694   6.054   5.630
29655WAT     H189207   6.597   6.082   5.630
29655WAT     H289208   6.699   5.955   5.623
29656WAT      O89209   8.798   0.516   3.743
29656WAT     H189210   8.812   0.527   3.841
29656WAT     H289211   8.709   0.473   3.726
29657WAT      O89212   6.238   6.034   9.216
29657WAT     H189213   6.217   5.960   9.151
29657WAT     H289214   6.329   6.071   9.195
29658WAT      O89215   1.364   0.940   0.597
29658WAT     H189216   1.365   1.006   0.521
29658WAT     H289217   1.292   0.873   0.582
29659WAT      O89218   3.582   2.688   1.611
29659WAT     H189219   3.539   2.741   1.538
29659WAT     H289220   3.666   2.645   1.576
29660WAT      O89221   6.584   5.848   6.899
29660WAT     H189222   6.643   5.876   6.823
29660WAT     H289223   6.622   5.765   6.941
29661WAT      O89224   2.852   7.806   3.739
29661WAT     H189225   2.803   7.885   3.775
29661WAT     H289226   2.785   7.737   3.710
29662WAT      O89227   3.595   4.435   3.489
29662WAT     H189228   3.619   4.523   3.446
29662WAT     H289229   3.630   4.360   3.433
29663WAT      O89230   4.127   4.169   8.342
29663WAT     H189231   4.081   4.244   8.295
29663WAT     H289232   4.195   4.206   8.406
29664WAT      O89233   4.906   8.059   4.553
29664WAT     H189234   4.854   8.127   4.501
29664WAT     H289235   4.997   8.048   4.513
29665WAT      O89236   9.315   2.454   5.749
29665WAT     H189237   9.238   2.472   5.687
29665WAT     H289238   9.399   2.450   5.696
29666WAT      O89239   6.978   3.749   4.140
29666WAT     H189240   6.888   3.730   4.178
29666WAT     H289241   7.049   3.711   4.200
29667WAT      O89242   4.145   2.787   6.308
29667WAT     H189243   4.232   2.835   6.325
29667WAT     H289244   4.126   2.786   6.210
29668WAT      O89245   1.207   8.702   8.715
29668WAT     H189246   1.233   8.682   8.620
29668WAT     H289247   1.125   8.650   8.738
29669WAT      O89248   2.462   9.597   3.359
29669WAT     H189249   2.427   9.689   3.376
29669WAT     H289250   2.561   9.597   3.371
29670WAT      O89251   1.923   2.338   7.730
29670WAT     H189252   1.976   2.281   7.793
29670WAT     H289253   1.959   2.328   7.637
29671WAT      O89254   9.315   9.837   5.832
29671WAT     H189255   9.341   9.931   5.855
29671WAT     H289256   9.226   9.836   5.788
29672WAT      O89257   8.331   9.334   3.053
29672WAT     H189258   8.337   9.281   3.137
29672WAT     H289259   8.391   9.414   3.061
29673WAT      O89260   5.585   6.606   4.667
29673WAT     H189261   5.590   6.685   4.728
29673WAT     H289262   5.494   6.601   4.626
29674WAT      O89263   3.693   9.493   6.656
29674WAT     H189264   3.672   9.429   6.582
29674WAT     H289265   3.660   9.584   6.632
29675WAT      O89266   4.854   5.668   1.602
29675WAT     H189267   4.844   5.599   1.674
29675WAT     H289268   4.788   5.742   1.617
29676WAT      O89269   5.970   1.598   4.085
29676WAT     H189270   5.977   1.658   4.165
29676WAT     H289271   6.036   1.628   4.016
29677WAT      O89272   0.375   6.938   5.993
29677WAT     H189273   0.376   6.838   5.989
29677WAT     H289274   0.290   6.972   5.952
29678WAT      O89275   9.041   2.745   2.514
29678WAT     H189276   9.137   2.758   2.540
29678WAT     H289277   9.018   2.648   2.518
29679WAT      O89278   5.234   4.040   0.531
29679WAT     H189279   5.281   4.037   0.443
29679WAT     H289280   5.177   3.958   0.540
29680WAT      O89281   0.356   6.435   3.233
29680WAT     H189282   0.350   6.523   3.280
29680WAT     H289283   0.389   6.449   3.140
29681WAT      O89284   3.151   3.781   9.395
29681WAT     H189285   3.058   3.809   9.418
29681WAT     H289286   3.152   3.741   9.303
29682WAT      O89287   4.763   6.488   7.957
29682WAT     H189288   4.722   6.412   7.907
29682WAT     H289289   4.753   6.472   8.055
29683WAT      O89290   4.856   3.096   7.518
29683WAT     H189291   4.940   3.055   7.551
29683WAT     H289292   4.847   3.189   7.554
29684WAT      O89293   8.575   8.184   5.664
29684WAT     H189294   8.489   8.132   5.672
29684WAT     H289295   8.652   8.125   5.690
29685WAT      O89296   3.603   2.858   8.178
29685WAT     H189297   3.635   2.804   8.099
29685WAT     H289298   3.676   2.864   8.245
29686WAT      O89299   7.086   6.096   8.358
29686WAT     H189300   7.091   6.084   8.457
29686WAT     H289301   7.111   6.190   8.335
29687WAT      O89302   4.978   3.715   5.589
29687WAT     H189303   4.893   3.695   5.637
29687WAT     H289304   4.976   3.809   5.554
29688WAT      O89305   8.858   3.385   8.004
29688WAT     H189306   8.823   3.374   7.911
29688WAT     H289307   8.781   3.387   8.069
29689WAT      O89308   7.081   6.410   6.949
29689WAT     H189309   7.102   6.452   7.038
29689WAT     H289310   7.055   6.315   6.963
29690WAT      O89311   1.691   0.644   1.013
29690WAT     H189312   1.667   0.562   1.066
29690WAT     H289313   1.782   0.633   0.974
29691WAT      O89314   0.005   7.512   5.137
29691WAT     H189315  -0.059   7.446   5.176
29691WAT     H289316   0.036   7.480   5.048
29692WAT      O89317   8.233   2.130   6.499
29692WAT     H189318   8.188   2.198   6.557
29692WAT     H289319   8.176   2.110   6.419
29693WAT      O89320   5.653   7.116   3.096
29693WAT     H189321   5.671   7.214   3.096
29693WAT     H289322   5.583   7.094   3.163
29694WAT      O89323   6.243   2.601   5.799
29694WAT     H189324   6.231   2.610   5.898
29694WAT     H289325   6.332   2.560   5.780
29695WAT      O89326   8.209   4.937   3.682
29695WAT     H189327   8.134   5.004   3.685
29695WAT     H289328   8.174   4.850   3.650
29696WAT      O89329   7.317   7.695   2.561
29696WAT     H189330   7.236   7.705   2.503
29696WAT     H289331   7.328   7.599   2.586
29697WAT      O89332   7.557   3.359   3.992
29697WAT     H189333   7.487   3.328   3.927
29697WAT     H289334   7.513   3.408   4.067
29698WAT      O89335   7.232   4.926   6.629
29698WAT     H189336   7.173   4.866   6.574
29698WAT     H289337   7.326   4.891   6.628
29699WAT      O89338   1.003   1.723   9.691
29699WAT     H189339   1.010   1.811   9.645
29699WAT     H289340   1.088   1.671   9.678
29700WAT      O89341   2.096   0.575   8.345
29700WAT     H189342   2.040   0.630   8.406
29700WAT     H289343   2.182   0.551   8.390
29701WAT      O89344   1.549   5.216   6.560
29701WAT     H189345   1.623   5.261   6.611
29701WAT     H289346   1.549   5.248   6.465
29702WAT      O89347   9.470   3.131   5.320
29702WAT     H189348   9.545   3.118   5.255
29702WAT     H289349   9.400   3.061   5.305
29703WAT      O89350   0.258   9.534   2.490
29703WAT     H189351   0.292   9.491   2.406
29703WAT     H289352   0.303   9.623   2.502
29704WAT      O89353   4.527   4.432   5.950
29704WAT     H189354   4.603   4.404   5.892
29704WAT     H289355   4.448   4.372   5.933
29705WAT      O89356   8.017   5.533   2.015
29705WAT     H189357   8.053   5.474   1.943
29705WAT     H289358   7.918   5.540   2.005
29706WAT      O89359   8.568   4.855   7.853
29706WAT     H189360   8.503   4.925   7.825
29706WAT     H289361   8.585   4.792   7.777
29707WAT      O89362   8.647   6.136   4.302
29707WAT     H189363   8.743   6.113   4.319
29707WAT     H289364   8.592   6.052   4.306
29708WAT      O89365   7.986   4.202   0.292
29708WAT     H189366   8.034   4.288   0.271
29708WAT     H289367   8.004   4.177   0.387
29709WAT      O89368   6.165   6.166   8.374
29709WAT     H189369   6.194   6.161   8.278
29709WAT     H289370   6.162   6.262   8.403
29710WAT      O89371   2.420   0.654   1.438
29710WAT     H189372   2.409   0.559   1.466
29710WAT     H289373   2.517   0.673   1.423
29711WAT      O89374   5.067   9.774   3.130
29711WAT     H189375   5.124   9.854   3.113
29711WAT     H289376   5.097   9.698   3.073
29712WAT      O89377   1.342   9.688   6.855
29712WAT     H189378   1.405   9.611   6.871
29712WAT     H289379   1.395   9.770   6.834
29713WAT      O89380   9.330   8.539   7.792
29713WAT     H189381   9.379   8.626   7.791
29713WAT     H289382   9.321   8.506   7.698
29714WAT      O89383   7.013   3.127   8.466
29714WAT     H189384   7.002   3.191   8.389
29714WAT     H289385   7.096   3.150   8.516
29715WAT      O89386   5.247   8.040   4.712
29715WAT     H189387   5.203   8.125   4.739
29715WAT     H289388   5.326   8.059   4.654
29716WAT      O89389   8.223   0.815   6.605
29716WAT     H189390   8.277   0.888   6.646
29716WAT     H289391   8.131   0.815   6.644
29717WAT      O89392   9.047   0.629   8.553
29717WAT     H189393   8.998   0.546   8.578
29717WAT     H289394   9.127   0.640   8.613
29718WAT      O89395   3.156   8.188   3.354
29718WAT     H189396   3.175   8.240   3.271
29718WAT     H289397   3.205   8.230   3.431
29719WAT      O89398   9.366   7.658   6.678
29719WAT     H189399   9.325   7.646   6.588
29719WAT     H289400   9.463   7.683   6.668
29720WAT      O89401   4.855   5.219   7.932
29720WAT     H189402   4.778   5.182   7.880
29720WAT     H289403   4.832   5.221   8.029
29721WAT      O89404   6.611   6.880   4.315
29721WAT     H189405   6.682   6.813   4.294
29721WAT     H289406   6.649   6.952   4.374
29722WAT      O89407   0.706   7.228   3.150
29722WAT     H189408   0.798   7.268   3.146
29722WAT     H289409   0.713   7.129   3.139
29723WAT      O89410   3.577   4.965   4.799
29723WAT     H189411   3.673   4.974   4.828
29723WAT     H289412   3.517   4.993   4.874
29724WAT      O89413   7.144   5.768   2.425
29724WAT     H189414   7.180   5.850   2.470
29724WAT     H289415   7.157   5.689   2.484
29725WAT      O89416   1.140   0.158   7.960
29725WAT     H189417   1.088   0.179   7.877
29725WAT     H289418   1.199   0.079   7.944
29726WAT      O89419   6.830   0.545   3.197
29726WAT     H189420   6.925   0.514   3.194
29726WAT     H289421   6.794   0.536   3.289
29727WAT      O89422   4.817   2.283   7.981
29727WAT     H189423   4.908   2.242   7.989
29727WAT     H289424   4.755   2.218   7.939
29728WAT      O89425   9.537   8.748   2.979
29728WAT     H189426   9.538   8.664   2.925
29728WAT     H289427   9.580   8.732   3.068
29729WAT      O89428   5.266   5.886   9.010
29729WAT     H189429   5.256   5.955   8.939
29729WAT     H289430   5.219   5.803   8.983
29730WAT      O89431   7.423   0.359   8.708
29730WAT     H189432   7.364   0.439   8.717
29730WAT     H289433   7.413   0.301   8.788
29731WAT      O89434   5.885   1.392   8.326
29731WAT     H189435   5.906   1.309   8.274
29731WAT     H289436   5.871   1.468   8.262
29732WAT      O89437   5.775   6.177   3.136
29732WAT     H189438   5.821   6.174   3.225
29732WAT     H289439   5.791   6.092   3.087
29733WAT      O89440   2.057   4.575   1.176
29733WAT     H189441   2.132   4.581   1.110
29733WAT     H289442   2.047   4.662   1.222
29734WAT      O89443   2.794   0.402   5.013
29734WAT     H189444   2.724   0.376   4.947
29734WAT     H289445   2.751   0.430   5.099
29735WAT      O89446   3.995   3.155   8.117
29735WAT     H189447   3.919   3.161   8.181
29735WAT     H289448   3.971   3.204   8.033
29736WAT      O89449   2.686   1.957   6.513
29736WAT     H189450   2.689   1.901   6.430
29736WAT     H289451   2.723   2.047   6.494
29737WAT      O89452   9.210   2.731   0.616
29737WAT     H189453   9.285   2.763   0.559
29737WAT     H289454   9.236   2.647   0.663
29738WAT      O89455   8.688   6.999   3.034
29738WAT     H189456   8.769   7.030   3.084
29738WAT     H289457   8.612   7.062   3.052
29739WAT      O89458   9.340   4.061   0.790
29739WAT     H189459   9.430   4.024   0.769
29739WAT     H289460   9.305   4.018   0.873
29740WAT      O89461   9.455   0.475   3.179
29740WAT     H189462   9.487   0.482   3.273
29740WAT     H289463   9.401   0.392   3.168
29741WAT      O89464   0.206   2.101   5.116
29741WAT     H189465   0.192   2.043   5.196
29741WAT     H289466   0.250   2.047   5.044
29742WAT      O89467   4.546   2.217   2.728
29742WAT     H189468   4.503   2.305   2.748
29742WAT     H289469   4.642   2.220   2.757
29743WAT      O89470   4.163   8.870   6.776
29743WAT     H189471   4.191   8.819   6.696
29743WAT     H289472   4.218   8.953   6.784
29744WAT      O89473   1.494   3.245   4.718
29744WAT     H189474   1.587   3.225   4.685
29744WAT     H289475   1.428   3.221   4.647
29745WAT      O89476   3.243   1.440   7.481
29745WAT     H189477   3.260   1.505   7.406
29745WAT     H289478   3.163   1.384   7.459
29746WAT      O89479   0.974   9.121   3.308
29746WAT     H189480   0.957   9.213   3.275
29746WAT     H289481   0.889   9.068   3.306
29747WAT      O89482   5.446   1.052   2.852
29747WAT     H189483   5.361   1.067   2.802
29747WAT     H289484   5.465   0.954   2.856
29748WAT      O89485   2.169   6.098   8.522
29748WAT     H189486   2.112   6.157   8.578
29748WAT     H289487   2.122   6.077   8.436
29749WAT      O89488   5.809   3.776   4.259
29749WAT     H189489   5.746   3.788   4.183
29749WAT     H289490   5.881   3.846   4.254
29750WAT      O89491   9.261   2.628   8.394
29750WAT     H189492   9.208   2.558   8.347
29750WAT     H289493   9.199   2.691   8.442
29751WAT      O89494   1.513   9.132   9.661
29751WAT     H189495   1.432   9.189   9.672
29751WAT     H289496   1.510   9.086   9.572
29752WAT      O89497   2.046   5.356   5.927
29752WAT     H189498   2.056   5.289   6.001
29752WAT     H289499   2.133   5.402   5.912
29753WAT      O89500   9.001   9.199   1.369
29753WAT     H189501   9.099   9.206   1.387
29753WAT     H289502   8.986   9.186   1.270
29754WAT      O89503   4.986   0.939   7.787
29754WAT     H189504   5.004   0.998   7.866
29754WAT     H289505   5.058   0.952   7.719
29755WAT      O89506   2.493   0.113   1.525
29755WAT     H189507   2.496   0.038   1.458
29755WAT     H289508   2.562   0.181   1.500
29756WAT      O89509   0.781   2.436   7.872
29756WAT     H189510   0.735   2.348   7.862
29756WAT     H289511   0.791   2.479   7.782
29757WAT      O89512   0.265   2.828   9.646
29757WAT     H189513   0.247   2.907   9.705
29757WAT     H289514   0.364   2.811   9.643
29758WAT      O89515   2.206   5.792   1.141
29758WAT     H189516   2.194   5.877   1.090
29758WAT     H289517   2.159   5.718   1.093
29759WAT      O89518   6.215   5.233   0.580
29759WAT     H189519   6.185   5.180   0.500
29759WAT     H289520   6.312   5.254   0.572
29760WAT      O89521   0.567   5.956   9.716
29760WAT     H189522   0.470   5.931   9.719
29760WAT     H289523   0.621   5.875   9.690
29761WAT      O89524   2.621   2.751   6.355
29761WAT     H189525   2.616   2.654   6.331
29761WAT     H289526   2.532   2.794   6.339
29762WAT      O89527   3.242   8.994   2.722
29762WAT     H189528   3.157   8.961   2.680
29762WAT     H289529   3.241   8.975   2.820
29763WAT      O89530   5.538   3.266   1.798
29763WAT     H189531   5.579   3.183   1.761
29763WAT     H289532   5.600   3.343   1.783
29764WAT      O89533   5.975   5.619   8.673
29764WAT     H189534   5.892   5.648   8.721
29764WAT     H289535   6.018   5.544   8.723
29765WAT      O89536   0.922   1.572   3.415
29765WAT     H189537   0.855   1.548   3.486
29765WAT     H289538   0.882   1.638   3.352
29766WAT      O89539   3.554   8.752   6.659
29766WAT     H189540   3.505   8.680   6.708
29766WAT     H289541   3.638   8.774   6.709
29767WAT      O89542   6.623   1.208   9.889
29767WAT     H189543   6.559   1.220   9.965
29767WAT     H289544   6.580   1.151   9.819
29768WAT      O89545   3.540   7.927   5.846
29768WAT     H189546   3.489   7.996   5.795
29768WAT     H289547   3.484   7.894   5.923
29769WAT      O89548   3.803   3.286   3.914
29769WAT     H189549   3.897   3.318   3.921
29769WAT     H289550   3.794   3.224   3.835
29770WAT      O89551   6.584   0.286   0.691
29770WAT     H189552   6.659   0.345   0.723
29770WAT     H289553   6.540   0.244   0.770
29771WAT      O89554   6.932   9.742   9.492
29771WAT     H189555   6.955   9.738   9.394
29771WAT     H289556   7.009   9.780   9.542
29772WAT      O89557   1.116   6.595   8.953
29772WAT     H189558   1.061   6.522   8.913
29772WAT     H289559   1.056   6.668   8.985
29773WAT      O89560   3.549   2.566   2.767
29773WAT     H189561   3.611   2.522   2.832
29773WAT     H289562   3.542   2.510   2.684
29774WAT      O89563   3.637   3.482   1.118
29774WAT     H189564   3.561   3.458   1.178
29774WAT     H289565   3.723   3.451   1.160
29775WAT      O89566   2.028   8.163   4.753
29775WAT     H189567   2.088   8.198   4.826
29775WAT     H289568   2.077   8.166   4.666
29776WAT      O89569   0.127   2.743   5.277
29776WAT     H189570   0.074   2.804   5.336
29776WAT     H289571   0.152   2.792   5.193
29777WAT      O89572   8.620   7.622   6.353
29777WAT     H189573   8.654   7.631   6.447
29777WAT     H289574   8.657   7.539   6.313
29778WAT      O89575   7.651   4.962   6.786
29778WAT     H189576   7.726   4.962   6.851
29778WAT     H289577   7.640   5.053   6.747
29779WAT      O89578   9.635   4.252   1.919
29779WAT     H189579   9.635   4.164   1.873
29779WAT     H289580   9.628   4.326   1.852
29780WAT      O89581   1.837   3.684   3.289
29780WAT     H189582   1.869   3.745   3.361
29780WAT     H289583   1.803   3.599   3.330
29781WAT      O89584   5.420   4.820   6.208
29781WAT     H189585   5.364   4.744   6.178
29781WAT     H289586   5.426   4.888   6.135
29782WAT      O89587   6.803   4.363   9.054
29782WAT     H189588   6.746   4.282   9.068
29782WAT     H289589   6.809   4.415   9.139
29783WAT      O89590   9.520   2.099   1.082
29783WAT     H189591   9.575   2.022   1.050
29783WAT     H289592   9.423   2.080   1.064
29784WAT      O89593   8.503   3.385   2.882
29784WAT     H189594   8.533   3.295   2.915
29784WAT     H289595   8.490   3.382   2.783
29785WAT      O89596   0.764   7.042   8.781
29785WAT     H189597   0.690   7.007   8.724
29785WAT     H289598   0.743   7.137   8.806
29786WAT      O89599   0.778   4.385   8.048
29786WAT     H189600   0.753   4.459   7.985
29786WAT     H289601   0.834   4.318   8.000
29787WAT      O89602   6.297   8.006   2.809
29787WAT     H189603   6.361   7.955   2.867
29787WAT     H289604   6.274   8.093   2.853
29788WAT      O89605   9.161   6.897   3.995
29788WAT     H189606   9.114   6.826   3.942
29788WAT     H289607   9.101   6.976   4.005
29789WAT      O89608   3.789   9.447   8.516
29789WAT     H189609   3.785   9.484   8.609
29789WAT     H289610   3.827   9.354   8.519
29790WAT      O89611   1.635   6.638   6.001
29790WAT     H189612   1.550   6.629   5.950
29790WAT     H289613   1.615   6.654   6.098
29791WAT      O89614   8.014   7.117   6.794
29791WAT     H189615   8.089   7.093   6.856
29791WAT     H289616   7.978   7.035   6.751
29792WAT      O89617   4.925   0.585   2.799
29792WAT     H189618   4.927   0.580   2.699
29792WAT     H289619   4.880   0.670   2.827
29793WAT      O89620   9.045   4.322   0.995
29793WAT     H189621   9.073   4.304   0.901
29793WAT     H289622   9.078   4.248   1.054
29794WAT      O89623   6.821   8.901   4.099
29794WAT     H189624   6.870   8.850   4.028
29794WAT     H289625   6.874   8.982   4.124
29795WAT      O89626   0.774   6.245   9.361
29795WAT     H189627   0.795   6.192   9.279
29795WAT     H289628   0.859   6.271   9.407
29796WAT      O89629   1.560   7.870   3.999
29796WAT     H189630   1.632   7.939   4.003
29796WAT     H289631   1.495   7.894   3.927
29797WAT      O89632   3.601   0.793   6.285
29797WAT     H189633   3.648   0.739   6.355
29797WAT     H289634   3.587   0.886   6.320
29798WAT      O89635   9.530   3.340   6.365
29798WAT     H189636   9.574   3.375   6.448
29798WAT     H289637   9.495   3.248   6.383
29799WAT      O89638   4.733   7.466   0.378
29799WAT     H189639   4.721   7.474   0.279
29799WAT     H289640   4.646   7.485   0.424
29800WAT      O89641   5.045   7.150   4.275
29800WAT     H189642   4.967   7.089   4.291
29800WAT     H289643   5.060   7.160   4.177
29801WAT      O89644   0.081   5.350   2.221
29801WAT     H189645   0.156   5.388   2.168
29801WAT     H289646   0.078   5.250   2.210
29802WAT      O89647   2.906   0.555   7.539
29802WAT     H189648   2.857   0.636   7.505
29802WAT     H289649   2.849   0.508   7.607
29803WAT      O89650   2.273   0.185   0.446
29803WAT     H189651   2.222   0.221   0.524
29803WAT     H289652   2.370   0.205   0.458
29804WAT      O89653   6.211   9.438   3.781
29804WAT     H189654   6.208   9.365   3.714
29804WAT     H289655   6.155   9.515   3.750
29805WAT      O89656   8.717   7.205   8.066
29805WAT     H189657   8.761   7.263   8.136
29805WAT     H289658   8.767   7.215   7.980
29806WAT      O89659   0.926   3.925   9.649
29806WAT     H189660   0.997   3.956   9.586
29806WAT     H289661   0.846   3.895   9.596
29807WAT      O89662   0.680   9.725   9.541
29807WAT     H189663   0.610   9.793   9.564
29807WAT     H289664   0.770   9.759   9.570
29808WAT      O89665   1.195   2.504   6.063
29808WAT     H189666   1.153   2.475   6.149
29808WAT     H289667   1.144   2.465   5.986
29809WAT      O89668   4.296   0.895   5.593
29809WAT     H189669   4.390   0.917   5.619
29809WAT     H289670   4.294   0.804   5.552
29810WAT      O89671   2.233   9.553   6.799
29810WAT     H189672   2.265   9.459   6.797
29810WAT     H289673   2.302   9.610   6.845
29811WAT      O89674   5.330   9.635   5.813
29811WAT     H189675   5.252   9.653   5.872
29811WAT     H289676   5.413   9.675   5.852
29812WAT      O89677   5.562   2.981   7.129
29812WAT     H189678   5.516   2.996   7.041
29812WAT     H289679   5.516   2.908   7.178
29813WAT      O89680   7.156   5.115   8.587
29813WAT     H189681   7.165   5.110   8.687
29813WAT     H289682   7.192   5.202   8.555
29814WAT      O89683   0.946   6.172   0.435
29814WAT     H189684   0.889   6.180   0.354
29814WAT     H289685   0.888   6.162   0.516
29815WAT      O89686   5.951   5.182   3.881
29815WAT     H189687   5.901   5.258   3.924
29815WAT     H289688   5.967   5.111   3.949
29816WAT      O89689   9.041   1.968   3.970
29816WAT     H189690   9.020   2.059   4.004
29816WAT     H289691   9.064   1.972   3.873
29817WAT      O89692   5.957   3.000   1.079
29817WAT     H189693   6.055   2.990   1.093
29817WAT     H289694   5.938   3.087   1.032
29818WAT      O89695   1.461   0.774   1.721
29818WAT     H189696   1.450   0.730   1.810
29818WAT     H289697   1.490   0.706   1.653
29819WAT      O89698   4.625   6.554   2.958
29819WAT     H189699   4.601   6.598   3.045
29819WAT     H289700   4.547   6.502   2.924
29820WAT      O89701   5.425   0.943   5.838
29820WAT     H189702   5.366   0.970   5.914
29820WAT     H289703   5.369   0.906   5.764
29821WAT      O89704   2.388   3.537   7.498
29821WAT     H189705   2.440   3.526   7.583
29821WAT     H289706   2.358   3.447   7.466
29822WAT      O89707   0.741   1.109   7.278
29822WAT     H189708   0.713   1.206   7.279
29822WAT     H289709   0.789   1.088   7.363
29823WAT      O89710   3.075   6.333   1.911
29823WAT     H189711   3.038   6.243   1.888
29823WAT     H289712   3.099   6.382   1.827
29824WAT      O89713   3.633   0.610   4.489
29824WAT     H189714   3.669   0.520   4.512
29824WAT     H289715   3.705   0.664   4.444
29825WAT      O89716   9.055   0.766   5.027
29825WAT     H189717   9.044   0.852   4.978
29825WAT     H289718   8.968   0.717   5.027
29826WAT      O89719   2.801   5.292   3.178
29826WAT     H189720   2.842   5.251   3.259
29826WAT     H289721   2.814   5.231   3.099
29827WAT      O89722   0.840   6.719   8.333
29827WAT     H189723   0.771   6.649   8.352
29827WAT     H289724   0.927   6.675   8.312
29828WAT      O89725   5.770   7.886   3.197
29828WAT     H189726   5.787   7.888   3.099
29828WAT     H289727   5.722   7.801   3.221
29829WAT      O89728   4.048   4.274   2.009
29829WAT     H189729   4.100   4.352   2.044
29829WAT     H289730   4.062   4.267   1.910
29830WAT      O89731   4.886   4.207   8.041
29830WAT     H189732   4.976   4.164   8.031
29830WAT     H289733   4.826   4.148   8.094
29831WAT      O89734   7.604   4.262   0.536
29831WAT     H189735   7.547   4.226   0.610
29831WAT     H289736   7.611   4.361   0.545
29832WAT      O89737   3.789   2.648   7.008
29832WAT     H189738   3.823   2.574   6.949
29832WAT     H289739   3.744   2.608   7.088
29833WAT      O89740   8.346   0.941   3.061
29833WAT     H189741   8.338   1.030   3.106
29833WAT     H289742   8.414   0.886   3.109
29834WAT      O89743   2.542   9.199   0.401
29834WAT     H189744   2.479   9.124   0.383
29834WAT     H289745   2.497   9.286   0.381
29835WAT      O89746   3.727   9.640   0.207
29835WAT     H189747   3.736   9.641   0.107
29835WAT     H289748   3.813   9.671   0.248
29836WAT      O89749   5.936   9.559   7.506
29836WAT     H189750   6.032   9.533   7.499
29836WAT     H289751   5.927   9.658   7.490
29837WAT      O89752   8.533   6.489   2.167
29837WAT     H189753   8.436   6.490   2.141
29837WAT     H289754   8.579   6.413   2.120
29838WAT      O89755   7.353   0.089   7.510
29838WAT     H189756   7.416   0.133   7.574
29838WAT     H289757   7.324   0.155   7.441
29839WAT      O89758   3.391   8.849   4.141
29839WAT     H189759   3.347   8.868   4.229
29839WAT     H289760   3.340   8.894   4.068
29840WAT      O89761   4.951   0.557   3.819
29840WAT     H189762   4.970   0.459   3.826
29840WAT     H289763   4.854   0.574   3.837
29841WAT      O89764   9.310   1.335   7.673
29841WAT     H189765   9.259   1.262   7.718
29841WAT     H289766   9.293   1.422   7.719
29842WAT      O89767   2.301   4.359   4.298
29842WAT     H189768   2.319   4.303   4.378
29842WAT     H289769   2.374   4.347   4.231
29843WAT      O89770   0.683   7.554   1.291
29843WAT     H189771   0.769   7.504   1.296
29843WAT     H289772   0.681   7.608   1.207
29844WAT      O89773   3.491   2.800   2.666
29844WAT     H189774   3.507   2.711   2.709
29844WAT     H289775   3.397   2.828   2.683
29845WAT      O89776   1.979   4.860   5.174
29845WAT     H189777   1.886   4.883   5.203
29845WAT     H289778   2.008   4.924   5.103
29846WAT      O89779   1.156   0.686   9.413
29846WAT     H189780   1.177   0.773   9.369
29846WAT     H289781   1.130   0.702   9.508
29847WAT      O89782   8.302   0.233   6.959
29847WAT     H189783   8.318   0.304   7.028
29847WAT     H289784   8.256   0.156   7.002
29848WAT      O89785   5.430   9.412   8.418
29848WAT     H189786   5.367   9.428   8.493
29848WAT     H289787   5.497   9.343   8.446
29849WAT      O89788   1.123   3.416   0.210
29849WAT     H189789   1.062   3.337   0.213
29849WAT     H289790   1.072   3.499   0.234
29850WAT      O89791   2.290   0.620   8.103
29850WAT     H189792   2.357   0.684   8.140
29850WAT     H289793   2.199   0.641   8.139
29851WAT      O89794   0.367   8.757   0.300
29851WAT     H189795   0.391   8.835   0.242
29851WAT     H289796   0.409   8.674   0.265
29852WAT      O89797   7.124   6.795   2.472
29852WAT     H189798   7.197   6.851   2.512
29852WAT     H289799   7.047   6.853   2.447
29853WAT      O89800   6.312   8.492   4.978
29853WAT     H189801   6.398   8.505   5.027
29853WAT     H289802   6.268   8.580   4.965
29854WAT      O89803   5.414   2.553   6.672
29854WAT     H189804   5.460   2.465   6.667
29854WAT     H289805   5.317   2.542   6.653
29855WAT      O89806   0.061   7.151   1.671
29855WAT     H189807   0.156   7.170   1.643
29855WAT     H289808   0.048   7.178   1.766
29856WAT      O89809   1.613   4.634   1.279
29856WAT     H189810   1.688   4.589   1.328
29856WAT     H289811   1.550   4.565   1.244
29857WAT      O89812   4.564   9.358   3.476
29857WAT     H189813   4.506   9.392   3.402
29857WAT     H289814   4.657   9.394   3.464
29858WAT      O89815   2.260   6.761   8.258
29858WAT     H189816   2.336   6.770   8.322
29858WAT     H289817   2.293   6.722   8.172
29859WAT      O89818   1.373   4.979   5.327
29859WAT     H189819   1.288   4.928   5.336
29859WAT     H289820   1.359   5.059   5.269
29860WAT      O89821   6.362   5.305   2.665
29860WAT     H189822   6.346   5.397   2.631
29860WAT     H289823   6.443   5.304   2.724
29861WAT      O89824   1.946   7.743   2.146
29861WAT     H189825   1.970   7.760   2.242
29861WAT     H289826   2.029   7.716   2.096
29862WAT      O89827   1.332   2.689   6.673
29862WAT     H189828   1.346   2.765   6.609
29862WAT     H289829   1.420   2.661   6.712
29863WAT      O89830   4.240   3.383   0.838
29863WAT     H189831   4.149   3.363   0.876
29863WAT     H289832   4.250   3.482   0.826
29864WAT      O89833   7.091   9.837   5.690
29864WAT     H189834   7.054   9.799   5.605
29864WAT     H289835   7.191   9.845   5.682
29865WAT      O89836   4.052   3.458   7.698
29865WAT     H189837   4.126   3.393   7.678
29865WAT     H289838   4.075   3.547   7.659
29866WAT      O89839   4.592   5.805   4.795
29866WAT     H189840   4.594   5.716   4.749
29866WAT     H289841   4.508   5.853   4.771
29867WAT      O89842   3.406   9.487   1.195
29867WAT     H189843   3.427   9.520   1.287
29867WAT     H289844   3.397   9.564   1.133
29868WAT      O89845   5.068   4.113   0.301
29868WAT     H189846   5.133   4.154   0.237
29868WAT     H289847   5.112   4.100   0.390
29869WAT      O89848   3.426   7.636   2.065
29869WAT     H189849   3.509   7.691   2.068
29869WAT     H289850   3.443   7.547   2.106
29870WAT      O89851   1.830   4.391   2.165
29870WAT     H189852   1.831   4.351   2.256
29870WAT     H289853   1.841   4.319   2.097
29871WAT      O89854   0.699   7.866   4.824
29871WAT     H189855   0.726   7.963   4.822
29871WAT     H289856   0.730   7.821   4.740
29872WAT      O89857   7.197   6.715   3.556
29872WAT     H189858   7.145   6.794   3.589
29872WAT     H289859   7.135   6.648   3.516
29873WAT      O89860   7.857   7.581   7.482
29873WAT     H189861   7.932   7.559   7.419
29873WAT     H289862   7.894   7.602   7.572
29874WAT      O89863   1.405   8.608   5.118
29874WAT     H189864   1.338   8.660   5.066
29874WAT     H289865   1.436   8.662   5.197
29875WAT      O89866   2.035   9.105   8.949
29875WAT     H189867   2.083   9.075   8.866
29875WAT     H289868   2.100   9.108   9.025
29876WAT      O89869   8.606   0.764   8.971
29876WAT     H189870   8.685   0.821   8.994
29876WAT     H289871   8.536   0.822   8.929
29877WAT      O89872   9.590   4.117   6.389
29877WAT     H189873   9.609   4.085   6.482
29877WAT     H289874   9.517   4.186   6.392
29878WAT      O89875   5.296   8.408   1.545
29878WAT     H189876   5.206   8.431   1.580
29878WAT     H289877   5.364   8.418   1.617
29879WAT      O89878   2.802   3.689   9.782
29879WAT     H189879   2.707   3.664   9.799
29879WAT     H289880   2.829   3.656   9.692
29880WAT      O89881   1.171   4.107   1.896
29880WAT     H189882   1.265   4.105   1.862
29880WAT     H289883   1.168   4.159   1.982
29881WAT      O89884   5.036   8.252   1.226
29881WAT     H189885   4.944   8.289   1.220
29881WAT     H289886   5.048   8.204   1.313
29882WAT      O89887   9.591   1.874   9.760
29882WAT     H189888   9.594   1.836   9.852
29882WAT     H289889   9.496   1.889   9.733
29883WAT      O89890   1.387   7.144   4.737
29883WAT     H189891   1.424   7.213   4.799
29883WAT     H289892   1.328   7.187   4.669
29884WAT      O89893   8.752   3.147   6.003
29884WAT     H189894   8.753   3.124   5.905
29884WAT     H289895   8.784   3.068   6.055
29885WAT      O89896   5.350   4.094   8.254
29885WAT     H189897   5.415   4.135   8.318
29885WAT     H289898   5.287   4.165   8.222
29886WAT      O89899   5.624   7.706   6.938
29886WAT     H189900   5.549   7.755   6.893
29886WAT     H289901   5.629   7.735   7.034
29887WAT      O89902   8.389   0.593   6.722
29887WAT     H189903   8.326   0.664   6.691
29887WAT     H289904   8.339   0.507   6.733
29888WAT      O89905   4.413   7.211   7.101
29888WAT     H189906   4.342   7.142   7.113
29888WAT     H289907   4.492   7.170   7.057
29889WAT      O89908   6.591   2.967   4.802
29889WAT     H189909   6.568   3.047   4.857
29889WAT     H289910   6.582   2.884   4.857
29890WAT      O89911   4.695   6.487   4.072
29890WAT     H189912   4.751   6.540   4.009
29890WAT     H289913   4.745   6.475   4.158
29891WAT      O89914   0.044   6.596   4.690
29891WAT     H189915   0.062   6.585   4.593
29891WAT     H289916  -0.053   6.612   4.705
29892WAT      O89917   7.453   1.769   6.197
29892WAT     H189918   7.387   1.840   6.224
29892WAT     H289919   7.414   1.713   6.124
29893WAT      O89920   2.839   5.653   1.234
29893WAT     H189921   2.831   5.564   1.278
29893WAT     H289922   2.772   5.659   1.160
29894WAT      O89923   3.056   9.163   8.705
29894WAT     H189924   3.119   9.224   8.657
29894WAT     H289925   2.984   9.218   8.748
29895WAT      O89926   8.215   2.883   9.169
29895WAT     H189927   8.132   2.883   9.113
29895WAT     H289928   8.200   2.938   9.251
29896WAT      O89929   0.743   7.315   4.126
29896WAT     H189930   0.813   7.384   4.145
29896WAT     H289931   0.693   7.294   4.209
29897WAT      O89932   6.552   8.169   7.280
29897WAT     H189933   6.636   8.132   7.240
29897WAT     H289934   6.554   8.269   7.275
29898WAT      O89935   4.935   3.302   2.969
29898WAT     H189936   4.957   3.392   3.006
29898WAT     H289937   4.954   3.232   3.038
29899WAT      O89938   2.797   8.541   2.122
29899WAT     H189939   2.789   8.490   2.207
29899WAT     H289940   2.893   8.564   2.106
29900WAT      O89941   2.851   2.462   9.743
29900WAT     H189942   2.902   2.407   9.677
29900WAT     H289943   2.906   2.541   9.770
29901WAT      O89944   4.906   3.504   4.057
29901WAT     H189945   4.884   3.445   4.134
29901WAT     H289946   4.825   3.516   4.000
29902WAT      O89947   7.929   2.217   2.448
29902WAT     H189948   7.875   2.301   2.448
29902WAT     H289949   7.968   2.202   2.539
29903WAT      O89950   4.120   4.597   2.677
29903WAT     H189951   4.096   4.505   2.709
29903WAT     H289952   4.168   4.590   2.590
29904WAT      O89953   2.064   3.834   8.654
29904WAT     H189954   2.126   3.815   8.578
29904WAT     H289955   1.994   3.762   8.660
29905WAT      O89956   6.664   3.032   3.337
29905WAT     H189957   6.686   3.107   3.275
29905WAT     H289958   6.652   2.947   3.284
29906WAT      O89959   2.805   6.362   7.980
29906WAT     H189960   2.881   6.358   7.916
29906WAT     H289961   2.770   6.270   7.998
29907WAT      O89962   9.016   1.064   5.731
29907WAT     H189963   9.003   0.973   5.770
29907WAT     H289964   8.951   1.078   5.656
29908WAT      O89965   1.385   2.327   2.019
29908WAT     H189966   1.365   2.237   1.980
29908WAT     H289967   1.403   2.318   2.117
29909WAT      O89968   1.829   8.165   7.206
29909WAT     H189969   1.902   8.158   7.275
29909WAT     H289970   1.774   8.081   7.209
29910WAT      O89971   8.581   5.249   0.821
29910WAT     H189972   8.492   5.259   0.866
29910WAT     H289973   8.567   5.235   0.723
29911WAT      O89974   7.521   2.401   8.284
29911WAT     H189975   7.450   2.465   8.311
29911WAT     H289976   7.481   2.326   8.231
29912WAT      O89977   5.286   1.941   4.668
29912WAT     H189978   5.279   1.922   4.570
29912WAT     H289979   5.302   2.038   4.682
29913WAT      O89980   5.840   3.175   3.890
29913WAT     H189981   5.897   3.188   3.809
29913WAT     H289982   5.889   3.210   3.970
29914WAT      O89983   0.388   8.034   5.535
29914WAT     H189984   0.306   8.032   5.592
29914WAT     H289985   0.380   8.108   5.468
29915WAT      O89986   4.134   6.452   4.098
29915WAT     H189987   4.084   6.538   4.087
29915WAT     H289988   4.124   6.420   4.192
29916WAT      O89989   7.279   6.851   4.336
29916WAT     H189990   7.285   6.944   4.372
29916WAT     H289991   7.371   6.817   4.316
29917WAT      O89992   1.189   4.093   9.669
29917WAT     H189993   1.157   4.074   9.576
29917WAT     H289994   1.288   4.102   9.669
29918WAT      O89995   8.424   4.967   4.082
29918WAT     H189996   8.364   4.909   4.027
29918WAT     H289997   8.477   4.911   4.146
29919WAT      O89998   9.535   7.965   6.566
29919WAT     H189999   9.473   8.024   6.619
29919WAT     H290000   9.592   8.022   6.507
29920WAT      O90001   6.916   6.264   2.864
29920WAT     H190002   6.875   6.174   2.881
29920WAT     H290003   7.001   6.272   2.916
29921WAT      O90004   7.569   6.582   3.062
29921WAT     H190005   7.485   6.625   3.097
29921WAT     H290006   7.561   6.570   2.963
29922WAT      O90007   7.564   3.850   8.585
29922WAT     H190008   7.624   3.927   8.565
29922WAT     H290009   7.472   3.883   8.605
29923WAT      O90010   9.169   1.985   3.085
29923WAT     H190011   9.233   1.939   3.023
29923WAT     H290012   9.193   2.082   3.092
29924WAT      O90013   6.637   0.230   2.806
29924WAT     H190014   6.670   0.320   2.779
29924WAT     H290015   6.710   0.179   2.851
29925WAT      O90016   7.465   7.006   8.907
29925WAT     H190017   7.464   6.936   8.836
29925WAT     H290018   7.430   6.968   8.993
29926WAT      O90019   5.990   4.177   4.737
29926WAT     H190020   5.973   4.245   4.808
29926WAT     H290021   5.906   4.160   4.686
29927WAT      O90022   5.316   7.525   7.261
29927WAT     H190023   5.363   7.527   7.350
29927WAT     H290024   5.232   7.471   7.269
29928WAT      O90025   5.789   9.621   7.733
29928WAT     H190026   5.841   9.586   7.655
29928WAT     H290027   5.698   9.648   7.702
29929WAT      O90028   8.753   1.781   6.705
29929WAT     H190029   8.705   1.779   6.617
29929WAT     H290030   8.843   1.739   6.696
29930WAT      O90031   3.485   7.037   6.093
29930WAT     H190032   3.577   7.002   6.107
29930WAT     H290033   3.449   7.073   6.179
29931WAT      O90034   3.393   2.094   6.900
29931WAT     H190035   3.476   2.150   6.908
29931WAT     H290036   3.378   2.044   6.986
29932WAT      O90037   0.845   5.930   6.482
29932WAT     H190038   0.773   5.882   6.432
29932WAT     H290039   0.822   5.934   6.579
29933WAT      O90040   2.835   3.473   0.513
29933WAT     H190041   2.912   3.473   0.577
29933WAT     H290042   2.853   3.405   0.441
29934WAT      O90043   8.115   0.049   7.529
29934WAT     H190044   8.018   0.047   7.553
29934WAT     H290045   8.170   0.039   7.611
29935WAT      O90046   4.814   1.364   3.501
29935WAT     H190047   4.726   1.394   3.464
29935WAT     H290048   4.860   1.441   3.545
29936WAT      O90049   9.441   3.504   7.970
29936WAT     H190050   9.369   3.501   7.900
29936WAT     H290051   9.403   3.481   8.059
29937WAT      O90052   2.764   6.968   6.389
29937WAT     H190053   2.805   7.058   6.402
29937WAT     H290054   2.837   6.900   6.380
29938WAT      O90055   3.947   2.024   7.810
29938WAT     H190056   4.029   2.003   7.756
29938WAT     H290057   3.871   1.966   7.780
29939WAT      O90058   1.317   3.605   2.580
29939WAT     H190059   1.291   3.553   2.661
29939WAT     H290060   1.375   3.549   2.521
29940WAT      O90061   6.258   6.218   2.672
29940WAT     H190062   6.237   6.135   2.725
29940WAT     H290063   6.204   6.295   2.707
29941WAT      O90064   2.151   6.922   6.010
29941WAT     H190065   2.110   6.962   6.092
29941WAT     H290066   2.140   6.822   6.013
29942WAT      O90067   4.474   0.377   7.299
29942WAT     H190068   4.425   0.294   7.271
29942WAT     H290069   4.415   0.432   7.358
29943WAT      O90070   2.860   8.420   0.188
29943WAT     H190071   2.957   8.443   0.184
29943WAT     H290072   2.842   8.366   0.270
29944WAT      O90073   2.666   8.141   1.790
29944WAT     H190074   2.569   8.117   1.778
29944WAT     H290075   2.692   8.127   1.885
29945WAT      O90076   2.439   6.648   5.030
29945WAT     H190077   2.387   6.704   4.966
29945WAT     H290078   2.413   6.552   5.021
29946WAT      O90079   9.690   3.747   1.511
29946WAT     H190080   9.724   3.714   1.599
29946WAT     H290081   9.642   3.833   1.524
29947WAT      O90082   7.559   1.109   1.490
29947WAT     H190083   7.570   1.205   1.464
29947WAT     H290084   7.503   1.063   1.421
29948WAT      O90085   0.332   2.218   6.008
29948WAT     H190086   0.269   2.271   5.951
29948WAT     H290087   0.322   2.121   5.989
29949WAT      O90088   5.963   1.300   9.102
29949WAT     H190089   6.050   1.316   9.149
29949WAT     H290090   5.970   1.329   9.007
29950WAT      O90091   4.517   1.499   5.328
29950WAT     H190092   4.518   1.469   5.424
29950WAT     H290093   4.423   1.521   5.302
29951WAT      O90094   8.237   2.500   9.837
29951WAT     H190095   8.249   2.596   9.863
29951WAT     H290096   8.306   2.444   9.882
29952WAT      O90097   3.801   5.976   2.552
29952WAT     H190098   3.792   5.979   2.453
29952WAT     H290099   3.866   5.906   2.579
29953WAT      O90100   4.967   7.895   5.947
29953WAT     H190101   4.903   7.908   5.872
29953WAT     H290102   5.009   7.982   5.972
29954WAT      O90103   2.732   4.463   4.674
29954WAT     H190104   2.652   4.408   4.697
29954WAT     H290105   2.770   4.502   4.758
29955WAT      O90106   8.181   4.576   1.066
29955WAT     H190107   8.239   4.578   1.147
29955WAT     H290108   8.156   4.669   1.040
29956WAT      O90109   7.014   2.692   6.892
29956WAT     H190110   7.013   2.650   6.983
29956WAT     H290111   7.079   2.768   6.890
29957WAT      O90112   6.633   3.637   0.635
29957WAT     H190113   6.651   3.590   0.720
29957WAT     H290114   6.719   3.661   0.590
29958WAT      O90115   4.127   1.887   3.064
29958WAT     H190116   4.051   1.889   2.999
29958WAT     H290117   4.206   1.935   3.025
29959WAT      O90118   4.115   5.649   2.310
29959WAT     H190119   4.184   5.602   2.364
29959WAT     H290120   4.081   5.728   2.361
29960WAT      O90121   6.312   0.738   4.848
29960WAT     H190122   6.327   0.791   4.931
29960WAT     H290123   6.339   0.643   4.863
29961WAT      O90124   0.328   6.051   4.062
29961WAT     H190125   0.305   6.121   4.129
29961WAT     H290126   0.340   5.963   4.108
29962WAT      O90127   5.716   0.770   5.489
29962WAT     H190128   5.635   0.745   5.435
29962WAT     H290129   5.797   0.768   5.430
29963WAT      O90130   7.852   1.074   1.860
29963WAT     H190131   7.908   1.126   1.925
29963WAT     H290132   7.818   1.135   1.789
29964WAT      O90133   6.566   2.936   7.791
29964WAT     H190134   6.493   3.004   7.793
29964WAT     H290135   6.529   2.849   7.758
29965WAT      O90136   0.708   2.522   9.250
29965WAT     H190137   0.803   2.503   9.224
29965WAT     H290138   0.693   2.620   9.248
29966WAT      O90139   8.458   6.256   7.307
29966WAT     H190140   8.404   6.338   7.289
29966WAT     H290141   8.398   6.185   7.344
29967WAT      O90142   5.423   2.483   4.269
29967WAT     H190143   5.522   2.473   4.275
29967WAT     H290144   5.397   2.503   4.175
29968WAT      O90145   4.714   3.673   0.825
29968WAT     H190146   4.749   3.668   0.919
29968WAT     H290147   4.640   3.608   0.814
29969WAT      O90148   3.826   0.033   1.079
29969WAT     H190149   3.796   0.042   1.174
29969WAT     H290150   3.767   0.088   1.020
29970WAT      O90151   8.034   8.087   7.215
29970WAT     H190152   8.024   8.117   7.309
29970WAT     H290153   8.070   8.162   7.159
29971WAT      O90154   8.963   9.211   2.539
29971WAT     H190155   8.987   9.167   2.625
29971WAT     H290156   8.984   9.309   2.544
29972WAT      O90157   8.057   8.751   4.744
29972WAT     H190158   7.979   8.733   4.804
29972WAT     H290159   8.079   8.849   4.748
29973WAT      O90160   7.249   0.390   0.578
29973WAT     H190161   7.227   0.316   0.642
29973WAT     H290162   7.166   0.417   0.530
29974WAT      O90163   9.791   8.076   1.817
29974WAT     H190164   9.824   7.985   1.791
29974WAT     H290165   9.699   8.068   1.856
29975WAT      O90166   8.480   1.829   3.574
29975WAT     H190167   8.462   1.850   3.478
29975WAT     H290168   8.395   1.835   3.626
29976WAT      O90169   1.489   2.258   3.865
29976WAT     H190170   1.431   2.336   3.842
29976WAT     H290171   1.538   2.228   3.783
29977WAT      O90172   6.446   0.252   6.456
29977WAT     H190173   6.438   0.314   6.534
29977WAT     H290174   6.370   0.187   6.457
29978WAT      O90175   1.838   9.284   7.961
29978WAT     H190176   1.846   9.236   8.049
29978WAT     H290177   1.853   9.219   7.886
29979WAT      O90178   7.060   6.959   6.238
29979WAT     H190179   7.087   6.863   6.231
29979WAT     H290180   7.140   7.015   6.262
29980WAT      O90181   6.557   3.702   2.045
29980WAT     H190182   6.611   3.627   2.008
29980WAT     H290183   6.541   3.687   2.142
29981WAT      O90184   2.527   2.465   0.985
29981WAT     H190185   2.537   2.434   1.080
29981WAT     H290186   2.601   2.427   0.930
29982WAT      O90187   3.464   6.144   8.929
29982WAT     H190188   3.532   6.206   8.889
29982WAT     H290189   3.446   6.069   8.866
29983WAT      O90190   3.116   8.162   1.531
29983WAT     H190191   3.124   8.082   1.590
29983WAT     H290192   3.207   8.200   1.513
29984WAT      O90193   1.766   1.023   8.411
29984WAT     H190194   1.789   1.060   8.320
29984WAT     H290195   1.710   0.941   8.400
29985WAT      O90196   0.557   7.235   4.317
29985WAT     H190197   0.629   7.219   4.384
29985WAT     H290198   0.489   7.162   4.322
29986WAT      O90199   7.272   8.972   5.427
29986WAT     H190200   7.251   8.887   5.379
29986WAT     H290201   7.254   8.960   5.525
29987WAT      O90202   8.115   6.727   3.144
29987WAT     H190203   8.195   6.766   3.098
29987WAT     H290204   8.143   6.647   3.197
29988WAT      O90205   8.646   0.693   1.148
29988WAT     H190206   8.699   0.718   1.067
29988WAT     H290207   8.667   0.598   1.174
29989WAT      O90208   4.503   7.420   9.704
29989WAT     H190209   4.574   7.474   9.750
29989WAT     H290210   4.547   7.359   9.637
29990WAT      O90211   5.525   2.930   0.282
29990WAT     H190212   5.466   3.010   0.268
29990WAT     H290213   5.593   2.926   0.208
29991WAT      O90214   5.299   0.499   5.036
29991WAT     H190215   5.274   0.585   5.081
29991WAT     H290216   5.231   0.429   5.059
29992WAT      O90217   9.266   7.256   4.017
29992WAT     H190218   9.168   7.236   4.012
29992WAT     H290219   9.292   7.275   4.112
29993WAT      O90220   7.716   8.067   9.158
29993WAT     H190221   7.634   8.070   9.101
29993WAT     H290222   7.691   8.076   9.254
29994WAT      O90223   8.272   0.841   5.625
29994WAT     H190224   8.264   0.780   5.704
29994WAT     H290225   8.183   0.846   5.579
29995WAT      O90226   6.292   8.012   4.058
29995WAT     H190227   6.225   8.072   4.013
29995WAT     H290228   6.378   8.062   4.069
29996WAT      O90229   5.302   3.709   2.260
29996WAT     H190230   5.225   3.760   2.300
29996WAT     H290231   5.301   3.719   2.161
29997WAT      O90232   2.274   3.130   6.035
29997WAT     H190233   2.298   3.218   5.994
29997WAT     H290234   2.210   3.145   6.111
29998WAT      O90235   3.918   3.652   4.625
29998WAT     H190236   4.014   3.628   4.639
29998WAT     H290237   3.881   3.692   4.709
29999WAT      O90238   6.317   0.310   9.240
29999WAT     H190239   6.319   0.408   9.221
29999WAT     H290240   6.311   0.295   9.339
30000WAT      O90241   2.779   1.789   3.739
30000WAT     H190242   2.871   1.803   3.702
30000WAT     H290243   2.723   1.743   3.670
30001WAT      O90244   7.255   1.038   9.778
30001WAT     H190245   7.344   1.081   9.764
30001WAT     H290246   7.257   0.984   9.862
30002WAT      O90247  -0.000   1.264   7.098
30002WAT     H190248   0.050   1.268   7.184
30002WAT     H290249   0.014   1.174   7.055
30003WAT      O90250   6.149   1.604   7.520
30003WAT     H190251   6.116   1.632   7.430
30003WAT     H290252   6.082   1.630   7.590
30004WAT      O90253   7.543   6.173   9.707
30004WAT     H190254   7.593   6.098   9.664
30004WAT     H290255   7.455   6.185   9.660
30005WAT      O90256   8.040   3.904   4.070
30005WAT     H190257   8.008   3.992   4.035
30005WAT     H290258   7.964   3.856   4.115
30006WAT      O90259   5.632   6.429   8.775
30006WAT     H190260   5.604   6.349   8.829
30006WAT     H290261   5.693   6.487   8.829
30007WAT      O90262   3.537   6.475   0.452
30007WAT     H190263   3.565   6.419   0.373
30007WAT     H290264   3.612   6.535   0.478
30008WAT      O90265   6.963   9.825   1.600
30008WAT     H190266   6.985   9.752   1.665
30008WAT     H290267   6.980   9.792   1.507
30009WAT      O90268   2.581   2.490   3.349
30009WAT     H190269   2.622   2.568   3.299
30009WAT     H290270   2.487   2.512   3.373
30010WAT      O90271   5.643   9.681   1.756
30010WAT     H190272   5.696   9.658   1.675
30010WAT     H290273   5.675   9.768   1.794
30011WAT      O90274   2.363   2.738   6.262
30011WAT     H190275   2.335   2.657   6.313
30011WAT     H290276   2.305   2.815   6.287
30012WAT      O90277   1.712   4.633   5.778
30012WAT     H190278   1.740   4.576   5.855
30012WAT     H290279   1.780   4.705   5.764
30013WAT      O90280   4.036   1.154   1.117
30013WAT     H190281   4.054   1.175   1.021
30013WAT     H290282   4.001   1.235   1.163
30014WAT      O90283   1.911   5.821   6.200
30014WAT     H190284   1.835   5.885   6.211
30014WAT     H290285   1.928   5.805   6.103
30015WAT      O90286   7.980   1.245   2.597
30015WAT     H190287   8.049   1.259   2.526
30015WAT     H290288   8.016   1.185   2.668
30016WAT      O90289   2.838   3.549   2.520
30016WAT     H190290   2.750   3.519   2.483
30016WAT     H290291   2.902   3.472   2.519
30017WAT      O90292   1.331   5.735   0.529
30017WAT     H190293   1.312   5.772   0.438
30017WAT     H290294   1.396   5.659   0.521
30018WAT      O90295   8.834   3.323   4.053
30018WAT     H190296   8.923   3.303   4.094
30018WAT     H290297   8.845   3.331   3.954
30019WAT      O90298   7.419   6.636   4.977
30019WAT     H190299   7.394   6.546   4.942
30019WAT     H290300   7.397   6.706   4.910
30020WAT      O90301   1.411   0.430   7.862
30020WAT     H190302   1.411   0.394   7.955
30020WAT     H290303   1.318   0.431   7.826
30021WAT      O90304   1.458   6.131   8.123
30021WAT     H190305   1.440   6.055   8.061
30021WAT     H290306   1.533   6.186   8.087
30022WAT      O90307   8.881   3.019   1.953
30022WAT     H190308   8.812   3.067   2.007
30022WAT     H290309   8.970   3.027   1.998
30023WAT      O90310   7.770   7.031   6.124
30023WAT     H190311   7.736   6.937   6.132
30023WAT     H290312   7.730   7.074   6.044
30024WAT      O90313   5.948   2.887   0.713
30024WAT     H190314   6.006   2.820   0.667
30024WAT     H290315   6.005   2.955   0.759
30025WAT      O90316   4.933   0.652   1.085
30025WAT     H190317   4.857   0.679   1.026
30025WAT     H290318   4.897   0.605   1.166
30026WAT      O90319   8.561   8.484   8.971
30026WAT     H190320   8.583   8.389   8.991
30026WAT     H290321   8.478   8.510   9.020
30027WAT      O90322   9.678   4.209   8.460
30027WAT     H190323   9.749   4.164   8.513
30027WAT     H290324   9.599   4.148   8.451
30028WAT      O90325   8.047   0.864   0.513
30028WAT     H190326   7.949   0.847   0.501
30028WAT     H290327   8.082   0.913   0.433
30029WAT      O90328   2.497   8.071   5.812
30029WAT     H190329   2.491   8.061   5.713
30029WAT     H290330   2.540   7.991   5.852
30030WAT      O90331   4.628   8.734   8.035
30030WAT     H190332   4.591   8.738   7.943
30030WAT     H290333   4.570   8.786   8.097
30031WAT      O90334   6.467   4.908   0.522
30031WAT     H190335   6.499   4.988   0.572
30031WAT     H290336   6.377   4.926   0.483
30032WAT      O90337   2.098   5.922   2.273
30032WAT     H190338   2.085   5.884   2.365
30032WAT     H290339   2.027   5.990   2.255
30033WAT      O90340   9.617   5.589   3.490
30033WAT     H190341   9.603   5.515   3.424
30033WAT     H290342   9.571   5.567   3.576
30034WAT      O90343   8.312   5.923   7.801
30034WAT     H190344   8.391   5.910   7.861
30034WAT     H290345   8.316   5.857   7.726
30035WAT      O90346   9.509   3.784   2.015
30035WAT     H190347   9.471   3.806   2.105
30035WAT     H290348   9.599   3.742   2.026
30036WAT      O90349   6.860   7.676   9.400
30036WAT     H190350   6.847   7.745   9.329
30036WAT     H290351   6.798   7.599   9.384
30037WAT      O90352   3.859   9.265   7.999
30037WAT     H190353   3.824   9.333   8.064
30037WAT     H290354   3.872   9.308   7.910
30038WAT      O90355   0.573   2.676   5.242
30038WAT     H190356   0.650   2.704   5.184
30038WAT     H290357   0.606   2.650   5.332
30039WAT      O90358   5.672   7.838   4.695
30039WAT     H190359   5.678   7.889   4.609
30039WAT     H290360   5.616   7.890   4.760
30040WAT      O90361   4.476   4.359   9.498
30040WAT     H190362   4.405   4.426   9.517
30040WAT     H290363   4.484   4.296   9.575
30041WAT      O90364   3.055   5.813   7.580
30041WAT     H190365   3.010   5.744   7.524
30041WAT     H290366   3.098   5.882   7.521
30042WAT      O90367   8.538   3.919   7.400
30042WAT     H190368   8.594   3.930   7.482
30042WAT     H290369   8.476   3.997   7.391
30043WAT      O90370   1.535   3.755   9.044
30043WAT     H190371   1.478   3.727   9.121
30043WAT     H290372   1.625   3.714   9.053
30044WAT      O90373   4.257   7.566   8.137
30044WAT     H190374   4.324   7.532   8.071
30044WAT     H290375   4.277   7.662   8.159
30045WAT      O90376   1.242   9.461   8.379
30045WAT     H190377   1.225   9.537   8.316
30045WAT     H290378   1.307   9.397   8.337
30046WAT      O90379   7.308   2.545   5.329
30046WAT     H190380   7.304   2.473   5.399
30046WAT     H290381   7.317   2.634   5.373
30047WAT      O90382   1.963   5.610   0.622
30047WAT     H190383   2.043   5.652   0.579
30047WAT     H290384   1.982   5.513   0.640
30048WAT      O90385   3.936   8.540   9.378
30048WAT     H190386   3.839   8.521   9.388
30048WAT     H290387   3.949   8.613   9.310
30049WAT      O90388   6.732   6.654   4.707
30049WAT     H190389   6.680   6.739   4.702
30049WAT     H290390   6.802   6.662   4.778
30050WAT      O90391   9.113   0.072   3.250
30050WAT     H190392   9.110   0.083   3.350
30050WAT     H290393   9.131  -0.024   3.227
30051WAT      O90394   9.487   5.039   4.172
30051WAT     H190395   9.514   4.942   4.173
30051WAT     H290396   9.567   5.095   4.151
30052WAT      O90397   2.668   8.210   2.690
30052WAT     H190398   2.700   8.301   2.716
30052WAT     H290399   2.623   8.166   2.768
30053WAT      O90400   3.457   8.456   4.370
30053WAT     H190401   3.445   8.553   4.394
30053WAT     H290402   3.412   8.399   4.439
30054WAT      O90403   0.609   5.439   0.745
30054WAT     H190404   0.691   5.432   0.801
30054WAT     H290405   0.618   5.380   0.665
30055WAT      O90406   5.451   4.504   4.944
30055WAT     H190407   5.459   4.603   4.938
30055WAT     H290408   5.450   4.476   5.040
30056WAT      O90409   2.445   6.652   2.469
30056WAT     H190410   2.425   6.737   2.420
30056WAT     H290411   2.482   6.585   2.405
30057WAT      O90412   0.410   6.486   2.977
30057WAT     H190413   0.505   6.516   2.981
30057WAT     H290414   0.407   6.387   2.962
30058WAT      O90415   0.158   4.983   6.487
30058WAT     H190416   0.205   4.910   6.537
30058WAT     H290417   0.059   4.975   6.501
30059WAT      O90418   6.317   0.831   4.611
30059WAT     H190419   6.229   0.838   4.564
30059WAT     H290420   6.308   0.770   4.690
30060WAT      O90421   5.693   3.475   3.831
30060WAT     H190422   5.619   3.541   3.841
30060WAT     H290423   5.760   3.489   3.904
30061WAT      O90424   5.079   9.296   9.644
30061WAT     H190425   5.024   9.376   9.666
30061WAT     H290426   5.124   9.310   9.555
30062WAT      O90427   3.855   0.447   4.334
30062WAT     H190428   3.904   0.362   4.315
30062WAT     H290429   3.831   0.492   4.248
30063WAT      O90430   5.065   2.380   4.117
30063WAT     H190431   5.141   2.315   4.120
30063WAT     H290432   5.005   2.365   4.195
30064WAT      O90433   3.081   7.874   3.940
30064WAT     H190434   2.994   7.875   3.988
30064WAT     H290435   3.068   7.834   3.849
30065WAT      O90436   2.110   3.491   2.487
30065WAT     H190437   2.017   3.479   2.520
30065WAT     H290438   2.113   3.475   2.388
30066WAT      O90439   6.192   8.298   6.320
30066WAT     H190440   6.144   8.210   6.327
30066WAT     H290441   6.140   8.360   6.262
30067WAT      O90442   9.743   7.534   6.610
30067WAT     H190443   9.682   7.612   6.626
30067WAT     H290444   9.835   7.567   6.589
30068WAT      O90445   7.353   0.816   2.467
30068WAT     H190446   7.279   0.795   2.404
30068WAT     H290447   7.349   0.913   2.492
30069WAT      O90448   1.525   8.901   4.987
30069WAT     H190449   1.503   8.861   5.076
30069WAT     H290450   1.593   8.974   4.999
30070WAT      O90451   5.147   1.233   8.874
30070WAT     H190452   5.186   1.307   8.930
30070WAT     H290453   5.199   1.149   8.888
30071WAT      O90454   9.566   9.359   4.300
30071WAT     H190455   9.543   9.274   4.346
30071WAT     H290456   9.541   9.437   4.358
30072WAT      O90457   6.411   7.210   0.271
30072WAT     H190458   6.343   7.183   0.203
30072WAT     H290459   6.492   7.245   0.224
30073WAT      O90460   1.244   7.742   4.080
30073WAT     H190461   1.292   7.812   4.132
30073WAT     H290462   1.146   7.758   4.085
30074WAT      O90463   6.530   9.538   4.891
30074WAT     H190464   6.434   9.565   4.880
30074WAT     H290465   6.588   9.619   4.886
30075WAT      O90466   8.935   2.189   2.315
30075WAT     H190467   9.032   2.180   2.338
30075WAT     H290468   8.880   2.178   2.397
30076WAT      O90469   5.938   0.984   4.824
30076WAT     H190470   5.941   0.886   4.803
30076WAT     H290471   5.846   1.007   4.856
30077WAT      O90472   4.506   9.009   8.737
30077WAT     H190473   4.596   8.999   8.779
30077WAT     H290474   4.493   9.104   8.710
30078WAT      O90475   0.219   2.135   2.331
30078WAT     H190476   0.142   2.098   2.279
30078WAT     H290477   0.204   2.118   2.429
30079WAT      O90478   8.319   5.211   1.526
30079WAT     H190479   8.284   5.131   1.574
30079WAT     H290480   8.400   5.246   1.574
30080WAT      O90481   2.844   0.007   9.790
30080WAT     H190482   2.937   0.009   9.755
30080WAT     H290483   2.819  -0.087   9.814
30081WAT      O90484   9.725   2.444   7.666
30081WAT     H190485   9.774   2.432   7.753
30081WAT     H290486   9.766   2.385   7.596
30082WAT      O90487   8.288   4.137   6.550
30082WAT     H190488   8.221   4.204   6.518
30082WAT     H290489   8.370   4.141   6.493
30083WAT      O90490   2.662   0.174   7.394
30083WAT     H190491   2.688   0.171   7.491
30083WAT     H290492   2.563   0.159   7.387
30084WAT      O90493   5.152   4.123   7.265
30084WAT     H190494   5.093   4.082   7.335
30084WAT     H290495   5.221   4.056   7.236
30085WAT      O90496   9.503   7.025   1.652
30085WAT     H190497   9.478   6.936   1.613
30085WAT     H290498   9.423   7.084   1.655
30086WAT      O90499   2.837   5.345   3.796
30086WAT     H190500   2.920   5.300   3.765
30086WAT     H290501   2.829   5.337   3.895
30087WAT      O90502   6.843   6.336   2.200
30087WAT     H190503   6.927   6.287   2.223
30087WAT     H290504   6.866   6.430   2.171
30088WAT      O90505   0.793   6.551   2.635
30088WAT     H190506   0.801   6.493   2.717
30088WAT     H290507   0.706   6.534   2.590
30089WAT      O90508   4.965   5.527   9.629
30089WAT     H190509   5.005   5.618   9.615
30089WAT     H290510   4.978   5.499   9.724
30090WAT      O90511   4.393   6.886   8.760
30090WAT     H190512   4.360   6.966   8.811
30090WAT     H290513   4.315   6.835   8.724
30091WAT      O90514   9.649   0.947   9.151
30091WAT     H190515   9.711   0.999   9.092
30091WAT     H290516   9.572   0.914   9.097
30092WAT      O90517   1.990   6.324   9.275
30092WAT     H190518   2.056   6.293   9.344
30092WAT     H290519   2.031   6.319   9.184
30093WAT      O90520   9.561   4.070   1.253
30093WAT     H190521   9.628   4.021   1.198
30093WAT     H290522   9.514   4.138   1.197
30094WAT      O90523   9.437   3.030   0.963
30094WAT     H190524   9.447   2.938   0.924
30094WAT     H290525   9.442   3.025   1.062
30095WAT      O90526   4.642   1.157   0.499
30095WAT     H190527   4.674   1.150   0.594
30095WAT     H290528   4.719   1.181   0.440
30096WAT      O90529   4.666   1.450   0.458
30096WAT     H190530   4.668   1.442   0.359
30096WAT     H290531   4.664   1.358   0.498
30097WAT      O90532   9.099   2.008   0.310
30097WAT     H190533   9.017   1.954   0.294
30097WAT     H290534   9.107   2.078   0.238
30098WAT      O90535   6.717   2.761   3.880
30098WAT     H190536   6.777   2.706   3.937
30098WAT     H290537   6.770   2.804   3.807
30099WAT      O90538   8.185   6.650   7.562
30099WAT     H190539   8.144   6.565   7.530
30099WAT     H290540   8.166   6.662   7.659
30100WAT      O90541   5.496   8.843   7.867
30100WAT     H190542   5.543   8.807   7.786
30100WAT     H290543   5.398   8.852   7.847
30101WAT      O90544   8.202   9.469   9.685
30101WAT     H190545   8.242   9.379   9.701
30101WAT     H290546   8.103   9.463   9.692
30102WAT      O90547   2.252   4.393   9.676
30102WAT     H190548   2.224   4.438   9.592
30102WAT     H290549   2.182   4.328   9.704
30103WAT      O90550   6.274   6.258   2.066
30103WAT     H190551   6.182   6.226   2.087
30103WAT     H290552   6.325   6.272   2.151
30104WAT      O90553   6.834   8.734   4.698
30104WAT     H190554   6.933   8.730   4.691
30104WAT     H290555   6.793   8.690   4.617
30105WAT      O90556   6.812   0.025   1.911
30105WAT     H190557   6.764   0.104   1.872
30105WAT     H290558   6.885  -0.003   1.849
30106WAT      O90559   2.454   2.170   2.990
30106WAT     H190560   2.380   2.105   3.008
30106WAT     H290561   2.533   2.147   3.047
30107WAT      O90562   2.684   8.507   1.038
30107WAT     H190563   2.698   8.451   1.119
30107WAT     H290564   2.587   8.531   1.030
30108WAT      O90565   4.087   3.296   9.310
30108WAT     H190566   4.101   3.313   9.212
30108WAT     H290567   4.172   3.261   9.350
30109WAT      O90568   7.121   7.327   3.674
30109WAT     H190569   7.206   7.377   3.690
30109WAT     H290570   7.097   7.332   3.577
30110WAT      O90571   3.810   0.702   9.461
30110WAT     H190572   3.894   0.665   9.423
30110WAT     H290573   3.772   0.770   9.398
30111WAT      O90574   6.571   9.001   7.081
30111WAT     H190575   6.568   9.062   7.160
30111WAT     H290576   6.663   8.963   7.070
30112WAT      O90577   1.986   6.888   3.403
30112WAT     H190578   2.063   6.951   3.415
30112WAT     H290579   1.904   6.926   3.445
30113WAT      O90580   4.541   3.898   9.481
30113WAT     H190581   4.597   3.975   9.451
30113WAT     H290582   4.445   3.927   9.483
30114WAT      O90583   2.877   3.120   6.699
30114WAT     H190584   2.903   3.204   6.653
30114WAT     H290585   2.806   3.140   6.767
30115WAT      O90586   2.121   3.407   1.919
30115WAT     H190587   2.133   3.495   1.873
30115WAT     H290588   2.091   3.338   1.854
30116WAT      O90589   2.944   5.656   7.373
30116WAT     H190590   2.993   5.681   7.289
30116WAT     H290591   2.917   5.559   7.368
30117WAT      O90592   2.786   1.355   0.266
30117WAT     H190593   2.764   1.272   0.317
30117WAT     H290594   2.814   1.330   0.173
30118WAT      O90595   6.046   7.461   8.745
30118WAT     H190596   6.009   7.369   8.732
30118WAT     H290597   6.113   7.460   8.819
30119WAT      O90598   4.653   1.261   5.125
30119WAT     H190599   4.656   1.347   5.075
30119WAT     H290600   4.743   1.241   5.163
30120WAT      O90601   1.548   1.154   3.636
30120WAT     H190602   1.508   1.084   3.696
30120WAT     H290603   1.583   1.229   3.692
30121WAT      O90604   1.623   0.121   5.997
30121WAT     H190605   1.646   0.188   5.927
30121WAT     H290606   1.524   0.108   6.000
30122WAT      O90607   7.953   6.812   0.897
30122WAT     H190608   7.967   6.741   0.828
30122WAT     H290609   7.896   6.884   0.859
30123WAT      O90610   9.014   3.396   4.854
30123WAT     H190611   8.988   3.345   4.772
30123WAT     H290612   9.067   3.337   4.915
30124WAT      O90613   1.298   0.493   1.522
30124WAT     H190614   1.378   0.515   1.578
30124WAT     H290615   1.250   0.577   1.497
30125WAT      O90616   2.693   7.754   1.269
30125WAT     H190617   2.713   7.756   1.367
30125WAT     H290618   2.705   7.845   1.230
30126WAT      O90619   7.648   6.495   6.113
30126WAT     H190620   7.699   6.432   6.054
30126WAT     H290621   7.562   6.452   6.141
30127WAT      O90622   2.436   5.341   4.261
30127WAT     H190623   2.469   5.271   4.325
30127WAT     H290624   2.507   5.411   4.249
30128WAT      O90625   9.440   8.556   5.552
30128WAT     H190626   9.341   8.546   5.550
30128WAT     H290627   9.482   8.466   5.564
30129WAT      O90628   1.856   6.111   7.612
30129WAT     H190629   1.882   6.202   7.643
30129WAT     H290630   1.891   6.096   7.519
30130WAT      O90631   4.641   0.019   9.029
30130WAT     H190632   4.631  -0.080   9.020
30130WAT     H290633   4.634   0.062   8.939
30131WAT      O90634   9.141   3.867   0.016
30131WAT     H190635   9.149   3.881   0.115
30131WAT     H290636   9.094   3.781  -0.001
30132WAT      O90637   8.299   7.691   9.434
30132WAT     H190638   8.365   7.684   9.509
30132WAT     H290639   8.223   7.750   9.463
30133WAT      O90640   4.082   6.215   8.168
30133WAT     H190641   4.117   6.298   8.124
30133WAT     H290642   3.982   6.213   8.160
30134WAT      O90643   7.045   5.431   8.786
30134WAT     H190644   6.985   5.491   8.839
30134WAT     H290645   7.027   5.336   8.811
30135WAT      O90646   5.748   4.987   9.795
30135WAT     H190647   5.799   4.902   9.805
30135WAT     H290648   5.782   5.037   9.715
30136WAT      O90649   8.072   5.006   9.133
30136WAT     H190650   8.145   5.062   9.172
30136WAT     H290651   8.112   4.928   9.085
30137WAT      O90652   8.460   0.047   1.539
30137WAT     H190653   8.445  -0.037   1.488
30137WAT     H290654   8.503   0.026   1.626
30138WAT      O90655   9.381   4.442   7.912
30138WAT     H190656   9.289   4.444   7.952
30138WAT     H290657   9.388   4.365   7.849
30139WAT      O90658   2.982   4.207   0.611
30139WAT     H190659   3.060   4.145   0.604
30139WAT     H290660   2.938   4.217   0.522
30140WAT      O90661   3.663   3.680   7.520
30140WAT     H190662   3.712   3.614   7.463
30140WAT     H290663   3.582   3.713   7.471
30141WAT      O90664   8.200   0.823   6.199
30141WAT     H190665   8.165   0.747   6.254
30141WAT     H290666   8.153   0.824   6.111
30142WAT      O90667   3.837   2.408   9.601
30142WAT     H190668   3.827   2.380   9.506
30142WAT     H290669   3.836   2.328   9.661
30143WAT      O90670   3.695   7.153   3.354
30143WAT     H190671   3.742   7.216   3.292
30143WAT     H290672   3.598   7.151   3.332
30144WAT      O90673   7.110   5.204   0.707
30144WAT     H190674   7.104   5.142   0.785
30144WAT     H290675   7.082   5.296   0.735
30145WAT      O90676   5.130   6.515   3.578
30145WAT     H190677   5.093   6.599   3.617
30145WAT     H290678   5.056   6.462   3.538
30146WAT      O90679   1.921   0.864   9.079
30146WAT     H190680   1.842   0.924   9.093
30146WAT     H290681   1.926   0.838   8.982
30147WAT      O90682   6.910   0.816   8.042
30147WAT     H190683   6.979   0.755   8.081
30147WAT     H290684   6.819   0.777   8.057
30148WAT      O90685   0.339   0.833   0.577
30148WAT     H190686   0.325   0.897   0.652
30148WAT     H290687   0.344   0.883   0.491
30149WAT      O90688   0.969   7.297   3.767
30149WAT     H190689   1.063   7.331   3.767
30149WAT     H290690   0.969   7.198   3.758
30150WAT      O90691   0.995   1.974   9.572
30150WAT     H190692   0.987   2.042   9.644
30150WAT     H290693   1.090   1.970   9.540
30151WAT      O90694   1.569   8.450   6.725
30151WAT     H190695   1.477   8.411   6.717
30151WAT     H290696   1.626   8.413   6.652
30152WAT      O90697   9.088   0.733   5.627
30152WAT     H190698   9.184   0.727   5.598
30152WAT     H290699   9.034   0.666   5.575
30153WAT      O90700   9.199   3.123   6.165
30153WAT     H190701   9.251   3.205   6.142
30153WAT     H290702   9.105   3.147   6.185
30154WAT      O90703   8.266   0.671   2.250
30154WAT     H190704   8.184   0.627   2.212
30154WAT     H290705   8.319   0.712   2.176
30155WAT      O90706   6.216   9.406   7.036
30155WAT     H190707   6.189   9.501   7.025
30155WAT     H290708   6.142   9.347   7.004
30156WAT      O90709   9.715   9.653   3.800
30156WAT     H190710   9.806   9.654   3.759
30156WAT     H290711   9.722   9.630   3.897
30157WAT      O90712   7.052   1.165   9.159
30157WAT     H190713   7.062   1.172   9.259
30157WAT     H290714   7.141   1.142   9.119
30158WAT      O90715   7.019   3.881   2.128
30158WAT     H190716   6.936   3.883   2.072
30158WAT     H290717   7.099   3.900   2.071
30159WAT      O90718   2.119   2.911   6.317
30159WAT     H190719   2.025   2.884   6.295
30159WAT     H290720   2.135   3.005   6.288
30160WAT      O90721   2.623   2.813   9.061
30160WAT     H190722   2.611   2.910   9.084
30160WAT     H290723   2.649   2.762   9.144
30161WAT      O90724   9.181   7.564   6.366
30161WAT     H190725   9.239   7.584   6.287
30161WAT     H290726   9.097   7.619   6.361
30162WAT      O90727   7.105   3.246   6.004
30162WAT     H190728   7.163   3.246   5.922
30162WAT     H290729   7.034   3.176   5.994
30163WAT      O90730   4.187   9.385   8.615
30163WAT     H190731   4.107   9.353   8.665
30163WAT     H290732   4.206   9.322   8.539
30164WAT      O90733   1.743   4.514   5.130
30164WAT     H190734   1.761   4.572   5.050
30164WAT     H290735   1.669   4.554   5.184
30165WAT      O90736   2.591   3.370   8.472
30165WAT     H190737   2.497   3.359   8.502
30165WAT     H290738   2.616   3.467   8.477
30166WAT      O90739   5.415   5.142   9.346
30166WAT     H190740   5.364   5.224   9.317
30166WAT     H290741   5.459   5.160   9.434
30167WAT      O90742   6.008   9.335   9.302
30167WAT     H190743   5.956   9.374   9.225
30167WAT     H290744   5.945   9.314   9.377
30168WAT      O90745   0.253   1.486   6.012
30168WAT     H190746   0.162   1.473   5.972
30168WAT     H290747   0.287   1.399   6.047
30169WAT      O90748   6.320   7.955   4.890
30169WAT     H190749   6.394   7.906   4.935
30169WAT     H290750   6.334   8.054   4.901
30170WAT      O90751   2.328   1.422   1.307
30170WAT     H190752   2.364   1.515   1.300
30170WAT     H290753   2.229   1.425   1.322
30171WAT      O90754   7.091   5.535   1.839
30171WAT     H190755   7.101   5.463   1.769
30171WAT     H290756   6.994   5.554   1.852
30172WAT      O90757   6.498   1.472   7.753
30172WAT     H190758   6.513   1.502   7.659
30172WAT     H290759   6.585   1.472   7.802
30173WAT      O90760   6.382   6.920   3.737
30173WAT     H190761   6.385   6.869   3.651
30173WAT     H290762   6.287   6.933   3.765
30174WAT      O90763   7.719   6.132   1.308
30174WAT     H190764   7.724   6.120   1.408
30174WAT     H290765   7.807   6.167   1.275
30175WAT      O90766   9.353   9.392   1.648
30175WAT     H190767   9.283   9.389   1.719
30175WAT     H290768   9.391   9.484   1.643
30176WAT      O90769   8.398   1.429   5.954
30176WAT     H190770   8.408   1.528   5.959
30176WAT     H290771   8.376   1.393   6.045
30177WAT      O90772   3.620   0.377   2.502
30177WAT     H190773   3.626   0.474   2.478
30177WAT     H290774   3.712   0.342   2.522
30178WAT      O90775   5.592   0.581   8.456
30178WAT     H190776   5.604   0.624   8.366
30178WAT     H290777   5.674   0.595   8.511
30179WAT      O90778   6.587   6.407   7.339
30179WAT     H190779   6.529   6.325   7.335
30179WAT     H290780   6.682   6.380   7.327
30180WAT      O90781   5.430   7.881   5.699
30180WAT     H190782   5.514   7.829   5.683
30180WAT     H290783   5.400   7.923   5.613
30181WAT      O90784   6.944   5.209   9.396
30181WAT     H190785   6.891   5.138   9.442
30181WAT     H290786   6.893   5.243   9.317
30182WAT      O90787   3.106   6.696   8.817
30182WAT     H190788   3.148   6.706   8.727
30182WAT     H290789   3.050   6.777   8.837
30183WAT      O90790   2.802   8.942   7.575
30183WAT     H190791   2.881   8.896   7.535
30183WAT     H290792   2.834   9.016   7.635
30184WAT      O90793   6.067   6.933   5.021
30184WAT     H190794   6.043   6.841   5.051
30184WAT     H290795   6.166   6.939   5.007
30185WAT      O90796   6.770   4.302   4.711
30185WAT     H190797   6.787   4.234   4.783
30185WAT     H290798   6.672   4.321   4.707
30186WAT      O90799   5.077   2.183   7.923
30186WAT     H190800   5.161   2.185   7.869
30186WAT     H290801   5.096   2.146   8.014
30187WAT      O90802   6.848   2.051   5.269
30187WAT     H190803   6.799   2.134   5.241
30187WAT     H290804   6.929   2.076   5.322
30188WAT      O90805   8.638   0.225   2.858
30188WAT     H190806   8.620   0.324   2.860
30188WAT     H290807   8.735   0.209   2.876
30189WAT      O90808   1.698   9.363   2.429
30189WAT     H190809   1.794   9.341   2.446
30189WAT     H290810   1.682   9.369   2.330
30190WAT      O90811   7.514   3.789   1.348
30190WAT     H190812   7.458   3.706   1.345
30190WAT     H290813   7.456   3.869   1.364
30191WAT      O90814   3.338   4.010   5.475
30191WAT     H190815   3.244   4.018   5.508
30191WAT     H290816   3.395   3.968   5.545
30192WAT      O90817   1.316   4.711   7.138
30192WAT     H190818   1.260   4.699   7.220
30192WAT     H290819   1.407   4.672   7.153
30193WAT      O90820   1.836   8.068   2.775
30193WAT     H190821   1.901   8.035   2.706
30193WAT     H290822   1.885   8.088   2.859
30194WAT      O90823   4.407   1.982   4.771
30194WAT     H190824   4.326   2.019   4.817
30194WAT     H290825   4.388   1.972   4.673
30195WAT      O90826   6.105   6.597   9.866
30195WAT     H190827   6.068   6.596   9.773
30195WAT     H290828   6.175   6.526   9.876
30196WAT      O90829   3.338   6.060   0.514
30196WAT     H190830   3.382   6.030   0.429
30196WAT     H290831   3.258   6.115   0.493
30197WAT      O90832   8.246   7.531   7.068
30197WAT     H190833   8.168   7.498   7.015
30197WAT     H290834   8.213   7.586   7.145
30198WAT      O90835   0.810   5.390   8.756
30198WAT     H190836   0.798   5.312   8.817
30198WAT     H290837   0.725   5.405   8.705
30199WAT      O90838   4.401   8.916   8.254
30199WAT     H190839   4.353   8.903   8.341
30199WAT     H290840   4.481   8.974   8.268
30200WAT      O90841   4.643   1.003   5.014
30200WAT     H190842   4.644   1.103   5.010
30200WAT     H290843   4.560   0.972   5.060
30201WAT      O90844   7.884   5.835   9.703
30201WAT     H190845   7.794   5.875   9.719
30201WAT     H290846   7.878   5.768   9.629
30202WAT      O90847   6.563   7.595   4.764
30202WAT     H190848   6.536   7.684   4.727
30202WAT     H290849   6.663   7.588   4.763
30203WAT      O90850   8.113   6.283   9.775
30203WAT     H190851   8.159   6.284   9.863
30203WAT     H290852   8.103   6.188   9.743
30204WAT      O90853   8.269   7.535   2.597
30204WAT     H190854   8.238   7.613   2.541
30204WAT     H290855   8.368   7.541   2.610
30205WAT      O90856   4.159   2.107   0.586
30205WAT     H190857   4.099   2.081   0.511
30205WAT     H290858   4.174   2.029   0.646
30206WAT      O90859   3.572   8.802   7.114
30206WAT     H190860   3.610   8.891   7.090
30206WAT     H290861   3.493   8.814   7.174
30207WAT      O90862   1.181   3.581   1.208
30207WAT     H190863   1.144   3.506   1.262
30207WAT     H290864   1.122   3.661   1.217
30208WAT      O90865   0.630   7.693   2.960
30208WAT     H190866   0.559   7.764   2.963
30208WAT     H290867   0.587   7.604   2.943
30209WAT      O90868   0.273   4.963   0.576
30209WAT     H190869   0.278   5.012   0.662
30209WAT     H290870   0.193   4.992   0.524
30210WAT      O90871   2.583   2.198   9.038
30210WAT     H190872   2.605   2.277   9.095
30210WAT     H290873   2.653   2.187   8.967
30211WAT      O90874   8.696   4.847   5.537
30211WAT     H190875   8.698   4.920   5.469
30211WAT     H290876   8.789   4.826   5.565
30212WAT      O90877   8.905   9.813   2.186
30212WAT     H190878   8.965   9.826   2.264
30212WAT     H290879   8.921   9.885   2.119
30213WAT      O90880   4.517   6.395   0.533
30213WAT     H190881   4.569   6.312   0.516
30213WAT     H290882   4.523   6.456   0.454
30214WAT      O90883   1.284   6.307   6.848
30214WAT     H190884   1.268   6.281   6.753
30214WAT     H290885   1.370   6.266   6.880
30215WAT      O90886   0.729   1.030   1.860
30215WAT     H190887   0.816   1.041   1.812
30215WAT     H290888   0.694   1.120   1.888
30216WAT      O90889   3.831   3.154   8.324
30216WAT     H190890   3.770   3.145   8.403
30216WAT     H290891   3.925   3.132   8.352
30217WAT      O90892   4.810   7.358   2.274
30217WAT     H190893   4.738   7.402   2.219
30217WAT     H290894   4.768   7.306   2.348
30218WAT      O90895   5.346   3.550   6.168
30218WAT     H190896   5.319   3.645   6.161
30218WAT     H290897   5.269   3.491   6.144
30219WAT      O90898   1.677   9.193   3.413
30219WAT     H190899   1.632   9.104   3.424
30219WAT     H290900   1.771   9.178   3.381
30220WAT      O90901   1.989   1.376   4.859
30220WAT     H190902   2.045   1.294   4.857
30220WAT     H290903   1.893   1.350   4.872
30221WAT      O90904   2.863   9.595   8.875
30221WAT     H190905   2.786   9.641   8.921
30221WAT     H290906   2.906   9.659   8.812
30222WAT      O90907   0.742   2.952   3.435
30222WAT     H190908   0.835   2.919   3.416
30222WAT     H290909   0.718   3.023   3.369
30223WAT      O90910   3.717   5.490   3.050
30223WAT     H190911   3.691   5.452   2.961
30223WAT     H290912   3.797   5.548   3.039
30224WAT      O90913   6.186   5.643   0.394
30224WAT     H190914   6.156   5.613   0.303
30224WAT     H290915   6.132   5.596   0.464
30225WAT      O90916   3.080   2.663   2.780
30225WAT     H190917   3.031   2.588   2.735
30225WAT     H290918   3.117   2.631   2.867
30226WAT      O90919   8.391   0.058   9.517
30226WAT     H190920   8.353   0.137   9.566
30226WAT     H290921   8.359  -0.027   9.560
30227WAT      O90922   4.337   3.246   9.383
30227WAT     H190923   4.397   3.245   9.462
30227WAT     H290924   4.334   3.154   9.342
30228WAT      O90925   0.258   1.119   9.396
30228WAT     H190926   0.315   1.043   9.427
30228WAT     H290927   0.162   1.094   9.402
30229WAT      O90928   9.277   3.527   5.791
30229WAT     H190929   9.270   3.617   5.835
30229WAT     H290930   9.368   3.489   5.808
30230WAT      O90931   6.445   9.222   8.561
30230WAT     H190932   6.355   9.244   8.600
30230WAT     H290933   6.513   9.285   8.596
30231WAT      O90934   0.631   3.435   9.809
30231WAT     H190935   0.572   3.402   9.735
30231WAT     H290936   0.580   3.436   9.895
30232WAT      O90937   4.900   8.935   0.603
30232WAT     H190938   4.855   8.883   0.531
30232WAT     H290939   4.933   8.872   0.674
30233WAT      O90940   9.528   7.546   9.003
30233WAT     H190941   9.576   7.578   8.921
30233WAT     H290942   9.509   7.624   9.062
30234WAT      O90943   4.278   3.304   4.120
30234WAT     H190944   4.284   3.344   4.212
30234WAT     H290945   4.259   3.377   4.054
30235WAT      O90946   1.676   0.894   1.098
30235WAT     H190947   1.691   0.955   1.021
30235WAT     H290948   1.674   0.799   1.065
30236WAT      O90949   2.488   7.265   2.853
30236WAT     H190950   2.458   7.233   2.763
30236WAT     H290951   2.576   7.222   2.876
30237WAT      O90952   6.579   8.940   0.415
30237WAT     H190953   6.645   8.868   0.391
30237WAT     H290954   6.541   8.979   0.332
30238WAT      O90955   5.655   3.189   7.483
30238WAT     H190956   5.699   3.266   7.530
30238WAT     H290957   5.701   3.171   7.396
30239WAT      O90958   1.260   8.918   5.258
30239WAT     H190959   1.201   8.862   5.200
30239WAT     H290960   1.253   9.014   5.230
30240WAT      O90961   6.763   4.695   4.382
30240WAT     H190962   6.732   4.605   4.412
30240WAT     H290963   6.862   4.694   4.370
30241WAT      O90964   3.176   4.386   3.379
30241WAT     H190965   3.233   4.342   3.449
30241WAT     H290966   3.099   4.431   3.424
30242WAT      O90967   4.406   9.124   4.595
30242WAT     H190968   4.504   9.103   4.597
30242WAT     H290969   4.374   9.140   4.688
30243WAT      O90970   1.472   6.890   4.811
30243WAT     H190971   1.452   6.983   4.779
30243WAT     H290972   1.428   6.824   4.750
30244WAT      O90973   3.998   9.539   5.004
30244WAT     H190974   4.046   9.539   5.091
30244WAT     H290975   4.063   9.524   4.929
30245WAT      O90976   6.950   3.779   5.824
30245WAT     H190977   7.032   3.730   5.854
30245WAT     H290978   6.898   3.809   5.904
30246WAT      O90979   6.681   5.837   7.543
30246WAT     H190980   6.716   5.898   7.473
30246WAT     H290981   6.752   5.817   7.610
30247WAT      O90982   7.220   1.443   3.096
30247WAT     H190983   7.252   1.358   3.137
30247WAT     H290984   7.287   1.474   3.028
30248WAT      O90985   9.453   7.989   4.627
30248WAT     H190986   9.504   7.905   4.642
30248WAT     H290987   9.364   7.984   4.672
30249WAT      O90988   9.365   9.251   3.622
30249WAT     H190989   9.373   9.152   3.632
30249WAT     H290990   9.344   9.274   3.526
30250WAT      O90991   9.007   8.262   5.818
30250WAT     H190992   8.947   8.187   5.843
30250WAT     H290993   9.053   8.241   5.731
30251WAT      O90994   6.522   9.274   0.033
30251WAT     H190995   6.588   9.350   0.033
30251WAT     H290996   6.505   9.244  -0.061
30252WAT      O90997   1.675   5.967   6.300
30252WAT     H190998   1.585   6.007   6.317
30252WAT     H290999   1.706   5.919   6.382
30253WAT      O91000   5.355   6.857   6.903
30253WAT     H191001   5.428   6.789   6.915
30253WAT     H291002   5.312   6.844   6.814
30254WAT      O91003   4.631   9.130   4.335
30254WAT     H191004   4.651   9.070   4.258
30254WAT     H291005   4.576   9.208   4.303
30255WAT      O91006   7.861   4.862   1.410
30255WAT     H191007   7.906   4.785   1.456
30255WAT     H291008   7.778   4.829   1.365
30256WAT      O91009   5.136   8.870   6.401
30256WAT     H191010   5.146   8.908   6.309
30256WAT     H291011   5.179   8.931   6.468
30257WAT      O91012   9.167   1.920   0.804
30257WAT     H191013   9.071   1.913   0.830
30257WAT     H291014   9.182   1.874   0.717
30258WAT      O91015   1.220   5.364   2.796
30258WAT     H191016   1.230   5.397   2.890
30258WAT     H291017   1.174   5.275   2.797
30259WAT      O91018   9.531   6.828   6.171
30259WAT     H191019   9.543   6.924   6.197
30259WAT     H291020   9.439   6.815   6.134
30260WAT      O91021   7.706   8.834   9.483
30260WAT     H191022   7.769   8.878   9.419
30260WAT     H291023   7.729   8.863   9.577
30261WAT      O91024   2.187   5.689   2.148
30261WAT     H191025   2.201   5.621   2.220
30261WAT     H291026   2.174   5.779   2.191
30262WAT      O91027   8.554   0.982   7.965
30262WAT     H191028   8.643   1.022   7.987
30262WAT     H291029   8.482   1.049   7.981
30263WAT      O91030   2.987   1.179   1.339
30263WAT     H191031   2.954   1.141   1.426
30263WAT     H291032   3.077   1.141   1.318
30264WAT      O91033   1.142   8.066   7.036
30264WAT     H191034   1.085   8.045   7.115
30264WAT     H291035   1.181   7.981   7.000
30265WAT      O91036   8.494   3.701   8.042
30265WAT     H191037   8.590   3.696   8.071
30265WAT     H291038   8.440   3.639   8.098
30266WAT      O91039   6.463   1.764   8.557
30266WAT     H191040   6.382   1.706   8.545
30266WAT     H291041   6.522   1.724   8.627
30267WAT      O91042   5.592   5.043   0.811
30267WAT     H191043   5.647   5.002   0.739
30267WAT     H291044   5.587   4.980   0.889
30268WAT      O91045   6.561   0.368   2.443
30268WAT     H191046   6.516   0.448   2.484
30268WAT     H291047   6.515   0.285   2.474
30269WAT      O91048   9.447   2.578   0.705
30269WAT     H191049   9.373   2.526   0.746
30269WAT     H291050   9.516   2.516   0.668
30270WAT      O91051   6.201   1.546   1.832
30270WAT     H191052   6.170   1.493   1.753
30270WAT     H291053   6.300   1.540   1.841
30271WAT      O91054   2.257   1.685   8.516
30271WAT     H191055   2.326   1.756   8.533
30271WAT     H291056   2.167   1.720   8.543
30272WAT      O91057   9.574   0.274   4.014
30272WAT     H191058   9.562   0.204   3.943
30272WAT     H291059   9.620   0.353   3.975
30273WAT      O91060   0.745   7.516   6.530
30273WAT     H191061   0.719   7.609   6.553
30273WAT     H291062   0.678   7.452   6.569
30274WAT      O91063   2.232   6.823   0.053
30274WAT     H191064   2.176   6.768   0.115
30274WAT     H291065   2.199   6.813  -0.040
30275WAT      O91066   7.425   2.303   0.001
30275WAT     H191067   7.480   2.241  -0.055
30275WAT     H291068   7.479   2.330   0.082
30276WAT      O91069   6.217   8.221   8.854
30276WAT     H191070   6.191   8.298   8.795
30276WAT     H291071   6.205   8.247   8.950
30277WAT      O91072   2.361   4.944   0.970
30277WAT     H191073   2.374   4.963   1.067
30277WAT     H291074   2.390   4.850   0.950
30278WAT      O91075   9.202   9.648   6.045
30278WAT     H191076   9.249   9.641   6.133
30278WAT     H291077   9.263   9.615   5.973
30279WAT      O91078   5.381   7.004   0.477
30279WAT     H191079   5.452   6.935   0.494
30279WAT     H291080   5.305   6.961   0.428
30280WAT      O91081   7.469   1.516   8.626
30280WAT     H191082   7.536   1.574   8.578
30280WAT     H291083   7.497   1.420   8.619
30281WAT      O91084   1.636   7.398   3.915
30281WAT     H191085   1.601   7.448   3.993
30281WAT     H291086   1.670   7.462   3.846
30282WAT      O91087   1.589   8.244   2.159
30282WAT     H191088   1.685   8.228   2.179
30282WAT     H291089   1.580   8.320   2.094
30283WAT      O91090   4.378   2.402   0.044
30283WAT     H191091   4.374   2.496   0.078
30283WAT     H291092   4.472   2.380   0.017
30284WAT      O91093   1.460   5.111   9.379
30284WAT     H191094   1.383   5.099   9.442
30284WAT     H291095   1.465   5.032   9.318
30285WAT      O91096   3.165   2.246   2.798
30285WAT     H191097   3.154   2.152   2.767
30285WAT     H291098   3.262   2.269   2.800
30286WAT      O91099   9.543   2.053   9.129
30286WAT     H191100   9.628   2.025   9.085
30286WAT     H291101   9.552   2.042   9.228
30287WAT      O91102   1.242   6.842   4.082
30287WAT     H191103   1.266   6.752   4.045
30287WAT     H291104   1.154   6.836   4.129
30288WAT      O91105   3.485   9.322   9.446
30288WAT     H191106   3.529   9.324   9.356
30288WAT     H291107   3.526   9.391   9.505
30289WAT      O91108   1.649   7.099   5.434
30289WAT     H191109   1.714   7.133   5.501
30289WAT     H291110   1.697   7.077   5.349
30290WAT      O91111   5.028   9.162   2.139
30290WAT     H191112   4.990   9.242   2.092
30290WAT     H291113   5.051   9.092   2.072
30291WAT      O91114   9.526   0.314   7.215
30291WAT     H191115   9.624   0.328   7.227
30291WAT     H291116   9.477   0.394   7.250
30292WAT      O91117   2.647   9.647   8.267
30292WAT     H191118   2.612   9.628   8.176
30292WAT     H291119   2.745   9.666   8.262
30293WAT      O91120   2.381   2.859   9.559
30293WAT     H191121   2.376   2.773   9.508
30293WAT     H291122   2.321   2.854   9.639
30294WAT      O91123   9.838   8.403   0.304
30294WAT     H191124   9.840   8.423   0.206
30294WAT     H291125   9.928   8.420   0.343
30295WAT      O91126   7.784   0.807   1.484
30295WAT     H191127   7.858   0.744   1.462
30295WAT     H291128   7.727   0.821   1.404
30296WAT      O91129   1.215   8.384   0.912
30296WAT     H191130   1.194   8.362   1.007
30296WAT     H291131   1.221   8.483   0.901
30297WAT      O91132   8.189   7.424   2.832
30297WAT     H191133   8.193   7.503   2.893
30297WAT     H291134   8.225   7.449   2.742
30298WAT      O91135   1.015   7.680   7.349
30298WAT     H191136   0.963   7.718   7.425
30298WAT     H291137   1.058   7.594   7.378
30299WAT      O91138   3.649   0.117   0.085
30299WAT     H191139   3.585   0.067   0.144
30299WAT     H291140   3.597   0.168   0.016
30300WAT      O91141   6.373   6.872   4.883
30300WAT     H191142   6.344   6.966   4.864
30300WAT     H291143   6.443   6.872   4.954
30301WAT      O91144   0.462   3.264   6.774
30301WAT     H191145   0.460   3.208   6.691
30301WAT     H291146   0.410   3.219   6.847
30302WAT      O91147   9.683   4.963   1.012
30302WAT     H191148   9.644   4.878   0.978
30302WAT     H291149   9.727   4.947   1.100
30303WAT      O91150   8.733   6.036   0.917
30303WAT     H191151   8.757   5.990   0.831
30303WAT     H291152   8.635   6.054   0.918
30304WAT      O91153   6.586   5.568   5.792
30304WAT     H191154   6.639   5.488   5.763
30304WAT     H291155   6.638   5.619   5.860
30305WAT      O91156   7.240   5.416   9.303
30305WAT     H191157   7.324   5.461   9.335
30305WAT     H291158   7.241   5.320   9.331
30306WAT      O91159   7.065   3.533   1.498
30306WAT     H191160   6.968   3.554   1.489
30306WAT     H291161   7.087   3.515   1.594
30307WAT      O91162   2.067   1.614   1.187
30307WAT     H191163   1.974   1.616   1.150
30307WAT     H291164   2.064   1.598   1.285
30308WAT      O91165   3.110   9.568   7.258
30308WAT     H191166   3.035   9.590   7.196
30308WAT     H291167   3.197   9.584   7.213
30309WAT      O91168   7.488   8.291   2.642
30309WAT     H191169   7.587   8.290   2.649
30309WAT     H291170   7.449   8.229   2.710
30310WAT      O91171   5.964   3.349   0.351
30310WAT     H191172   5.870   3.317   0.342
30310WAT     H291173   5.977   3.389   0.442
30311WAT      O91174   7.501   1.956   5.894
30311WAT     H191175   7.579   1.897   5.869
30311WAT     H291176   7.535   2.038   5.939
30312WAT      O91177   3.745   2.419   9.108
30312WAT     H191178   3.649   2.392   9.110
30312WAT     H291179   3.794   2.363   9.041
30313WAT      O91180   7.265   0.326   3.984
30313WAT     H191181   7.253   0.355   3.889
30313WAT     H291182   7.324   0.392   4.031
30314WAT      O91183   4.513   4.796   1.825
30314WAT     H191184   4.556   4.714   1.864
30314WAT     H291185   4.529   4.797   1.726
30315WAT      O91186   7.725   9.165   4.571
30315WAT     H191187   7.742   9.129   4.663
30315WAT     H291188   7.704   9.090   4.509
30316WAT      O91189   5.735   5.406   1.120
30316WAT     H191190   5.773   5.447   1.203
30316WAT     H291191   5.635   5.408   1.125
30317WAT      O91192   9.165   3.006   0.751
30317WAT     H191193   9.239   3.046   0.698
30317WAT     H291194   9.135   2.920   0.708
30318WAT      O91195   8.946   0.664   1.723
30318WAT     H191196   8.955   0.689   1.819
30318WAT     H291197   8.986   0.574   1.707
30319WAT      O91198   4.034   0.895   2.465
30319WAT     H191199   3.984   0.979   2.447
30319WAT     H291200   4.114   0.915   2.523
30320WAT      O91201   0.087   9.650   6.657
30320WAT     H191202   0.096   9.705   6.574
30320WAT     H291203   0.167   9.664   6.715
30321WAT      O91204   3.478   8.109   0.267
30321WAT     H191205   3.386   8.079   0.291
30321WAT     H291206   3.474   8.195   0.217
30322WAT      O91207   3.166   5.689   1.890
30322WAT     H191208   3.078   5.646   1.870
30322WAT     H291209   3.239   5.637   1.847
30323WAT      O91210   4.446   2.483   5.660
30323WAT     H191211   4.349   2.506   5.663
30323WAT     H291212   4.458   2.384   5.667
30324WAT      O91213   4.794   2.471   8.766
30324WAT     H191214   4.840   2.384   8.746
30324WAT     H291215   4.699   2.465   8.737
30325WAT      O91216   9.198   1.744   2.273
30325WAT     H191217   9.281   1.761   2.325
30325WAT     H291218   9.125   1.713   2.334
30326WAT      O91219   2.937   6.991   0.954
30326WAT     H191220   2.976   6.955   1.039
30326WAT     H291221   2.999   6.970   0.878
30327WAT      O91222   0.013   5.165   3.992
30327WAT     H191223   0.056   5.128   3.909
30327WAT     H291224   0.084   5.189   4.058
30328WAT      O91225   6.748   2.631   6.320
30328WAT     H191226   6.697   2.546   6.316
30328WAT     H291227   6.771   2.661   6.227
30329WAT      O91228   3.603   6.869   5.206
30329WAT     H191229   3.587   6.917   5.292
30329WAT     H291230   3.673   6.917   5.153
30330WAT      O91231   8.305   5.158   8.478
30330WAT     H191232   8.341   5.200   8.395
30330WAT     H291233   8.375   5.161   8.549
30331WAT      O91234   9.254   9.823   2.844
30331WAT     H191235   9.174   9.882   2.858
30331WAT     H291236   9.224   9.731   2.818
30332WAT      O91237   8.219   8.052   7.699
30332WAT     H191238   8.159   7.974   7.717
30332WAT     H291239   8.221   8.112   7.780
30333WAT      O91240   1.330   9.609   9.176
30333WAT     H191241   1.239   9.646   9.194
30333WAT     H291242   1.332   9.511   9.199
30334WAT      O91243   7.711   0.524   2.901
30334WAT     H191244   7.714   0.584   2.822
30334WAT     H291245   7.663   0.569   2.976
30335WAT      O91246   2.527   2.629   4.341
30335WAT     H191247   2.498   2.647   4.435
30335WAT     H291248   2.453   2.653   4.279
30336WAT      O91249   3.348   6.544   7.206
30336WAT     H191250   3.390   6.504   7.125
30336WAT     H291251   3.417   6.551   7.279
30337WAT      O91252   5.599   3.026   3.647
30337WAT     H191253   5.689   2.984   3.657
30337WAT     H291254   5.573   3.026   3.550
30338WAT      O91255   9.173   8.647   1.394
30338WAT     H191256   9.153   8.735   1.437
30338WAT     H291257   9.255   8.608   1.436
30339WAT      O91258   7.920   5.687   2.764
30339WAT     H191259   7.873   5.754   2.706
30339WAT     H291260   7.864   5.604   2.772
30340WAT      O91261   1.676   1.847   6.281
30340WAT     H191262   1.606   1.912   6.313
30340WAT     H291263   1.754   1.898   6.245
30341WAT      O91264   0.778   6.128   1.166
30341WAT     H191265   0.755   6.040   1.126
30341WAT     H291266   0.695   6.184   1.174
30342WAT      O91267   7.628   3.942   6.286
30342WAT     H191268   7.579   3.855   6.277
30342WAT     H291269   7.725   3.928   6.270
30343WAT      O91270   6.801   4.915   2.427
30343WAT     H191271   6.815   4.949   2.520
30343WAT     H291272   6.835   4.982   2.361
30344WAT      O91273   8.362   1.782   6.840
30344WAT     H191274   8.417   1.791   6.757
30344WAT     H291275   8.304   1.863   6.850
30345WAT      O91276   3.044   7.255   3.896
30345WAT     H191277   3.052   7.197   3.977
30345WAT     H291278   3.132   7.299   3.878
30346WAT      O91279   2.976   8.936   4.238
30346WAT     H191280   2.913   8.894   4.173
30346WAT     H291281   2.974   8.885   4.324
30347WAT      O91282   0.148   4.987   1.889
30347WAT     H191283   0.081   4.922   1.854
30347WAT     H291284   0.110   5.079   1.888
30348WAT      O91285   7.838   3.151   7.896
30348WAT     H191286   7.927   3.110   7.875
30348WAT     H291287   7.768   3.108   7.839
30349WAT      O91288   9.443   0.115   1.196
30349WAT     H191289   9.535   0.125   1.232
30349WAT     H291290   9.412   0.021   1.208
30350WAT      O91291   2.170   2.637   4.678
30350WAT     H191292   2.142   2.730   4.655
30350WAT     H291293   2.160   2.578   4.598
30351WAT      O91294   6.769   9.373   2.624
30351WAT     H191295   6.779   9.405   2.718
30351WAT     H291296   6.859   9.354   2.585
30352WAT      O91297   6.434   0.876   2.595
30352WAT     H191298   6.341   0.880   2.633
30352WAT     H291299   6.494   0.936   2.649
30353WAT      O91300   8.877   5.294   9.465
30353WAT     H191301   8.835   5.381   9.442
30353WAT     H291302   8.976   5.305   9.474
30354WAT      O91303   6.733   7.002   9.049
30354WAT     H191304   6.695   6.918   9.088
30354WAT     H291305   6.833   6.998   9.053
30355WAT      O91306   2.161   4.121   9.137
30355WAT     H191307   2.217   4.136   9.219
30355WAT     H291308   2.212   4.148   9.056
30356WAT      O91309   6.331   7.749   8.852
30356WAT     H191310   6.304   7.656   8.879
30356WAT     H291311   6.255   7.812   8.869
30357WAT      O91312   6.316   3.435   8.835
30357WAT     H191313   6.243   3.435   8.903
30357WAT     H291314   6.376   3.357   8.852
30358WAT      O91315   1.379   2.194   0.780
30358WAT     H191316   1.448   2.181   0.852
30358WAT     H291317   1.417   2.251   0.707
30359WAT      O91318   6.252   8.393   9.453
30359WAT     H191319   6.329   8.330   9.441
30359WAT     H291320   6.166   8.343   9.445
30360WAT      O91321   5.568   0.257   3.907
30360WAT     H191322   5.560   0.182   3.972
30360WAT     H291323   5.477   0.296   3.891
30361WAT      O91324   9.672   5.978   9.361
30361WAT     H191325   9.734   5.933   9.296
30361WAT     H291326   9.726   6.018   9.436
30362WAT      O91327   7.397   3.238   7.600
30362WAT     H191328   7.343   3.160   7.570
30362WAT     H291329   7.494   3.214   7.599
30363WAT      O91330   0.800   0.044   8.239
30363WAT     H191331   0.781  -0.049   8.209
30363WAT     H291332   0.748   0.108   8.183
30364WAT      O91333   0.514   4.347   1.942
30364WAT     H191334   0.524   4.312   1.849
30364WAT     H291335   0.579   4.422   1.956
30365WAT      O91336   6.463   9.538   6.546
30365WAT     H191337   6.522   9.584   6.479
30365WAT     H291338   6.396   9.604   6.581
30366WAT      O91339   3.993   2.696   2.192
30366WAT     H191340   4.005   2.717   2.095
30366WAT     H291341   3.969   2.599   2.202
30367WAT      O91342   1.622   2.776   0.431
30367WAT     H191343   1.623   2.709   0.504
30367WAT     H291344   1.687   2.749   0.359
30368WAT      O91345   1.986   0.883   7.292
30368WAT     H191346   2.054   0.956   7.302
30368WAT     H291347   2.028   0.796   7.318
30369WAT      O91348   5.123   2.568   4.545
30369WAT     H191349   5.214   2.552   4.507
30369WAT     H291350   5.091   2.485   4.591
30370WAT      O91351   8.969   1.825   6.060
30370WAT     H191352   8.899   1.884   6.099
30370WAT     H291353   8.941   1.729   6.067
30371WAT      O91354   0.644   9.064   7.478
30371WAT     H191355   0.721   9.026   7.427
30371WAT     H291356   0.613   9.149   7.435
30372WAT      O91357   9.241   8.817   1.718
30372WAT     H191358   9.283   8.907   1.717
30372WAT     H291359   9.254   8.774   1.807
30373WAT      O91360   5.537   8.752   1.217
30373WAT     H191361   5.449   8.715   1.248
30373WAT     H291362   5.582   8.685   1.158
30374WAT      O91363   4.796   9.097   0.323
30374WAT     H191364   4.795   8.998   0.336
30374WAT     H291365   4.780   9.143   0.410
30375WAT      O91366   1.543   1.365   2.346
30375WAT     H191367   1.492   1.361   2.260
30375WAT     H291368   1.503   1.301   2.412
30376WAT      O91369   5.081   5.283   3.749
30376WAT     H191370   5.078   5.294   3.848
30376WAT     H291371   5.055   5.190   3.725
30377WAT      O91372   5.918   2.697   8.300
30377WAT     H191373   5.908   2.663   8.394
30377WAT     H291374   5.870   2.783   8.290
30378WAT      O91375   3.734   6.057   6.824
30378WAT     H191376   3.820   6.077   6.871
30378WAT     H291377   3.726   5.958   6.810
30379WAT      O91378   9.596   6.298   1.080
30379WAT     H191379   9.607   6.229   1.008
30379WAT     H291380   9.666   6.368   1.070
30380WAT      O91381   8.392   1.248   3.844
30380WAT     H191382   8.431   1.320   3.902
30380WAT     H291383   8.446   1.240   3.760
30381WAT      O91384   7.132   7.959   9.640
30381WAT     H191385   7.043   7.914   9.648
30381WAT     H291386   7.139   8.006   9.552
30382WAT      O91387   5.746   2.414   6.107
30382WAT     H191388   5.721   2.323   6.076
30382WAT     H291389   5.665   2.473   6.108
30383WAT      O91390   3.188   0.957   1.156
30383WAT     H191391   3.116   0.888   1.146
30383WAT     H291392   3.206   0.999   1.066
30384WAT      O91393   7.211   8.020   4.799
30384WAT     H191394   7.310   8.017   4.785
30384WAT     H291395   7.171   7.931   4.778
30385WAT      O91396   6.565   7.927   7.072
30385WAT     H191397   6.632   7.927   6.998
30385WAT     H291398   6.516   7.839   7.073
30386WAT      O91399   2.117   3.499   9.482
30386WAT     H191400   2.079   3.583   9.521
30386WAT     H291401   2.054   3.423   9.498
30387WAT      O91402   2.243   7.017   8.919
30387WAT     H191403   2.274   7.109   8.942
30387WAT     H291404   2.249   6.958   8.999
30388WAT      O91405   1.688   0.198   6.712
30388WAT     H191406   1.592   0.207   6.686
30388WAT     H291407   1.694   0.185   6.811
30389WAT      O91408   7.773   2.333   1.198
30389WAT     H191409   7.867   2.359   1.219
30389WAT     H291410   7.763   2.234   1.207
30390WAT      O91411   8.432   3.729   0.177
30390WAT     H191412   8.499   3.676   0.126
30390WAT     H291413   8.430   3.823   0.143
30391WAT      O91414   1.430   6.676   6.640
30391WAT     H191415   1.465   6.593   6.596
30391WAT     H291416   1.506   6.728   6.677
30392WAT      O91417   1.972   9.358   3.851
30392WAT     H191418   2.004   9.417   3.925
30392WAT     H291419   1.894   9.401   3.806
30393WAT      O91420   4.699   6.315   9.830
30393WAT     H191421   4.765   6.322   9.906
30393WAT     H291422   4.735   6.363   9.750
30394WAT      O91423   3.370   3.061   8.131
30394WAT     H191424   3.329   3.026   8.046
30394WAT     H291425   3.440   2.997   8.162
30395WAT      O91426   7.460   8.875   2.948
30395WAT     H191427   7.434   8.930   2.869
30395WAT     H291428   7.557   8.889   2.969
30396WAT      O91429   6.815   2.647   8.771
30396WAT     H191430   6.901   2.670   8.816
30396WAT     H291431   6.774   2.731   8.735
30397WAT      O91432   1.856   3.557   3.657
30397WAT     H191433   1.832   3.504   3.575
30397WAT     H291434   1.772   3.581   3.706
30398WAT      O91435   5.117   7.504   1.389
30398WAT     H191436   5.141   7.500   1.486
30398WAT     H291437   5.182   7.450   1.337
30399WAT      O91438   1.867   8.873   4.971
30399WAT     H191439   1.798   8.805   4.994
30399WAT     H291440   1.826   8.965   4.974
30400WAT      O91441   1.764   9.764   7.349
30400WAT     H191442   1.838   9.795   7.288
30400WAT     H291443   1.778   9.667   7.370
30401WAT      O91444   6.459   2.005   3.816
30401WAT     H191445   6.536   1.942   3.811
30401WAT     H291446   6.380   1.964   3.769
30402WAT      O91447   7.495   8.850   5.059
30402WAT     H191448   7.533   8.773   5.009
30402WAT     H291449   7.544   8.863   5.144
30403WAT      O91450   9.552   1.542   0.325
30403WAT     H191451   9.641   1.569   0.288
30403WAT     H291452   9.550   1.443   0.337
30404WAT      O91453   8.568   1.133   1.589
30404WAT     H191454   8.571   1.141   1.689
30404WAT     H291455   8.552   1.223   1.549
30405WAT      O91456   9.533   0.087   8.449
30405WAT     H191457   9.446   0.094   8.401
30405WAT     H291458   9.530   0.145   8.531
30406WAT      O91459   3.027   2.347   5.982
30406WAT     H191460   2.957   2.296   5.932
30406WAT     H291461   3.111   2.351   5.928
30407WAT      O91462   2.745   9.573   9.318
30407WAT     H191463   2.764   9.662   9.276
30407WAT     H291464   2.684   9.586   9.396
30408WAT      O91465   7.547   1.465   0.246
30408WAT     H191466   7.457   1.452   0.205
30408WAT     H291467   7.537   1.513   0.333
30409WAT      O91468   2.934   3.915   8.503
30409WAT     H191469   2.872   3.994   8.498
30409WAT     H291470   2.909   3.849   8.432
30410WAT      O91471   1.734   5.794   2.366
30410WAT     H191472   1.658   5.730   2.381
30410WAT     H291473   1.749   5.805   2.268
30411WAT      O91474   0.693   0.203   4.397
30411WAT     H191475   0.759   0.136   4.364
30411WAT     H291476   0.729   0.296   4.382
30412WAT      O91477   8.959   0.419   7.359
30412WAT     H191478   9.030   0.490   7.362
30412WAT     H291479   8.936   0.391   7.452
30413WAT      O91480   1.812   3.147   7.243
30413WAT     H191481   1.857   3.194   7.167
30413WAT     H291482   1.855   3.058   7.257
30414WAT      O91483   8.520   6.606   6.236
30414WAT     H191484   8.426   6.631   6.260
30414WAT     H291485   8.526   6.507   6.223
30415WAT      O91486   1.557   5.668   7.656
30415WAT     H191487   1.612   5.610   7.716
30415WAT     H291488   1.485   5.613   7.613
30416WAT      O91489   9.691   1.302   0.056
30416WAT     H191490   9.641   1.284   0.141
30416WAT     H291491   9.780   1.257   0.060
30417WAT      O91492   8.654   7.381   2.381
30417WAT     H191493   8.601   7.317   2.325
30417WAT     H291494   8.748   7.346   2.391
30418WAT      O91495   4.451   6.981   9.737
30418WAT     H191496   4.404   7.047   9.678
30418WAT     H291497   4.515   7.029   9.797
30419WAT      O91498   1.242   7.886   1.299
30419WAT     H191499   1.308   7.932   1.239
30419WAT     H291500   1.212   7.950   1.370
30420WAT      O91501   0.542   0.535   0.277
30420WAT     H191502   0.575   0.630   0.273
30420WAT     H291503   0.526   0.502   0.184
30421WAT      O91504   5.025   1.594   6.122
30421WAT     H191505   4.986   1.636   6.040
30421WAT     H291506   5.080   1.661   6.171
30422WAT      O91507   7.337   5.504   8.777
30422WAT     H191508   7.397   5.427   8.758
30422WAT     H291509   7.248   5.490   8.732
30423WAT      O91510   5.116   6.939   1.547
30423WAT     H191511   5.137   6.887   1.465
30423WAT     H291512   5.201   6.957   1.598
30424WAT      O91513   9.317   4.640   7.149
30424WAT     H191514   9.305   4.666   7.245
30424WAT     H291515   9.404   4.677   7.115
30425WAT      O91516   7.336   1.974   7.866
30425WAT     H191517   7.264   2.043   7.872
30425WAT     H291518   7.348   1.930   7.955
30426WAT      O91519   5.461   8.806   7.155
30426WAT     H191520   5.440   8.865   7.233
30426WAT     H291521   5.465   8.711   7.185
30427WAT      O91522   6.365   6.346   6.119
30427WAT     H191523   6.425   6.367   6.041
30427WAT     H291524   6.297   6.278   6.091
30428WAT      O91525   7.091   4.064   1.539
30428WAT     H191526   7.017   4.117   1.497
30428WAT     H291527   7.098   4.088   1.636
30429WAT      O91528   6.782   6.474   9.649
30429WAT     H191529   6.824   6.383   9.646
30429WAT     H291530   6.689   6.467   9.683
30430WAT      O91531   2.752   3.752   8.346
30430WAT     H191532   2.708   3.716   8.429
30430WAT     H291533   2.682   3.789   8.285
30431WAT      O91534   3.306   2.043   5.771
30431WAT     H191535   3.369   1.966   5.762
30431WAT     H291536   3.225   2.014   5.822
30432WAT      O91537   5.900   4.881   9.477
30432WAT     H191538   5.873   4.977   9.479
30432WAT     H291539   5.892   4.846   9.383
30433WAT      O91540   0.653   9.160   3.773
30433WAT     H191541   0.587   9.097   3.731
30433WAT     H291542   0.605   9.242   3.804
30434WAT      O91543   6.006   8.800   3.822
30434WAT     H191544   6.010   8.768   3.916
30434WAT     H291545   5.953   8.885   3.818
30435WAT      O91546   6.435   1.240   0.185
30435WAT     H191547   6.480   1.173   0.244
30435WAT     H291548   6.336   1.238   0.201
30436WAT      O91549   4.821   4.197   0.691
30436WAT     H191550   4.803   4.174   0.595
30436WAT     H291551   4.774   4.131   0.750
30437WAT      O91552   5.218   3.040   5.244
30437WAT     H191553   5.198   2.967   5.309
30437WAT     H291554   5.312   3.072   5.257
30438WAT      O91555   0.357   4.856   2.734
30438WAT     H191556   0.333   4.774   2.786
30438WAT     H291557   0.289   4.927   2.752
30439WAT      O91558   8.746   1.860   4.659
30439WAT     H191559   8.768   1.766   4.631
30439WAT     H291560   8.688   1.857   4.741
30440WAT      O91561   1.760   6.062   8.206
30440WAT     H191562   1.694   6.138   8.206
30440WAT     H291563   1.717   5.982   8.163
30441WAT      O91564   4.800   8.123   4.801
30441WAT     H191565   4.707   8.152   4.779
30441WAT     H291566   4.839   8.074   4.723
30442WAT      O91567   9.525   4.077   2.674
30442WAT     H191568   9.541   4.064   2.576
30442WAT     H291569   9.593   4.140   2.712
30443WAT      O91570   5.478   6.158   1.338
30443WAT     H191571   5.570   6.199   1.330
30443WAT     H291572   5.486   6.059   1.345
30444WAT      O91573   6.582   9.456   9.487
30444WAT     H191574   6.509   9.490   9.545
30444WAT     H291575   6.560   9.362   9.458
30445WAT      O91576   1.332   5.916   5.622
30445WAT     H191577   1.347   5.995   5.562
30445WAT     H291578   1.369   5.935   5.713
30446WAT      O91579   9.801   7.976   3.363
30446WAT     H191580   9.794   7.912   3.287
30446WAT     H291581   9.897   7.999   3.378
30447WAT      O91582   4.174   1.172   4.370
30447WAT     H191583   4.198   1.269   4.366
30447WAT     H291584   4.075   1.163   4.384
30448WAT      O91585   5.391   8.298   8.822
30448WAT     H191586   5.428   8.385   8.791
30448WAT     H291587   5.370   8.303   8.919
30449WAT      O91588   5.974   2.557   4.506
30449WAT     H191589   5.908   2.547   4.581
30449WAT     H291590   6.055   2.502   4.526
30450WAT      O91591   6.074   6.903   8.269
30450WAT     H191592   6.049   6.939   8.180
30450WAT     H291593   6.173   6.906   8.280
30451WAT      O91594   3.392   1.150   5.316
30451WAT     H191595   3.444   1.087   5.373
30451WAT     H291596   3.317   1.101   5.271
30452WAT      O91597   5.257   4.549   6.570
30452WAT     H191598   5.207   4.635   6.577
30452WAT     H291599   5.222   4.484   6.638
30453WAT      O91600   0.899   0.030   2.534
30453WAT     H191601   0.980   0.063   2.485
30453WAT     H291602   0.830   0.102   2.537
30454WAT      O91603   1.684   1.944   7.546
30454WAT     H191604   1.704   1.996   7.463
30454WAT     H291605   1.649   1.854   7.522
30455WAT      O91606   1.183   9.242   6.350
30455WAT     H191607   1.160   9.338   6.366
30455WAT     H291608   1.231   9.233   6.263
30456WAT      O91609   0.315   6.168   3.232
30456WAT     H191610   0.233   6.126   3.272
30456WAT     H291611   0.313   6.267   3.249
30457WAT      O91612   0.640   0.921   1.615
30457WAT     H191613   0.714   0.854   1.605
30457WAT     H291614   0.652   0.971   1.700
30458WAT      O91615   5.710   7.924   1.241
30458WAT     H191616   5.733   8.001   1.183
30458WAT     H291617   5.771   7.847   1.222
30459WAT      O91618   0.805   4.490   0.681
30459WAT     H191619   0.767   4.542   0.757
30459WAT     H291620   0.731   4.449   0.628
30460WAT      O91621   3.882   9.434   9.616
30460WAT     H191622   3.972   9.449   9.575
30460WAT     H291623   3.838   9.356   9.571
30461WAT      O91624   5.155   4.400   7.285
30461WAT     H191625   5.161   4.300   7.290
30461WAT     H291626   5.108   4.435   7.366
30462WAT      O91627   3.579   4.475   6.918
30462WAT     H191628   3.647   4.546   6.936
30462WAT     H291629   3.508   4.511   6.857
30463WAT      O91630   6.552   5.033   1.807
30463WAT     H191631   6.571   5.032   1.905
30463WAT     H291632   6.481   5.101   1.787
30464WAT      O91633   7.922   7.982   5.685
30464WAT     H191634   8.015   8.009   5.660
30464WAT     H291635   7.895   7.902   5.630
30465WAT      O91636   7.367   5.295   7.025
30465WAT     H191637   7.436   5.224   7.014
30465WAT     H291638   7.411   5.384   7.028
30466WAT      O91639   8.337   0.971   1.563
30466WAT     H191640   8.428   1.012   1.555
30466WAT     H291641   8.342   0.891   1.622
30467WAT      O91642   1.992   3.027   0.887
30467WAT     H191643   2.078   3.001   0.844
30467WAT     H291644   2.001   3.117   0.930
30468WAT      O91645   0.400   5.522   3.405
30468WAT     H191646   0.375   5.610   3.365
30468WAT     H291647   0.375   5.521   3.502
30469WAT      O91648   0.785   7.297   8.045
30469WAT     H191649   0.763   7.347   8.129
30469WAT     H291650   0.724   7.327   7.972
30470WAT      O91651   9.542   6.785   4.024
30470WAT     H191652   9.487   6.744   4.096
30470WAT     H291653   9.516   6.746   3.936
30471WAT      O91654   7.772   9.158   9.026
30471WAT     H191655   7.714   9.081   9.053
30471WAT     H291656   7.722   9.217   8.963
30472WAT      O91657   4.624   4.388   9.749
30472WAT     H191658   4.705   4.333   9.772
30472WAT     H291659   4.650   4.484   9.742
30473WAT      O91660   0.225   5.961   0.109
30473WAT     H191661   0.140   6.013   0.108
30473WAT     H291662   0.260   5.955   0.202
30474WAT      O91663   5.019   5.563   2.226
30474WAT     H191664   5.109   5.601   2.202
30474WAT     H291665   5.016   5.544   2.324
30475WAT      O91666   0.261   3.455   9.015
30475WAT     H191667   0.272   3.547   9.055
30475WAT     H291668   0.169   3.445   8.979
30476WAT      O91669   5.735   3.972   2.754
30476WAT     H191670   5.821   3.983   2.804
30476WAT     H291671   5.731   3.881   2.713
30477WAT      O91672   7.541   4.027   1.667
30477WAT     H191673   7.582   3.974   1.741
30477WAT     H291674   7.593   4.111   1.653
30478WAT      O91675   8.823   9.468   5.412
30478WAT     H191676   8.801   9.396   5.478
30478WAT     H291677   8.792   9.556   5.447
30479WAT      O91678   4.138   7.732   4.226
30479WAT     H191679   4.148   7.831   4.225
30479WAT     H291680   4.180   7.695   4.309
30480WAT      O91681   3.845   7.125   4.581
30480WAT     H191682   3.806   7.035   4.600
30480WAT     H291683   3.922   7.116   4.518
30481WAT      O91684   7.019   0.342   5.877
30481WAT     H191685   6.946   0.275   5.861
30481WAT     H291686   7.081   0.342   5.799
30482WAT      O91687   1.109   6.550   6.176
30482WAT     H191688   1.108   6.530   6.274
30482WAT     H291689   1.177   6.493   6.130
30483WAT      O91690   7.075   4.151   1.817
30483WAT     H191691   6.994   4.179   1.867
30483WAT     H291692   7.154   4.151   1.878
30484WAT      O91693   1.168   4.520   4.659
30484WAT     H191694   1.161   4.441   4.720
30484WAT     H291695   1.162   4.604   4.712
30485WAT      O91696   3.161   1.174   4.028
30485WAT     H191697   3.260   1.177   4.022
30485WAT     H291698   3.121   1.221   3.950
30486WAT      O91699   1.869   2.643   3.290
30486WAT     H191700   1.859   2.741   3.270
30486WAT     H291701   1.954   2.628   3.341
30487WAT      O91702   3.577   0.445   6.333
30487WAT     H191703   3.478   0.456   6.341
30487WAT     H291704   3.599   0.399   6.247
30488WAT      O91705   1.582   5.398   5.599
30488WAT     H191706   1.666   5.347   5.579
30488WAT     H291707   1.586   5.434   5.692
30489WAT      O91708   3.303   2.565   3.509
30489WAT     H191709   3.209   2.583   3.479
30489WAT     H291710   3.355   2.650   3.508
30490WAT      O91711   1.505   3.759   7.502
30490WAT     H191712   1.540   3.751   7.409
30490WAT     H291713   1.549   3.691   7.561
30491WAT      O91714   8.472   5.221   7.102
30491WAT     H191715   8.446   5.292   7.168
30491WAT     H291716   8.411   5.142   7.113
30492WAT      O91717   0.562   6.442   7.900
30492WAT     H191718   0.641   6.503   7.897
30492WAT     H291719   0.544   6.406   7.809
30493WAT      O91720   4.012   9.318   1.860
30493WAT     H191721   3.938   9.304   1.926
30493WAT     H291722   3.990   9.395   1.801
30494WAT      O91723   1.472   1.821   6.941
30494WAT     H191724   1.498   1.894   7.004
30494WAT     H291725   1.482   1.732   6.987
30495WAT      O91726   9.454   5.005   3.870
30495WAT     H191727   9.453   5.068   3.792
30495WAT     H291728   9.515   4.929   3.851
30496WAT      O91729   3.407   9.110   9.168
30496WAT     H191730   3.399   9.128   9.070
30496WAT     H291731   3.319   9.076   9.203
30497WAT      O91732   3.636   7.626   7.547
30497WAT     H191733   3.644   7.652   7.643
30497WAT     H291734   3.638   7.526   7.539
30498WAT      O91735   2.451   1.695   5.015
30498WAT     H191736   2.457   1.601   5.048
30498WAT     H291737   2.359   1.731   5.030
30499WAT      O91738   7.140   0.027   3.576
30499WAT     H191739   7.236   0.034   3.550
30499WAT     H291740   7.134  -0.010   3.669
30500WAT      O91741   8.403   2.365   8.190
30500WAT     H191742   8.492   2.407   8.172
30500WAT     H291743   8.335   2.436   8.210
30501WAT      O91744   7.819   4.842   4.256
30501WAT     H191745   7.835   4.745   4.239
30501WAT     H291746   7.873   4.872   4.335
30502WAT      O91747   7.182   4.336   4.313
30502WAT     H191748   7.124   4.273   4.365
30502WAT     H291749   7.144   4.350   4.222
30503WAT      O91750   6.653   3.913   0.903
30503WAT     H191751   6.613   3.962   0.826
30503WAT     H291752   6.747   3.943   0.916
30504WAT      O91753   6.273   6.531   2.021
30504WAT     H191754   6.363   6.528   1.978
30504WAT     H291755   6.252   6.441   2.058
30505WAT      O91756   3.835   8.749   6.160
30505WAT     H191757   3.819   8.690   6.081
30505WAT     H291758   3.785   8.835   6.148
30506WAT      O91759   3.175   3.555   2.736
30506WAT     H191760   3.094   3.500   2.758
30506WAT     H291761   3.156   3.612   2.656
30507WAT      O91762   9.001   1.680   6.716
30507WAT     H191763   9.034   1.770   6.741
30507WAT     H291764   9.028   1.613   6.785
30508WAT      O91765   4.050   4.842   3.626
30508WAT     H191766   4.039   4.746   3.598
30508WAT     H291767   4.131   4.880   3.583
30509WAT      O91768   6.305   9.653   1.563
30509WAT     H191769   6.215   9.634   1.602
30509WAT     H291770   6.359   9.568   1.563
30510WAT      O91771   6.267   4.827   8.272
30510WAT     H191772   6.236   4.740   8.233
30510WAT     H291773   6.275   4.819   8.371
30511WAT      O91774   1.368   9.136   3.745
30511WAT     H191775   1.277   9.108   3.778
30511WAT     H291776   1.435   9.068   3.775
30512WAT      O91777   7.607   7.549   0.361
30512WAT     H191778   7.549   7.498   0.297
30512WAT     H291779   7.653   7.485   0.423
30513WAT      O91780   8.160   6.886   6.320
30513WAT     H191781   8.074   6.930   6.345
30513WAT     H291782   8.218   6.876   6.401
30514WAT      O91783   7.787   1.547   7.012
30514WAT     H191784   7.819   1.621   7.070
30514WAT     H291785   7.819   1.459   7.048
30515WAT      O91786   6.778   7.227   6.626
30515WAT     H191787   6.686   7.218   6.588
30515WAT     H291788   6.843   7.178   6.569
30516WAT      O91789   1.179   8.598   0.600
30516WAT     H191790   1.118   8.661   0.647
30516WAT     H291791   1.274   8.629   0.610
30517WAT      O91792   9.641   6.585   1.906
30517WAT     H191793   9.549   6.559   1.876
30517WAT     H291794   9.664   6.675   1.868
30518WAT      O91795   0.554   9.376   5.720
30518WAT     H191796   0.589   9.469   5.708
30518WAT     H291797   0.612   9.326   5.783
30519WAT      O91798   2.508   8.109   2.247
30519WAT     H191799   2.431   8.135   2.188
30519WAT     H291800   2.478   8.109   2.342
30520WAT      O91801   1.082   1.282   2.243
30520WAT     H191802   1.016   1.240   2.306
30520WAT     H291803   1.164   1.226   2.239
30521WAT      O91804   7.270   6.375   3.739
30521WAT     H191805   7.294   6.286   3.778
30521WAT     H291806   7.278   6.370   3.639
30522WAT      O91807   8.781   4.619   9.152
30522WAT     H191808   8.857   4.671   9.191
30522WAT     H291809   8.782   4.628   9.053
30523WAT      O91810   8.362   5.245   2.667
30523WAT     H191811   8.426   5.207   2.734
30523WAT     H291812   8.394   5.336   2.639
30524WAT      O91813   4.530   7.308   8.827
30524WAT     H191814   4.475   7.306   8.744
30524WAT     H291815   4.470   7.303   8.907
30525WAT      O91816   4.206   1.170   8.860
30525WAT     H191817   4.238   1.209   8.774
30525WAT     H291818   4.283   1.161   8.923
30526WAT      O91819   7.457   0.920   1.060
30526WAT     H191820   7.466   0.844   0.996
30526WAT     H291821   7.453   1.006   1.009
30527WAT      O91822   5.698   7.292   0.206
30527WAT     H191823   5.650   7.360   0.151
30527WAT     H291824   5.771   7.336   0.258
30528WAT      O91825   7.029   5.870   3.187
30528WAT     H191826   6.966   5.907   3.255
30528WAT     H291827   6.995   5.781   3.155
30529WAT      O91828   6.297   9.103   6.382
30529WAT     H191829   6.365   9.058   6.324
30529WAT     H291830   6.205   9.074   6.355
30530WAT      O91831   1.939   2.020   2.612
30530WAT     H191832   1.870   2.088   2.587
30530WAT     H291833   1.912   1.974   2.696
30531WAT      O91834   4.240   7.746   2.960
30531WAT     H191835   4.229   7.845   2.959
30531WAT     H291836   4.260   7.714   2.867
30532WAT      O91837   6.797   0.256   6.054
30532WAT     H191838   6.763   0.235   6.146
30532WAT     H291839   6.860   0.333   6.057
30533WAT      O91840   9.591   3.063   0.077
30533WAT     H191841   9.615   3.120  -0.002
30533WAT     H291842   9.505   3.095   0.116
30534WAT      O91843   7.134   6.659   4.525
30534WAT     H191844   7.203   6.706   4.470
30534WAT     H291845   7.043   6.685   4.493
30535WAT      O91846   3.483   0.630   9.731
30535WAT     H191847   3.493   0.728   9.746
30535WAT     H291848   3.540   0.602   9.654
30536WAT      O91849   3.237   7.638   6.986
30536WAT     H191850   3.261   7.701   6.911
30536WAT     H291851   3.238   7.544   6.952
30537WAT      O91852   7.491   4.064   0.082
30537WAT     H191853   7.488   4.037  -0.014
30537WAT     H291854   7.542   3.995   0.134
30538WAT      O91855   6.585   5.451   1.962
30538WAT     H191856   6.538   5.373   1.920
30538WAT     H291857   6.682   5.431   1.970
30539WAT      O91858   2.059   1.260   2.686
30539WAT     H191859   2.034   1.219   2.773
30539WAT     H291860   2.154   1.290   2.690
30540WAT      O91861   0.749   6.957   3.147
30540WAT     H191862   0.774   6.888   3.214
30540WAT     H291863   0.783   6.929   3.057
30541WAT      O91864   1.510   7.926   0.251
30541WAT     H191865   1.535   7.909   0.346
30541WAT     H291866   1.453   8.008   0.245
30542WAT      O91867   5.783   5.691   7.958
30542WAT     H191868   5.694   5.731   7.935
30542WAT     H291869   5.818   5.733   8.042
30543WAT      O91870   0.107   2.719   9.458
30543WAT     H191871   0.152   2.747   9.543
30543WAT     H291872   0.170   2.731   9.381
30544WAT      O91873   2.310   7.871   2.521
30544WAT     H191874   2.278   7.953   2.473
30544WAT     H291875   2.244   7.797   2.507
30545WAT      O91876   1.880   4.048   5.543
30545WAT     H191877   1.893   3.989   5.623
30545WAT     H291878   1.955   4.114   5.538
30546WAT      O91879   9.839   5.786   6.637
30546WAT     H191880   9.904   5.855   6.668
30546WAT     H291881   9.848   5.704   6.693
30547WAT      O91882   9.217   9.623   5.542
30547WAT     H191883   9.165   9.669   5.470
30547WAT     H291884   9.160   9.555   5.587
30548WAT      O91885   9.153   8.065   1.750
30548WAT     H191886   9.101   8.052   1.835
30548WAT     H291887   9.100   8.122   1.687
30549WAT      O91888   9.528   5.748   2.363
30549WAT     H191889   9.470   5.731   2.442
30549WAT     H291890   9.472   5.779   2.286
30550WAT      O91891   3.527   2.373   2.562
30550WAT     H191892   3.493   2.280   2.550
30550WAT     H291893   3.616   2.382   2.517
30551WAT      O91894   1.931   0.280   2.036
30551WAT     H191895   1.994   0.323   2.101
30551WAT     H291896   1.949   0.315   1.944
30552WAT      O91897   1.938   2.499   3.638
30552WAT     H191898   2.036   2.498   3.656
30552WAT     H291899   1.916   2.428   3.571
30553WAT      O91900   9.774   3.686   2.051
30553WAT     H191901   9.871   3.702   2.031
30553WAT     H291902   9.765   3.610   2.116
30554WAT      O91903   2.584   7.738   4.314
30554WAT     H191904   2.576   7.675   4.391
30554WAT     H291905   2.571   7.832   4.347
30555WAT      O91906   7.528   0.970   3.741
30555WAT     H191907   7.587   0.950   3.820
30555WAT     H291908   7.586   0.990   3.662
30556WAT      O91909   2.372   2.422   8.798
30556WAT     H191910   2.467   2.398   8.817
30556WAT     H291911   2.359   2.433   8.699
30557WAT      O91912   8.890   5.823   4.983
30557WAT     H191913   8.882   5.736   4.935
30557WAT     H291914   8.859   5.812   5.077
30558WAT      O91915   6.907   7.071   3.487
30558WAT     H191916   6.846   7.037   3.416
30558WAT     H291917   6.857   7.134   3.547
30559WAT      O91918   8.649   4.894   0.314
30559WAT     H191919   8.576   4.950   0.352
30559WAT     H291920   8.717   4.876   0.385
30560WAT      O91921   5.215   9.394   3.361
30560WAT     H191922   5.210   9.493   3.354
30560WAT     H291923   5.257   9.357   3.278
30561WAT      O91924   1.624   5.574   3.609
30561WAT     H191925   1.667   5.652   3.564
30561WAT     H291926   1.528   5.596   3.627
30562WAT      O91927   8.130   1.015   0.301
30562WAT     H191928   8.068   0.960   0.244
30562WAT     H291929   8.148   1.102   0.255
30563WAT      O91930   8.409   8.448   0.090
30563WAT     H191931   8.353   8.380   0.042
30563WAT     H291932   8.503   8.442   0.058
30564WAT      O91933   8.628   7.208   3.736
30564WAT     H191934   8.607   7.111   3.750
30564WAT     H291935   8.717   7.229   3.777
30565WAT      O91936   5.735   3.822   4.519
30565WAT     H191937   5.737   3.817   4.419
30565WAT     H291938   5.669   3.755   4.554
30566WAT      O91939   7.329   1.093   7.307
30566WAT     H191940   7.238   1.052   7.298
30566WAT     H291941   7.377   1.087   7.219
30567WAT      O91942   1.928   8.598   1.520
30567WAT     H191943   1.971   8.647   1.444
30567WAT     H291944   1.863   8.658   1.566
30568WAT      O91945   1.183   2.186   7.499
30568WAT     H191946   1.184   2.211   7.596
30568WAT     H291947   1.264   2.131   7.479
30569WAT      O91948   3.730   0.147   1.947
30569WAT     H191949   3.760   0.201   2.026
30569WAT     H291950   3.771   0.184   1.864
30570WAT      O91951   8.102   2.832   2.403
30570WAT     H191952   8.079   2.919   2.446
30570WAT     H291953   8.170   2.784   2.460
30571WAT      O91954   5.839   4.698   0.665
30571WAT     H191955   5.748   4.691   0.705
30571WAT     H291956   5.837   4.670   0.569
30572WAT      O91957   2.678   0.476   5.418
30572WAT     H191958   2.706   0.570   5.402
30572WAT     H291959   2.706   0.448   5.509
30573WAT      O91960   1.000   9.349   7.057
30573WAT     H191961   0.948   9.274   7.098
30573WAT     H291962   1.098   9.336   7.077
30574WAT      O91963   1.484   0.473   4.867
30574WAT     H191964   1.394   0.487   4.909
30574WAT     H291965   1.503   0.375   4.859
30575WAT      O91966   3.850   8.038   1.756
30575WAT     H191967   3.905   7.990   1.824
30575WAT     H291968   3.753   8.015   1.768
30576WAT      O91969   9.389   6.719   2.626
30576WAT     H191970   9.381   6.817   2.607
30576WAT     H291971   9.357   6.667   2.547
30577WAT      O91972   3.808   3.561   3.005
30577WAT     H191973   3.833   3.657   2.996
30577WAT     H291974   3.812   3.534   3.101
30578WAT      O91975   1.402   4.266   9.117
30578WAT     H191976   1.391   4.301   9.024
30578WAT     H291977   1.414   4.342   9.180
30579WAT      O91978   1.023   4.992   9.588
30579WAT     H191979   1.045   4.966   9.682
30579WAT     H291980   1.025   4.911   9.530
30580WAT      O91981   2.203   3.284   4.781
30580WAT     H191982   2.115   3.331   4.789
30580WAT     H291983   2.277   3.352   4.789
30581WAT      O91984   3.348   7.777   6.301
30581WAT     H191985   3.443   7.781   6.331
30581WAT     H291986   3.342   7.804   6.205
30582WAT      O91987   4.467   1.249   9.000
30582WAT     H191988   4.492   1.343   9.024
30582WAT     H291989   4.425   1.205   9.079
30583WAT      O91990   8.419   7.145   1.190
30583WAT     H191991   8.478   7.067   1.167
30583WAT     H291992   8.329   7.111   1.219
30584WAT      O91993   8.503   1.851   4.049
30584WAT     H191994   8.531   1.946   4.062
30584WAT     H291995   8.409   1.839   4.081
30585WAT      O91996   8.039   5.033   1.079
30585WAT     H191997   8.000   5.068   0.994
30585WAT     H291998   7.993   5.075   1.157
30586WAT      O91999   5.591   6.455   5.066
30586WAT     H192000   5.501   6.485   5.034
30586WAT     H292001   5.583   6.416   5.158
30587WAT      O92002   1.492   7.256   2.719
30587WAT     H192003   1.403   7.302   2.732
30587WAT     H292004   1.563   7.325   2.704
30588WAT      O92005   7.701   5.432   2.141
30588WAT     H192006   7.616   5.379   2.141
30588WAT     H292007   7.779   5.370   2.125
30589WAT      O92008   6.487   2.704   6.544
30589WAT     H192009   6.580   2.699   6.582
30589WAT     H292010   6.484   2.652   6.459
30590WAT      O92011   2.744   7.100   4.578
30590WAT     H192012   2.711   7.037   4.648
30590WAT     H292013   2.842   7.086   4.565
30591WAT      O92014   7.487   0.689   8.872
30591WAT     H192015   7.466   0.787   8.865
30591WAT     H292016   7.561   0.667   8.810
30592WAT      O92017   3.632   5.038   0.784
30592WAT     H192018   3.641   5.107   0.856
30592WAT     H292019   3.621   4.948   0.825
30593WAT      O92020   6.110   5.455   5.902
30593WAT     H192021   6.069   5.392   5.837
30593WAT     H292022   6.199   5.485   5.868
30594WAT      O92023   2.526   0.477   8.753
30594WAT     H192024   2.498   0.500   8.659
30594WAT     H292025   2.449   0.435   8.801
30595WAT      O92026   8.215   2.788   9.484
30595WAT     H192027   8.238   2.808   9.579
30595WAT     H292028   8.133   2.730   9.481
30596WAT      O92029   5.636   6.500   7.858
30596WAT     H192030   5.603   6.407   7.840
30596WAT     H292031   5.559   6.564   7.851
30597WAT      O92032   4.351   0.763   7.387
30597WAT     H192033   4.290   0.824   7.437
30597WAT     H292034   4.353   0.789   7.291
30598WAT      O92035   9.568   8.814   0.390
30598WAT     H192036   9.521   8.895   0.426
30598WAT     H292037   9.529   8.791   0.300
30599WAT      O92038   6.985   6.605   7.287
30599WAT     H192039   6.916   6.642   7.225
30599WAT     H292040   6.990   6.662   7.369
30600WAT      O92041   8.450   7.709   9.676
30600WAT     H192042   8.504   7.793   9.681
30600WAT     H292043   8.505   7.631   9.705
30601WAT      O92044   2.936   7.480   1.260
30601WAT     H192045   2.977   7.474   1.351
30601WAT     H292046   2.995   7.533   1.200
30602WAT      O92047   8.797   6.222   3.756
30602WAT     H192048   8.793   6.246   3.659
30602WAT     H292049   8.797   6.123   3.766
30603WAT      O92050   0.921   6.115   5.746
30603WAT     H192051   0.961   6.090   5.657
30603WAT     H292052   0.823   6.099   5.744
30604WAT      O92053   9.869   7.939   6.865
30604WAT     H192054   9.844   7.907   6.957
30604WAT     H292055   9.796   7.997   6.829
30605WAT      O92056   7.809   1.408   5.053
30605WAT     H192057   7.819   1.508   5.053
30605WAT     H292058   7.873   1.369   5.119
30606WAT      O92059   2.187   1.232   7.774
30606WAT     H192060   2.259   1.265   7.713
30606WAT     H292061   2.204   1.266   7.867
30607WAT      O92062   1.233   1.588   3.162
30607WAT     H192063   1.171   1.513   3.186
30607WAT     H292064   1.312   1.586   3.223
30608WAT      O92065   8.757   3.682   8.049
30608WAT     H192066   8.754   3.605   8.113
30608WAT     H292067   8.846   3.686   8.005
30609WAT      O92068   8.199   8.879   5.397
30609WAT     H192069   8.135   8.811   5.360
30609WAT     H292070   8.148   8.955   5.436
30610WAT      O92071   9.885   3.242   7.264
30610WAT     H192072   9.826   3.256   7.185
30610WAT     H292073   9.978   3.223   7.234
30611WAT      O92074   1.026   1.249   4.856
30611WAT     H192075   1.105   1.311   4.851
30611WAT     H292076   1.033   1.181   4.783
30612WAT      O92077   2.132   2.753   8.323
30612WAT     H192078   2.167   2.661   8.338
30612WAT     H292079   2.165   2.788   8.235
30613WAT      O92080   0.468   5.028   5.400
30613WAT     H192081   0.424   5.083   5.329
30613WAT     H292082   0.552   4.988   5.363
30614WAT      O92083   5.131   5.202   3.363
30614WAT     H192084   5.123   5.157   3.452
30614WAT     H292085   5.217   5.176   3.320
30615WAT      O92086   9.180   0.609   5.265
30615WAT     H192087   9.174   0.633   5.362
30615WAT     H292088   9.113   0.664   5.214
30616WAT      O92089   5.886   0.188   8.028
30616WAT     H192090   5.867   0.277   7.986
30616WAT     H292091   5.801   0.150   8.064
30617WAT      O92092   1.887   8.478   9.707
30617WAT     H192093   1.846   8.569   9.707
30617WAT     H292094   1.911   8.453   9.801
30618WAT      O92095   0.162   8.046   4.521
30618WAT     H192096   0.242   8.094   4.485
30618WAT     H292097   0.175   8.027   4.618
30619WAT      O92098   6.150   8.642   1.034
30619WAT     H192099   6.097   8.559   1.050
30619WAT     H292100   6.090   8.721   1.034
30620WAT      O92101   6.901   2.707   4.264
30620WAT     H192102   6.822   2.758   4.299
30620WAT     H292103   6.974   2.708   4.332
30621WAT      O92104   5.883   5.802   6.369
30621WAT     H192105   5.876   5.898   6.343
30621WAT     H292106   5.979   5.778   6.380
30622WAT      O92107   3.120   4.715   9.463
30622WAT     H192108   3.105   4.757   9.374
30622WAT     H292109   3.212   4.676   9.466
30623WAT      O92110   4.488   0.660   1.556
30623WAT     H192111   4.565   0.597   1.547
30623WAT     H292112   4.459   0.691   1.466
30624WAT      O92113   2.882   6.742   3.345
30624WAT     H192114   2.823   6.680   3.397
30624WAT     H292115   2.862   6.733   3.248
30625WAT      O92116   6.521   2.571   4.297
30625WAT     H192117   6.540   2.509   4.221
30625WAT     H292118   6.423   2.589   4.301
30626WAT      O92119   1.980   3.494   4.785
30626WAT     H192120   1.892   3.465   4.824
30626WAT     H292121   1.970   3.505   4.687
30627WAT      O92122   3.311   7.569   5.925
30627WAT     H192123   3.383   7.551   5.859
30627WAT     H292124   3.270   7.482   5.954
30628WAT      O92125   6.449   2.462   3.643
30628WAT     H192126   6.350   2.444   3.642
30628WAT     H292127   6.468   2.541   3.585
30629WAT      O92128   9.548   0.030   3.447
30629WAT     H192129   9.547   0.013   3.348
30629WAT     H292130   9.609   0.107   3.467
30630WAT      O92131   3.503   3.459   8.759
30630WAT     H192132   3.487   3.367   8.723
30630WAT     H292133   3.502   3.457   8.859
30631WAT      O92134   1.104   5.773   1.761
30631WAT     H192135   1.014   5.732   1.776
30631WAT     H292136   1.105   5.866   1.797
30632WAT      O92137   1.238   6.118   9.345
30632WAT     H192138   1.241   6.029   9.390
30632WAT     H292139   1.250   6.190   9.413
30633WAT      O92140   4.599   2.828   1.375
30633WAT     H192141   4.509   2.787   1.364
30633WAT     H292142   4.646   2.784   1.451
30634WAT      O92143   0.773   4.862   6.071
30634WAT     H192144   0.857   4.855   6.017
30634WAT     H292145   0.731   4.772   6.079
30635WAT      O92146   6.238   8.843   9.751
30635WAT     H192147   6.165   8.872   9.813
30635WAT     H292148   6.321   8.824   9.803
30636WAT      O92149   0.334   1.779   9.172
30636WAT     H192150   0.284   1.844   9.115
30636WAT     H292151   0.340   1.815   9.265
30637WAT      O92152   7.494   7.930   4.114
30637WAT     H192153   7.508   7.831   4.112
30637WAT     H292154   7.580   7.976   4.138
30638WAT      O92155   6.590   2.343   2.355
30638WAT     H192156   6.571   2.404   2.433
30638WAT     H292157   6.595   2.397   2.271
30639WAT      O92158   3.674   1.166   3.462
30639WAT     H192159   3.669   1.193   3.366
30639WAT     H292160   3.767   1.181   3.496
30640WAT      O92161  -0.002   4.301   3.473
30640WAT     H192162   0.079   4.359   3.460
30640WAT     H292163   0.015   4.212   3.432
30641WAT      O92164   7.697   4.350   7.873
30641WAT     H192165   7.653   4.264   7.846
30641WAT     H292166   7.670   4.373   7.967
30642WAT      O92167   6.182   8.903   9.437
30642WAT     H192168   6.129   8.839   9.492
30642WAT     H292169   6.273   8.865   9.419
30643WAT      O92170   5.594   3.401   0.175
30643WAT     H192171   5.622   3.365   0.085
30643WAT     H292172   5.509   3.453   0.164
30644WAT      O92173   2.544   1.774   1.924
30644WAT     H192174   2.459   1.815   1.891
30644WAT     H292175   2.586   1.720   1.851
30645WAT      O92176   8.201   1.928   5.821
30645WAT     H192177   8.240   2.020   5.824
30645WAT     H292178   8.271   1.863   5.789
30646WAT      O92179   8.716   5.830   0.239
30646WAT     H192180   8.665   5.885   0.305
30646WAT     H292181   8.797   5.792   0.284
30647WAT      O92182   9.297   1.109   6.605
30647WAT     H192183   9.242   1.166   6.666
30647WAT     H292184   9.316   1.159   6.521
30648WAT      O92185   4.402   4.014   5.368
30648WAT     H192186   4.327   3.953   5.392
30648WAT     H292187   4.489   3.967   5.383
30649WAT      O92188   9.523   6.297   4.541
30649WAT     H192189   9.595   6.325   4.477
30649WAT     H292190   9.494   6.377   4.594
30650WAT      O92191   1.252   3.500   8.772
30650WAT     H192192   1.237   3.424   8.710
30650WAT     H292193   1.274   3.466   8.863
30651WAT      O92194   2.594   1.066   0.052
30651WAT     H192195   2.630   1.012   0.128
30651WAT     H292196   2.500   1.094   0.072
30652WAT      O92197   8.042   0.778   0.842
30652WAT     H192198   8.076   0.790   0.748
30652WAT     H292199   7.979   0.701   0.845
30653WAT      O92200   8.184   8.664   2.738
30653WAT     H192201   8.231   8.583   2.774
30653WAT     H292202   8.119   8.636   2.668
30654WAT      O92203   3.517   1.893   3.419
30654WAT     H192204   3.515   1.987   3.453
30654WAT     H292205   3.480   1.831   3.488
30655WAT      O92206   4.123   0.025   0.760
30655WAT     H192207   4.108   0.124   0.761
30655WAT     H292208   4.203   0.004   0.704
30656WAT      O92209   2.543   6.451   4.218
30656WAT     H192210   2.536   6.432   4.316
30656WAT     H292211   2.524   6.367   4.167
30657WAT      O92212   4.417   7.243   5.225
30657WAT     H192213   4.356   7.280   5.295
30657WAT     H292214   4.409   7.144   5.223
30658WAT      O92215   8.104   3.327   1.049
30658WAT     H192216   8.022   3.329   1.108
30658WAT     H292217   8.116   3.235   1.012
30659WAT      O92218   3.042   0.468   8.883
30659WAT     H192219   3.071   0.544   8.825
30659WAT     H292220   3.123   0.425   8.924
30660WAT      O92221   2.748   4.260   2.114
30660WAT     H192222   2.816   4.290   2.047
30660WAT     H292223   2.671   4.216   2.067
30661WAT      O92224   1.661   6.088   6.638
30661WAT     H192225   1.705   5.999   6.623
30661WAT     H292226   1.686   6.151   6.565
30662WAT      O92227   3.778   4.644   6.929
30662WAT     H192228   3.840   4.671   7.002
30662WAT     H292229   3.822   4.660   6.840
30663WAT      O92230   6.712   1.563   8.141
30663WAT     H192231   6.796   1.599   8.182
30663WAT     H292232   6.728   1.541   8.045
30664WAT      O92233   5.855   7.191   6.871
30664WAT     H192234   5.869   7.280   6.829
30664WAT     H292235   5.819   7.203   6.964
30665WAT      O92236   5.013   7.122   3.996
30665WAT     H192237   5.056   7.209   3.970
30665WAT     H292238   5.077   7.047   3.980
30666WAT      O92239   7.242   4.871   5.802
30666WAT     H192240   7.261   4.786   5.853
30666WAT     H292241   7.315   4.937   5.818
30667WAT      O92242   9.399   1.704   0.713
30667WAT     H192243   9.487   1.729   0.675
30667WAT     H292244   9.326   1.751   0.663
30668WAT      O92245   2.380   0.073   8.989
30668WAT     H192246   2.402   0.012   8.913
30668WAT     H292247   2.463   0.094   9.040
30669WAT      O92248   4.908   3.664   7.815
30669WAT     H192249   4.988   3.669   7.755
30669WAT     H292250   4.825   3.671   7.760
30670WAT      O92251   4.036   8.217   2.588
30670WAT     H192252   3.957   8.272   2.615
30670WAT     H292253   4.017   8.120   2.605
30671WAT      O92254   8.493   8.793   1.264
30671WAT     H192255   8.559   8.762   1.332
30671WAT     H292256   8.441   8.870   1.301
30672WAT      O92257   2.620   2.380   1.908
30672WAT     H192258   2.527   2.415   1.918
30672WAT     H292259   2.618   2.281   1.902
30673WAT      O92260   6.684   5.992   7.315
30673WAT     H192261   6.713   6.083   7.344
30673WAT     H292262   6.637   5.999   7.227
30674WAT      O92263   8.211   1.478   6.852
30674WAT     H192264   8.193   1.563   6.902
30674WAT     H292265   8.208   1.496   6.753
30675WAT      O92266   1.775   6.878   5.937
30675WAT     H192267   1.827   6.863   5.853
30675WAT     H292268   1.747   6.789   5.974
30676WAT      O92269   4.228   2.968   7.261
30676WAT     H192270   4.193   3.038   7.323
30676WAT     H292271   4.163   2.892   7.256
30677WAT      O92272   6.356   8.535   3.961
30677WAT     H192273   6.362   8.634   3.952
30677WAT     H292274   6.436   8.501   4.010
30678WAT      O92275   7.520   6.654   0.142
30678WAT     H192276   7.434   6.623   0.100
30678WAT     H292277   7.595   6.596   0.111
30679WAT      O92278   2.975   2.228   3.827
30679WAT     H192279   3.046   2.161   3.849
30679WAT     H292280   2.892   2.180   3.796
30680WAT      O92281   3.511   9.126   1.044
30680WAT     H192282   3.471   9.042   1.007
30680WAT     H292283   3.438   9.187   1.074
30681WAT      O92284   8.163   4.796   0.253
30681WAT     H192285   8.089   4.762   0.196
30681WAT     H292286   8.248   4.801   0.199
30682WAT      O92287   8.463   1.280   2.654
30682WAT     H192288   8.427   1.189   2.678
30682WAT     H292289   8.419   1.312   2.570
30683WAT      O92290   6.308   2.601   9.826
30683WAT     H192291   6.343   2.583   9.918
30683WAT     H292292   6.271   2.694   9.821
30684WAT      O92293   4.613   5.241   2.114
30684WAT     H192294   4.706   5.263   2.142
30684WAT     H292295   4.614   5.158   2.058
30685WAT      O92296   0.214   6.281   0.435
30685WAT     H192297   0.236   6.193   0.476
30685WAT     H292298   0.212   6.273   0.336
30686WAT      O92299   8.211   2.569   0.674
30686WAT     H192300   8.180   2.605   0.586
30686WAT     H292301   8.247   2.477   0.660
30687WAT      O92302   0.046   8.123   5.339
30687WAT     H192303   0.122   8.146   5.400
30687WAT     H292304  -0.036   8.175   5.366
30688WAT      O92305   5.509   2.275   2.538
30688WAT     H192306   5.599   2.313   2.561
30688WAT     H292307   5.437   2.339   2.566
30689WAT      O92308   0.422   4.368   8.398
30689WAT     H192309   0.403   4.448   8.454
30689WAT     H292310   0.342   4.347   8.341
30690WAT      O92311   3.654   3.789   9.372
30690WAT     H192312   3.597   3.767   9.293
30690WAT     H292313   3.647   3.715   9.440
30691WAT      O92314   7.439   7.673   5.534
30691WAT     H192315   7.455   7.720   5.448
30691WAT     H292316   7.421   7.576   5.516
30692WAT      O92317   3.314   0.463   6.363
30692WAT     H192318   3.252   0.535   6.395
30692WAT     H292319   3.262   0.379   6.348
30693WAT      O92320   0.834   1.986   6.494
30693WAT     H192321   0.736   2.004   6.490
30693WAT     H292322   0.883   2.058   6.445
30694WAT      O92323   8.566   5.827   4.247
30694WAT     H192324   8.559   5.818   4.346
30694WAT     H292325   8.504   5.761   4.203
30695WAT      O92326   3.033   8.443   1.520
30695WAT     H192327   3.032   8.343   1.519
30695WAT     H292328   3.034   8.478   1.426
30696WAT      O92329   7.345   7.798   0.300
30696WAT     H192330   7.272   7.749   0.252
30696WAT     H292331   7.384   7.867   0.240
30697WAT      O92332   6.635   5.659   8.008
30697WAT     H192333   6.721   5.706   8.026
30697WAT     H292334   6.634   5.624   7.914
30698WAT      O92335   6.962   9.131   4.099
30698WAT     H192336   7.061   9.119   4.109
30698WAT     H292337   6.943   9.222   4.063
30699WAT      O92338   1.645   4.003   8.189
30699WAT     H192339   1.574   4.069   8.164
30699WAT     H292340   1.722   4.051   8.232
30700WAT      O92341   5.921   7.375   7.116
30700WAT     H192342   5.837   7.346   7.161
30700WAT     H292343   5.931   7.474   7.126
30701WAT      O92344   9.412   7.247   8.851
30701WAT     H192345   9.400   7.320   8.918
30701WAT     H292346   9.322   7.217   8.817
30702WAT      O92347   8.643   1.477   7.755
30702WAT     H192348   8.632   1.526   7.842
30702WAT     H292349   8.590   1.524   7.684
30703WAT      O92350   4.925   0.013   1.076
30703WAT     H192351   5.002  -0.050   1.086
30703WAT     H292352   4.879  -0.004   0.989
30704WAT      O92353   1.289   1.211   7.946
30704WAT     H192354   1.257   1.233   7.854
30704WAT     H292355   1.230   1.142   7.987
30705WAT      O92356   0.079   6.233   0.813
30705WAT     H192357   0.033   6.216   0.726
30705WAT     H292358   0.173   6.201   0.809
30706WAT      O92359   1.911   5.506   5.210
30706WAT     H192360   1.904   5.545   5.301
30706WAT     H292361   1.861   5.563   5.145
30707WAT      O92362   1.260   0.020   7.194
30707WAT     H192363   1.168   0.019   7.233
30707WAT     H292364   1.316   0.088   7.242
30708WAT      O92365   0.339   7.226   0.068
30708WAT     H192366   0.327   7.251   0.164
30708WAT     H292367   0.271   7.273   0.012
30709WAT      O92368   4.777   8.420   0.074
30709WAT     H192369   4.803   8.348   0.010
30709WAT     H292370   4.774   8.507   0.026
30710WAT      O92371   2.933   5.065   0.069
30710WAT     H192372   2.931   4.972   0.034
30710WAT     H292373   2.842   5.106   0.060
30711WAT      O92374   8.699   7.421   4.987
30711WAT     H192375   8.623   7.477   5.021
30711WAT     H292376   8.721   7.351   5.055
30712WAT      O92377   1.637   4.445   3.341
30712WAT     H192378   1.677   4.403   3.423
30712WAT     H292379   1.539   4.426   3.339
30713WAT      O92380   5.151   4.881   2.811
30713WAT     H192381   5.115   4.813   2.747
30713WAT     H292382   5.078   4.943   2.838
30714WAT      O92383   0.661   2.928   1.391
30714WAT     H192384   0.728   3.000   1.371
30714WAT     H292385   0.702   2.839   1.378
30715WAT      O92386   7.909   1.357   1.020
30715WAT     H192387   7.963   1.435   0.988
30715WAT     H292388   7.885   1.299   0.942
30716WAT      O92389   5.682   8.452   4.285
30716WAT     H192390   5.621   8.456   4.364
30716WAT     H292391   5.717   8.543   4.265
30717WAT      O92392   6.158   9.395   2.130
30717WAT     H192393   6.150   9.473   2.068
30717WAT     H292394   6.253   9.365   2.133
30718WAT      O92395   1.052   6.849   1.389
30718WAT     H192396   1.069   6.753   1.413
30718WAT     H292397   0.954   6.868   1.395
30719WAT      O92398   9.057   2.183   1.685
30719WAT     H192399   8.967   2.162   1.724
30719WAT     H292400   9.113   2.230   1.754
30720WAT      O92401   4.570   3.785   3.105
30720WAT     H192402   4.506   3.786   3.181
30720WAT     H292403   4.555   3.866   3.048
30721WAT      O92404   6.364   4.300   3.829
30721WAT     H192405   6.332   4.355   3.751
30721WAT     H292406   6.308   4.217   3.835
30722WAT      O92407   1.580   7.788   9.073
30722WAT     H192408   1.482   7.785   9.093
30722WAT     H292409   1.631   7.763   9.156
30723WAT      O92410   6.490   6.668   8.929
30723WAT     H192411   6.578   6.704   8.900
30723WAT     H292412   6.434   6.646   8.849
30724WAT      O92413   4.615   5.616   7.233
30724WAT     H192414   4.621   5.575   7.142
30724WAT     H292415   4.707   5.628   7.270
30725WAT      O92416   9.380   0.429   4.152
30725WAT     H192417   9.403   0.520   4.118
30725WAT     H292418   9.442   0.362   4.111
30726WAT      O92419   7.421   6.127   6.605
30726WAT     H192420   7.504   6.140   6.550
30726WAT     H292421   7.341   6.134   6.546
30727WAT      O92422   7.382   7.411   9.254
30727WAT     H192423   7.403   7.451   9.343
30727WAT     H292424   7.324   7.330   9.266
30728WAT      O92425   1.026   3.073   3.447
30728WAT     H192426   1.125   3.085   3.455
30728WAT     H292427   0.979   3.139   3.506
30729WAT      O92428   5.590   5.495   8.583
30729WAT     H192429   5.528   5.416   8.582
30729WAT     H292430   5.573   5.549   8.665
30730WAT      O92431   5.648   7.556   2.701
30730WAT     H192432   5.574   7.491   2.683
30730WAT     H292433   5.731   7.527   2.653
30731WAT      O92434   5.836   2.986   1.369
30731WAT     H192435   5.736   2.986   1.369
30731WAT     H292436   5.870   2.963   1.278
30732WAT      O92437   5.305   1.638   3.272
30732WAT     H192438   5.272   1.546   3.248
30732WAT     H292439   5.349   1.635   3.361
30733WAT      O92440   8.875   3.058   1.173
30733WAT     H192441   8.869   3.079   1.271
30733WAT     H292442   8.967   3.024   1.152
30734WAT      O92443   8.952   5.859   1.866
30734WAT     H192444   8.864   5.863   1.819
30734WAT     H292445   8.983   5.952   1.887
30735WAT      O92446   5.177   8.998   2.317
30735WAT     H192447   5.114   9.039   2.250
30735WAT     H292448   5.179   9.055   2.399
30736WAT      O92449   4.442   2.421   8.159
30736WAT     H192450   4.448   2.468   8.247
30736WAT     H292451   4.504   2.463   8.094
30737WAT      O92452   8.992   3.686   5.482
30737WAT     H192453   8.983   3.759   5.550
30737WAT     H292454   9.078   3.637   5.498
30738WAT      O92455   0.141   1.652   7.484
30738WAT     H192456   0.105   1.649   7.577
30738WAT     H292457   0.241   1.648   7.487
30739WAT      O92458   3.523   7.202   0.643
30739WAT     H192459   3.502   7.109   0.614
30739WAT     H292460   3.611   7.230   0.606
30740WAT      O92461   4.421   6.996   5.000
30740WAT     H192462   4.517   7.005   5.026
30740WAT     H292463   4.372   6.942   5.068
30741WAT      O92464   5.120   2.547   3.755
30741WAT     H192465   5.188   2.480   3.785
30741WAT     H292466   5.034   2.530   3.802
30742WAT      O92467   7.253   6.393   9.077
30742WAT     H192468   7.157   6.409   9.055
30742WAT     H292469   7.268   6.296   9.091
30743WAT      O92470   7.033   4.770   2.228
30743WAT     H192471   7.051   4.732   2.319
30743WAT     H292472   6.955   4.832   2.233
30744WAT      O92473   9.173   0.569   7.397
30744WAT     H192474   9.165   0.668   7.404
30744WAT     H292475   9.208   0.532   7.482
30745WAT      O92476   7.089   8.719   0.467
30745WAT     H192477   7.159   8.780   0.429
30745WAT     H292478   7.048   8.665   0.394
30746WAT      O92479   4.908   2.124   0.904
30746WAT     H192480   4.914   2.100   0.807
30746WAT     H292481   4.990   2.174   0.931
30747WAT      O92482   3.839   3.798   7.981
30747WAT     H192483   3.813   3.820   7.887
30747WAT     H292484   3.809   3.706   8.004
30748WAT      O92485   6.042   0.277   6.497
30748WAT     H192486   6.068   0.349   6.434
30748WAT     H292487   6.112   0.268   6.568
30749WAT      O92488   7.896   8.522   5.125
30749WAT     H192489   7.838   8.507   5.205
30749WAT     H292490   7.926   8.434   5.088
30750WAT      O92491   9.783   4.740   2.797
30750WAT     H192492   9.734   4.821   2.827
30750WAT     H292493   9.752   4.661   2.850
30751WAT      O92494   2.922   9.724   5.407
30751WAT     H192495   2.964   9.636   5.384
30751WAT     H292496   2.986   9.798   5.387
30752WAT      O92497   4.051   7.777   9.186
30752WAT     H192498   3.968   7.773   9.241
30752WAT     H292499   4.077   7.872   9.172
30753WAT      O92500   0.821   1.022   9.774
30753WAT     H192501   0.876   1.105   9.772
30753WAT     H292502   0.765   1.018   9.691
30754WAT      O92503   5.097   6.980   0.653
30754WAT     H192504   5.068   6.943   0.565
30754WAT     H292505   5.074   6.915   0.726
30755WAT      O92506   1.843   0.643   1.626
30755WAT     H192507   1.832   0.633   1.725
30755WAT     H292508   1.786   0.720   1.594
30756WAT      O92509   7.231   5.206   4.483
30756WAT     H192510   7.152   5.157   4.447
30756WAT     H292511   7.285   5.242   4.407
30757WAT      O92512   8.366   8.783   0.539
30757WAT     H192513   8.340   8.712   0.604
30757WAT     H292514   8.356   8.749   0.445
30758WAT      O92515   9.405   5.855   8.390
30758WAT     H192516   9.417   5.850   8.489
30758WAT     H292517   9.478   5.910   8.350
30759WAT      O92518   4.085   8.389   7.176
30759WAT     H192519   4.125   8.376   7.266
30759WAT     H292520   4.126   8.324   7.111
30760WAT      O92521   6.154   0.170   4.580
30760WAT     H192522   6.187   0.169   4.485
30760WAT     H292523   6.067   0.219   4.584
30761WAT      O92524   5.132   8.909   3.005
30761WAT     H192525   5.052   8.968   3.022
30761WAT     H292526   5.177   8.889   3.092
30762WAT      O92527   9.805   5.702   1.975
30762WAT     H192528   9.746   5.701   1.895
30762WAT     H292529   9.845   5.792   1.987
30763WAT      O92530   5.538   4.757   5.113
30763WAT     H192531   5.484   4.727   5.191
30763WAT     H292532   5.487   4.740   5.028
30764WAT      O92533   2.705   2.751   7.547
30764WAT     H192534   2.689   2.847   7.527
30764WAT     H292535   2.652   2.694   7.484
30765WAT      O92536   7.764   7.385   6.556
30765WAT     H192537   7.725   7.299   6.523
30765WAT     H292538   7.863   7.383   6.542
30766WAT      O92539   9.093   1.973   9.553
30766WAT     H192540   9.015   1.935   9.504
30766WAT     H292541   9.075   2.069   9.575
30767WAT      O92542   7.399   7.215   1.567
30767WAT     H192543   7.488   7.229   1.522
30767WAT     H292544   7.373   7.119   1.560
30768WAT      O92545   6.619   2.363   9.322
30768WAT     H192546   6.698   2.369   9.261
30768WAT     H292547   6.651   2.355   9.417
30769WAT      O92548   5.175   3.115   6.745
30769WAT     H192549   5.105   3.055   6.782
30769WAT     H292550   5.165   3.206   6.785
30770WAT      O92551   7.247   0.938   0.128
30770WAT     H192552   7.277   0.884   0.207
30770WAT     H292553   7.219   1.029   0.160
30771WAT      O92554   7.175   9.674   9.797
30771WAT     H192555   7.106   9.627   9.853
30771WAT     H292556   7.222   9.742   9.853
30772WAT      O92557   0.642   5.503   8.003
30772WAT     H192558   0.630   5.411   7.964
30772WAT     H292559   0.575   5.517   8.076
30773WAT      O92560   6.263   7.686   9.639
30773WAT     H192561   6.347   7.736   9.618
30773WAT     H292562   6.187   7.750   9.645
30774WAT      O92563   1.655   4.898   7.117
30774WAT     H192564   1.642   4.804   7.149
30774WAT     H292565   1.581   4.923   7.054
30775WAT      O92566   6.183   7.708   6.967
30775WAT     H192567   6.091   7.713   6.928
30775WAT     H292568   6.229   7.626   6.933
30776WAT      O92569   2.684   3.334   2.091
30776WAT     H192570   2.727   3.414   2.051
30776WAT     H292571   2.687   3.341   2.191
30777WAT      O92572   6.971   5.047   7.779
30777WAT     H192573   6.990   5.038   7.681
30777WAT     H292574   7.055   5.028   7.831
30778WAT      O92575   9.800   6.629   3.370
30778WAT     H192576   9.810   6.612   3.468
30778WAT     H292577   9.883   6.673   3.336
30779WAT      O92578   3.749   3.235   6.215
30779WAT     H192579   3.684   3.192   6.153
30779WAT     H292580   3.785   3.319   6.174
30780WAT      O92581   8.938   2.774   5.779
30780WAT     H192582   8.975   2.797   5.869
30780WAT     H292583   8.989   2.824   5.708
30781WAT      O92584   6.165   2.877   6.003
30781WAT     H192585   6.172   2.840   5.911
30781WAT     H292586   6.233   2.949   6.015
30782WAT      O92587   8.311   6.124   8.529
30782WAT     H192588   8.392   6.118   8.472
30782WAT     H292589   8.297   6.218   8.558
30783WAT      O92590   4.956   9.385   6.532
30783WAT     H192591   4.996   9.350   6.448
30783WAT     H292592   5.015   9.456   6.570
30784WAT      O92593   8.415   9.021   7.419
30784WAT     H192594   8.454   9.112   7.405
30784WAT     H292595   8.408   8.974   7.331
30785WAT      O92596   8.203   8.122   6.476
30785WAT     H192597   8.191   8.024   6.495
30785WAT     H292598   8.301   8.141   6.467
30786WAT      O92599   4.633   7.982   2.263
30786WAT     H192600   4.667   8.025   2.346
30786WAT     H292601   4.592   7.894   2.285
30787WAT      O92602   1.720   7.897   5.357
30787WAT     H192603   1.747   7.857   5.270
30787WAT     H292604   1.765   7.849   5.432
30788WAT      O92605   7.559   1.646   3.705
30788WAT     H192606   7.489   1.697   3.654
30788WAT     H292607   7.519   1.609   3.789
30789WAT      O92608   4.670   8.676   3.972
30789WAT     H192609   4.728   8.758   3.977
30789WAT     H292610   4.617   8.669   4.056
30790WAT      O92611   7.248   8.631   4.320
30790WAT     H192612   7.231   8.594   4.229
30790WAT     H292613   7.170   8.686   4.349
30791WAT      O92614   7.149   9.229   4.370
30791WAT     H192615   7.236   9.180   4.366
30791WAT     H292616   7.154   9.310   4.312
30792WAT      O92617   9.674   0.059   7.008
30792WAT     H192618   9.692   0.058   7.107
30792WAT     H292619   9.754   0.024   6.959
30793WAT      O92620   8.081   7.821   2.764
30793WAT     H192621   8.177   7.798   2.777
30793WAT     H292622   8.029   7.797   2.846
30794WAT      O92623   7.412   1.800   7.143
30794WAT     H192624   7.460   1.879   7.107
30794WAT     H292625   7.348   1.829   7.214
30795WAT      O92626   3.989   5.904   0.881
30795WAT     H192627   3.890   5.896   0.867
30795WAT     H292628   4.030   5.948   0.802
30796WAT      O92629   2.249   8.146   2.132
30796WAT     H192630   2.230   8.052   2.104
30796WAT     H292631   2.231   8.208   2.055
30797WAT      O92632   0.562   3.248   1.553
30797WAT     H192633   0.657   3.216   1.557
30797WAT     H292634   0.504   3.179   1.511
30798WAT      O92635   8.859   5.574   4.851
30798WAT     H192636   8.815   5.546   4.765
30798WAT     H292637   8.947   5.527   4.860
30799WAT      O92638   5.723   5.578   9.694
30799WAT     H192639   5.774   5.640   9.754
30799WAT     H292640   5.708   5.622   9.605
30800WAT      O92641   8.454   2.138   8.795
30800WAT     H192642   8.406   2.211   8.843
30800WAT     H292643   8.505   2.082   8.860
30801WAT      O92644   2.025   8.517   5.009
30801WAT     H192645   2.048   8.598   5.062
30801WAT     H292646   1.944   8.536   4.954
30802WAT      O92647   1.647   4.169   1.388
30802WAT     H192648   1.734   4.177   1.437
30802WAT     H292649   1.664   4.171   1.289
30803WAT      O92650   0.384   2.463   7.876
30803WAT     H192651   0.454   2.424   7.816
30803WAT     H292652   0.427   2.520   7.945
30804WAT      O92653   5.678   9.846   1.066
30804WAT     H192654   5.735   9.810   0.992
30804WAT     H292655   5.718   9.821   1.154
30805WAT      O92656   2.436   9.058   2.573
30805WAT     H192657   2.340   9.084   2.564
30805WAT     H292658   2.481   9.066   2.485
30806WAT      O92659   9.043   1.402   6.488
30806WAT     H192660   9.133   1.430   6.522
30806WAT     H292661   9.004   1.475   6.433
30807WAT      O92662   5.246   1.466   9.876
30807WAT     H192663   5.214   1.372   9.867
30807WAT     H292664   5.330   1.468   9.929
30808WAT      O92665   6.412   2.058   2.033
30808WAT     H192666   6.448   1.981   1.980
30808WAT     H292667   6.467   2.139   2.015
30809WAT      O92668   4.580   8.261   8.365
30809WAT     H192669   4.581   8.206   8.449
30809WAT     H292670   4.673   8.291   8.344
30810WAT      O92671   5.444   5.935   3.885
30810WAT     H192672   5.411   6.023   3.850
30810WAT     H292673   5.434   5.932   3.984
30811WAT      O92674   1.990   3.567   2.132
30811WAT     H192675   2.060   3.506   2.169
30811WAT     H292676   2.034   3.644   2.086
30812WAT      O92677   5.889   5.645   0.177
30812WAT     H192678   5.811   5.617   0.233
30812WAT     H292679   5.901   5.744   0.182
30813WAT      O92680   6.864   0.285   0.093
30813WAT     H192681   6.792   0.244   0.150
30813WAT     H292682   6.866   0.384   0.108
30814WAT      O92683   6.701   1.680   3.247
30814WAT     H192684   6.605   1.705   3.259
30814WAT     H292685   6.717   1.653   3.152
30815WAT      O92686   1.222   1.199   6.785
30815WAT     H192687   1.287   1.269   6.814
30815WAT     H292688   1.225   1.189   6.686
30816WAT      O92689   7.064   0.060   6.687
30816WAT     H192690   7.149   0.064   6.633
30816WAT     H292691   7.064   0.134   6.753
30817WAT      O92692   1.025   3.707   8.864
30817WAT     H192693   1.083   3.639   8.820
30817WAT     H292694   0.932   3.700   8.829
30818WAT      O92695   6.286   8.812   8.586
30818WAT     H192696   6.352   8.852   8.522
30818WAT     H292697   6.222   8.753   8.535
30819WAT      O92698   0.192   6.565   5.993
30819WAT     H192699   0.185   6.519   6.082
30819WAT     H292700   0.134   6.519   5.926
30820WAT      O92701   9.079   6.047   5.871
30820WAT     H192702   8.993   6.084   5.837
30820WAT     H292703   9.134   6.120   5.911
30821WAT      O92704   2.037   8.868   6.001
30821WAT     H192705   2.062   8.837   6.092
30821WAT     H292706   1.972   8.804   5.960
30822WAT      O92707   9.185   4.316   3.949
30822WAT     H192708   9.189   4.232   3.894
30822WAT     H292709   9.252   4.311   4.023
30823WAT      O92710   1.109   9.542   2.254
30823WAT     H192711   1.040   9.573   2.189
30823WAT     H292712   1.073   9.549   2.347
30824WAT      O92713   0.204   8.543   4.847
30824WAT     H192714   0.116   8.578   4.815
30824WAT     H292715   0.278   8.597   4.807
30825WAT      O92716   8.198   3.102   0.022
30825WAT     H192717   8.101   3.124   0.007
30825WAT     H292718   8.226   3.137   0.111
30826WAT      O92719   9.059   4.878   9.550
30826WAT     H192720   9.141   4.932   9.532
30826WAT     H292721   8.978   4.930   9.525
30827WAT      O92722   3.834   6.697   5.257
30827WAT     H192723   3.748   6.747   5.248
30827WAT     H292724   3.905   6.741   5.201
30828WAT      O92725   5.397   0.566   4.290
30828WAT     H192726   5.376   0.503   4.364
30828WAT     H292727   5.367   0.658   4.314
30829WAT      O92728   8.107   7.102   7.423
30829WAT     H192729   8.130   7.005   7.420
30829WAT     H292730   8.173   7.154   7.370
30830WAT      O92731   5.134   7.890   2.865
30830WAT     H192732   5.162   7.796   2.886
30830WAT     H292733   5.172   7.917   2.777
30831WAT      O92734   9.090   3.515   6.140
30831WAT     H192735   9.006   3.465   6.158
30831WAT     H292736   9.070   3.612   6.132
30832WAT      O92737   5.384   7.403   4.699
30832WAT     H192738   5.334   7.358   4.625
30832WAT     H292739   5.367   7.501   4.698
30833WAT      O92740   4.306   6.365   9.714
30833WAT     H192741   4.331   6.371   9.811
30833WAT     H292742   4.218   6.319   9.705
30834WAT      O92743   2.735   8.315   7.737
30834WAT     H192744   2.814   8.258   7.759
30834WAT     H292745   2.718   8.378   7.813
30835WAT      O92746   4.679   5.421   3.659
30835WAT     H192747   4.670   5.366   3.742
30835WAT     H292748   4.776   5.434   3.638
30836WAT      O92749   7.868   5.239   3.419
30836WAT     H192750   7.897   5.330   3.449
30836WAT     H292751   7.806   5.247   3.341
30837WAT      O92752   9.099   4.741   7.657
30837WAT     H192753   9.128   4.828   7.616
30837WAT     H292754   8.999   4.734   7.653
30838WAT      O92755   7.873   2.283   8.758
30838WAT     H192756   7.803   2.302   8.827
30838WAT     H292757   7.914   2.368   8.727
30839WAT      O92758   2.435   9.393   2.447
30839WAT     H192759   2.477   9.332   2.381
30839WAT     H292760   2.406   9.477   2.401
30840WAT      O92761   3.256   3.254   6.782
30840WAT     H192762   3.237   3.224   6.688
30840WAT     H292763   3.185   3.317   6.812
30841WAT      O92764   4.476   0.441   2.100
30841WAT     H192765   4.484   0.418   2.003
30841WAT     H292766   4.528   0.375   2.155
30842WAT      O92767   3.553   3.293   0.915
30842WAT     H192768   3.473   3.244   0.950
30842WAT     H292769   3.587   3.356   0.985
30843WAT      O92770   3.448   2.300   2.864
30843WAT     H192771   3.505   2.318   2.784
30843WAT     H292772   3.475   2.214   2.907
30844WAT      O92773   8.168   5.915   9.393
30844WAT     H192774   8.092   5.964   9.436
30844WAT     H292775   8.214   5.976   9.329
30845WAT      O92776   8.001   9.284   1.915
30845WAT     H192777   8.043   9.283   1.824
30845WAT     H292778   7.920   9.343   1.913
30846WAT      O92779   5.832   9.030   9.432
30846WAT     H192780   5.868   8.938   9.414
30846WAT     H292781   5.906   9.088   9.467
30847WAT      O92782   8.455   3.970   8.805
30847WAT     H192783   8.438   4.030   8.727
30847WAT     H292784   8.410   3.882   8.789
30848WAT      O92785   4.182   6.047   1.673
30848WAT     H192786   4.181   6.084   1.766
30848WAT     H292787   4.090   6.017   1.648
30849WAT      O92788   0.474   3.918   6.591
30849WAT     H192789   0.552   3.858   6.608
30849WAT     H292790   0.438   3.951   6.678
30850WAT      O92791   5.745   5.970   4.446
30850WAT     H192792   5.744   5.894   4.511
30850WAT     H292793   5.664   6.027   4.460
30851WAT      O92794   5.239   6.384   5.581
30851WAT     H192795   5.304   6.459   5.586
30851WAT     H292796   5.146   6.421   5.578
30852WAT      O92797   0.250   5.470   2.043
30852WAT     H192798   0.344   5.502   2.056
30852WAT     H292799   0.241   5.426   1.954
30853WAT      O92800   7.719   6.574   1.093
30853WAT     H192801   7.627   6.579   1.133
30853WAT     H292802   7.730   6.646   1.025
30854WAT      O92803   7.720   0.602   1.213
30854WAT     H192804   7.697   0.698   1.228
30854WAT     H292805   7.769   0.592   1.126
30855WAT      O92806   6.861   3.799   0.100
30855WAT     H192807   6.806   3.766   0.022
30855WAT     H292808   6.809   3.786   0.184
30856WAT      O92809   2.787   5.080   9.498
30856WAT     H192810   2.869   5.138   9.498
30856WAT     H292811   2.806   4.996   9.447
30857WAT      O92812   3.582   1.976   9.597
30857WAT     H192813   3.559   1.886   9.633
30857WAT     H292814   3.535   2.046   9.649
30858WAT      O92815   5.263   6.432   4.669
30858WAT     H192816   5.289   6.395   4.579
30858WAT     H292817   5.279   6.530   4.670
30859WAT      O92818   1.716   5.671   4.678
30859WAT     H192819   1.638   5.620   4.642
30859WAT     H292820   1.796   5.657   4.620
30860WAT      O92821   2.293   0.637   4.629
30860WAT     H192822   2.355   0.619   4.705
30860WAT     H292823   2.257   0.730   4.637
30861WAT      O92824   3.024   0.190   5.162
30861WAT     H192825   3.082   0.266   5.134
30861WAT     H292826   2.940   0.226   5.203
30862WAT      O92827   2.455   7.553   5.040
30862WAT     H192828   2.524   7.507   4.984
30862WAT     H292829   2.367   7.552   4.992
30863WAT      O92830   3.389   3.257   8.620
30863WAT     H192831   3.363   3.244   8.524
30863WAT     H292832   3.307   3.253   8.677
30864WAT      O92833   9.249   3.860   0.963
30864WAT     H192834   9.300   3.805   1.029
30864WAT     H292835   9.202   3.800   0.898
30865WAT      O92836   2.119   4.553   1.808
30865WAT     H192837   2.041   4.612   1.831
30865WAT     H292838   2.144   4.567   1.712
30866WAT      O92839   2.931   1.961   0.241
30866WAT     H192840   2.976   2.047   0.216
30866WAT     H292841   2.833   1.977   0.251
30867WAT      O92842   9.254   6.040   7.762
30867WAT     H192843   9.175   6.001   7.714
30867WAT     H292844   9.338   6.014   7.714
30868WAT      O92845   7.917   4.367   1.553
30868WAT     H192846   8.006   4.370   1.597
30868WAT     H292847   7.919   4.304   1.476
30869WAT      O92848   9.189   4.272   4.581
30869WAT     H192849   9.282   4.249   4.550
30869WAT     H292850   9.124   4.209   4.539
30870WAT      O92851   9.619   7.331   3.973
30870WAT     H192852   9.580   7.400   3.911
30870WAT     H292853   9.624   7.369   4.065
30871WAT      O92854   9.192   8.266   4.861
30871WAT     H192855   9.120   8.333   4.842
30871WAT     H292856   9.151   8.175   4.868
30872WAT      O92857   2.571   4.048   1.237
30872WAT     H192858   2.524   4.043   1.325
30872WAT     H292859   2.659   4.001   1.244
30873WAT      O92860   9.528   8.569   4.654
30873WAT     H192861   9.564   8.542   4.743
30873WAT     H292862   9.522   8.489   4.595
30874WAT      O92863   4.292   0.063   1.971
30874WAT     H192864   4.384   0.063   2.010
30874WAT     H292865   4.238   0.136   2.012
30875WAT      O92866   3.656   1.577   3.315
30875WAT     H192867   3.704   1.502   3.270
30875WAT     H292868   3.709   1.608   3.394
30876WAT      O92869   7.107   5.782   8.824
30876WAT     H192870   7.046   5.711   8.858
30876WAT     H292871   7.116   5.854   8.893
30877WAT      O92872   4.944   1.603   3.555
30877WAT     H192873   4.937   1.702   3.538
30877WAT     H292874   5.015   1.586   3.623
30878WAT      O92875   1.398   4.119   8.066
30878WAT     H192876   1.343   4.199   8.041
30878WAT     H292877   1.339   4.047   8.103
30879WAT      O92878   9.755   5.337   3.394
30879WAT     H192879   9.681   5.349   3.328
30879WAT     H292880   9.752   5.243   3.430
30880WAT      O92881   4.352   6.848   5.988
30880WAT     H192882   4.291   6.848   5.909
30880WAT     H292883   4.314   6.789   6.059
30881WAT      O92884   8.683   6.848   4.389
30881WAT     H192885   8.727   6.876   4.303
30881WAT     H292886   8.594   6.892   4.397
30882WAT      O92887   7.295   8.068   2.771
30882WAT     H192888   7.377   8.095   2.823
30882WAT     H292889   7.261   7.981   2.807
30883WAT      O92890   2.455   9.080   3.275
30883WAT     H192891   2.358   9.083   3.254
30883WAT     H292892   2.501   9.159   3.235
30884WAT      O92893   1.814   6.206   9.546
30884WAT     H192894   1.812   6.297   9.503
30884WAT     H292895   1.783   6.213   9.641
30885WAT      O92896   7.335   5.933   2.035
30885WAT     H192897   7.333   6.027   2.002
30885WAT     H292898   7.399   5.880   1.979
30886WAT      O92899   5.676   2.024   1.305
30886WAT     H192900   5.713   2.016   1.397
30886WAT     H292901   5.746   2.061   1.244
30887WAT      O92902   6.105   7.950   8.818
30887WAT     H192903   6.087   7.930   8.721
30887WAT     H292904   6.120   8.048   8.829
30888WAT      O92905   5.306   5.337   5.670
30888WAT     H192906   5.355   5.398   5.608
30888WAT     H292907   5.352   5.248   5.672
30889WAT      O92908   7.431   4.807   7.141
30889WAT     H192909   7.485   4.730   7.106
30889WAT     H292910   7.343   4.774   7.175
30890WAT      O92911   6.477   3.881   4.525
30890WAT     H192912   6.416   3.816   4.570
30890WAT     H292913   6.536   3.924   4.593
30891WAT      O92914   8.486   3.845   4.298
30891WAT     H192915   8.575   3.848   4.253
30891WAT     H292916   8.439   3.933   4.286
30892WAT      O92917   3.172   4.690   1.557
30892WAT     H192918   3.087   4.651   1.592
30892WAT     H292919   3.240   4.618   1.545
30893WAT      O92920   0.287   4.017   2.799
30893WAT     H192921   0.250   3.926   2.816
30893WAT     H292922   0.304   4.063   2.886
30894WAT      O92923   0.932   5.561   0.638
30894WAT     H192924   0.896   5.540   0.728
30894WAT     H292925   0.922   5.659   0.620
30895WAT      O92926   0.300   7.838   7.736
30895WAT     H192927   0.217   7.782   7.739
30895WAT     H292928   0.307   7.893   7.819
30896WAT      O92929   9.061   5.925   2.857
30896WAT     H192930   9.062   5.980   2.941
30896WAT     H292931   9.156   5.908   2.829
30897WAT      O92932   7.194   6.165   6.447
30897WAT     H192933   7.159   6.257   6.460
30897WAT     H292934   7.202   6.145   6.350
30898WAT      O92935   9.678   5.655   0.447
30898WAT     H192936   9.682   5.684   0.351
30898WAT     H292937   9.771   5.642   0.482
30899WAT      O92938   2.916   8.577   0.903
30899WAT     H192939   2.959   8.664   0.930
30899WAT     H292940   2.833   8.563   0.956
30900WAT      O92941   0.860   4.322   0.037
30900WAT     H192942   0.796   4.335  -0.039
30900WAT     H292943   0.825   4.370   0.118
30901WAT      O92944   8.924   9.296   4.340
30901WAT     H192945   9.014   9.319   4.303
30901WAT     H292946   8.930   9.210   4.392
30902WAT      O92947   1.453   2.593   3.164
30902WAT     H192948   1.412   2.663   3.106
30902WAT     H292949   1.387   2.520   3.181
30903WAT      O92950   4.098   0.066   1.171
30903WAT     H192951   4.037   0.067   1.092
30903WAT     H292952   4.091   0.153   1.219
30904WAT      O92953   1.799   5.971   0.475
30904WAT     H192954   1.731   5.943   0.543
30904WAT     H292955   1.759   6.038   0.412
30905WAT      O92956   7.830   8.998   4.140
30905WAT     H192957   7.844   9.092   4.171
30905WAT     H292958   7.734   8.983   4.120
30906WAT      O92959   3.998   7.509   0.036
30906WAT     H192960   3.908   7.543   0.007
30906WAT     H292961   4.006   7.413   0.011
30907WAT      O92962   4.626   1.807   7.329
30907WAT     H192963   4.561   1.812   7.253
30907WAT     H292964   4.597   1.737   7.394
30908WAT      O92965   8.217   3.675   2.057
30908WAT     H192966   8.126   3.639   2.037
30908WAT     H292967   8.208   3.765   2.102
30909WAT      O92968   6.592   9.326   5.051
30909WAT     H192969   6.561   9.399   4.991
30909WAT     H292970   6.650   9.263   4.999
30910WAT      O92971   1.917   6.713   3.208
30910WAT     H192972   1.952   6.753   3.124
30910WAT     H292973   1.943   6.770   3.286
30911WAT      O92974   6.039   2.636   6.991
30911WAT     H192975   6.048   2.645   6.892
30911WAT     H292976   6.048   2.726   7.034
30912WAT      O92977   2.763   7.082   3.081
30912WAT     H192978   2.731   7.158   3.139
30912WAT     H292979   2.692   7.011   3.078
30913WAT      O92980   7.564   3.914   5.671
30913WAT     H192981   7.536   3.872   5.585
30913WAT     H292982   7.658   3.888   5.692
30914WAT      O92983   6.981   0.021   7.821
30914WAT     H192984   7.025   0.033   7.733
30914WAT     H292985   6.992   0.105   7.876
30915WAT      O92986   2.447   9.143   7.016
30915WAT     H192987   2.483   9.061   6.971
30915WAT     H292988   2.399   9.117   7.099
30916WAT      O92989   0.389   1.036   8.977
30916WAT     H192990   0.425   1.031   8.884
30916WAT     H292991   0.460   1.010   9.042
30917WAT      O92992   8.953   9.158   5.946
30917WAT     H192993   9.006   9.191   6.024
30917WAT     H292994   8.905   9.074   5.972
30918WAT      O92995   2.640   6.812   7.201
30918WAT     H192996   2.583   6.808   7.283
30918WAT     H292997   2.728   6.852   7.224
30919WAT      O92998   2.087   2.711   7.281
30919WAT     H192999   2.026   2.645   7.324
30919WAT     H293000   2.078   2.707   7.182
30920WAT      O93001   5.029   9.276   1.878
30920WAT     H193002   5.019   9.376   1.885
30920WAT     H293003   4.976   9.242   1.801
30921WAT      O93004   9.326   5.094   2.472
30921WAT     H193005   9.338   5.167   2.406
30921WAT     H293006   9.261   5.122   2.543
30922WAT      O93007   7.408   9.509   1.596
30922WAT     H193008   7.468   9.569   1.649
30922WAT     H293009   7.454   9.422   1.578
30923WAT      O93010   1.037   8.641   1.083
30923WAT     H193011   0.972   8.692   1.027
30923WAT     H293012   1.130   8.671   1.062
30924WAT      O93013   1.893   7.715   3.310
30924WAT     H193014   1.807   7.753   3.346
30924WAT     H293015   1.967   7.781   3.324
30925WAT      O93016   0.142   6.002   8.594
30925WAT     H193017   0.117   5.907   8.576
30925WAT     H293018   0.113   6.059   8.518
30926WAT      O93019   6.124   5.900   5.623
30926WAT     H193020   6.108   5.998   5.611
30926WAT     H293021   6.041   5.857   5.660
30927WAT      O93022   8.229   4.887   7.866
30927WAT     H193023   8.249   4.805   7.812
30927WAT     H293024   8.140   4.876   7.911
30928WAT      O93025   6.316   5.292   5.584
30928WAT     H193026   6.238   5.232   5.602
30928WAT     H293027   6.395   5.261   5.638
30929WAT      O93028   8.563   5.183   0.564
30929WAT     H193029   8.520   5.124   0.496
30929WAT     H293030   8.628   5.245   0.518
30930WAT      O93031   6.795   2.958   5.135
30930WAT     H193032   6.812   2.863   5.162
30930WAT     H293033   6.721   2.996   5.191
30931WAT      O93034   2.863   4.538   8.296
30931WAT     H193035   2.773   4.514   8.259
30931WAT     H293036   2.922   4.458   8.294
30932WAT      O93037   6.853   7.921   0.605
30932WAT     H193038   6.845   7.905   0.507
30932WAT     H293039   6.908   8.003   0.621
30933WAT      O93040   2.238   2.662   4.258
30933WAT     H193041   2.244   2.742   4.317
30933WAT     H293042   2.222   2.690   4.164
30934WAT      O93043   6.640   6.141   0.559
30934WAT     H193044   6.693   6.223   0.581
30934WAT     H293045   6.641   6.126   0.461
30935WAT      O93046   1.654   6.426   8.959
30935WAT     H193047   1.689   6.343   8.915
30935WAT     H293048   1.562   6.446   8.924
30936WAT      O93049   7.376   1.341   7.729
30936WAT     H193050   7.340   1.296   7.647
30936WAT     H293051   7.325   1.426   7.745
30937WAT      O93052   7.159   5.520   2.591
30937WAT     H193053   7.118   5.483   2.507
30937WAT     H293054   7.244   5.471   2.611
30938WAT      O93055   1.007   7.585   3.978
30938WAT     H193056   1.011   7.542   4.068
30938WAT     H293057   0.917   7.570   3.937
30939WAT      O93058   4.269   1.471   0.221
30939WAT     H193059   4.236   1.439   0.310
30939WAT     H293060   4.195   1.519   0.174
30940WAT      O93061   2.287   5.790   3.611
30940WAT     H193062   2.378   5.826   3.630
30940WAT     H293063   2.292   5.722   3.538
30941WAT      O93064   2.996   3.940   5.854
30941WAT     H193065   2.941   3.918   5.774
30941WAT     H293066   3.076   3.993   5.827
30942WAT      O93067   1.425   0.886   5.028
30942WAT     H193068   1.449   0.975   4.989
30942WAT     H293069   1.327   0.872   5.021
30943WAT      O93070   9.452   8.757   5.058
30943WAT     H193071   9.523   8.822   5.030
30943WAT     H293072   9.367   8.779   5.012
30944WAT      O93073   1.450   9.015   8.737
30944WAT     H193074   1.451   8.917   8.757
30944WAT     H293075   1.466   9.067   8.820
30945WAT      O93076   3.240   6.656   5.006
30945WAT     H193077   3.199   6.578   5.053
30945WAT     H293078   3.265   6.726   5.073
30946WAT      O93079   3.438   2.170   8.253
30946WAT     H193080   3.356   2.178   8.198
30946WAT     H293081   3.513   2.133   8.198
30947WAT      O93082   6.229   2.560   8.459
30947WAT     H193083   6.314   2.557   8.512
30947WAT     H293084   6.223   2.648   8.411
30948WAT      O93085   6.826   8.240   4.517
30948WAT     H193086   6.820   8.332   4.554
30948WAT     H293087   6.738   8.193   4.530
30949WAT      O93088   3.278   6.243   3.093
30949WAT     H193089   3.311   6.249   3.188
30949WAT     H293090   3.280   6.148   3.063
30950WAT      O93091   7.321   6.998   5.366
30950WAT     H193092   7.352   6.918   5.316
30950WAT     H293093   7.384   7.016   5.442
30951WAT      O93094   8.398   5.590   8.137
30951WAT     H193095   8.463   5.613   8.209
30951WAT     H293096   8.314   5.554   8.177
30952WAT      O93097   6.796   8.147   1.866
30952WAT     H193098   6.852   8.209   1.921
30952WAT     H293099   6.767   8.069   1.922
30953WAT      O93100   6.888   8.430   5.028
30953WAT     H193101   6.896   8.449   5.126
30953WAT     H293102   6.800   8.386   5.010
30954WAT      O93103   4.435   2.456   9.356
30954WAT     H193104   4.357   2.455   9.419
30954WAT     H293105   4.514   2.494   9.403
30955WAT      O93106   9.078   9.402   5.232
30955WAT     H193107   9.068   9.441   5.323
30955WAT     H293108   8.992   9.359   5.204
30956WAT      O93109   9.213   2.914   2.990
30956WAT     H193110   9.245   2.893   3.083
30956WAT     H293111   9.136   2.853   2.968
30957WAT      O93112   4.065   4.485   6.444
30957WAT     H193113   4.060   4.483   6.544
30957WAT     H293114   3.975   4.507   6.407
30958WAT      O93115   6.677   3.245   7.905
30958WAT     H193116   6.775   3.232   7.894
30958WAT     H293117   6.643   3.181   7.974
30959WAT      O93118   1.199   7.041   8.598
30959WAT     H193119   1.257   7.071   8.673
30959WAT     H293120   1.114   7.004   8.634
30960WAT      O93121   3.167   4.246   9.740
30960WAT     H193122   3.154   4.263   9.838
30960WAT     H293123   3.126   4.159   9.715
30961WAT      O93124   6.113   6.934   2.928
30961WAT     H193125   6.127   7.033   2.930
30961WAT     H293126   6.082   6.907   2.837
30962WAT      O93127   6.546   4.436   6.156
30962WAT     H193128   6.563   4.474   6.246
30962WAT     H293129   6.632   4.428   6.105
30963WAT      O93130   5.864   6.205   9.566
30963WAT     H193131   5.768   6.232   9.572
30963WAT     H293132   5.922   6.283   9.591
30964WAT      O93133   7.304   2.932   8.879
30964WAT     H193134   7.218   2.982   8.880
30964WAT     H293135   7.338   2.921   8.973
30965WAT      O93136   2.921   8.904   8.700
30965WAT     H193137   2.963   8.835   8.759
30965WAT     H293138   2.971   8.990   8.709
30966WAT      O93139   6.969   8.170   1.088
30966WAT     H193140   6.990   8.267   1.076
30966WAT     H293141   7.043   8.115   1.050
30967WAT      O93142   6.179   7.883   2.180
30967WAT     H193143   6.236   7.817   2.130
30967WAT     H293144   6.234   7.964   2.201
30968WAT      O93145   0.143   5.074   7.277
30968WAT     H193146   0.204   5.044   7.350
30968WAT     H293147   0.141   5.174   7.275
30969WAT      O93148   8.700   1.248   6.774
30969WAT     H193149   8.643   1.276   6.697
30969WAT     H293150   8.712   1.325   6.836
30970WAT      O93151   9.426   4.291   0.513
30970WAT     H193152   9.403   4.278   0.416
30970WAT     H293153   9.398   4.383   0.541
30971WAT      O93154   9.231   1.108   9.803
30971WAT     H193155   9.280   1.168   9.867
30971WAT     H293156   9.290   1.032   9.776
30972WAT      O93157   6.911   2.003   0.972
30972WAT     H193158   6.836   2.059   1.007
30972WAT     H293159   6.996   2.026   1.021
30973WAT      O93160   6.684   3.785   7.343
30973WAT     H193161   6.631   3.712   7.387
30973WAT     H293162   6.760   3.812   7.403
30974WAT      O93163   7.621   8.622   4.134
30974WAT     H193164   7.557   8.564   4.083
30974WAT     H293165   7.671   8.566   4.200
30975WAT      O93166   9.282   8.219   8.636
30975WAT     H193167   9.292   8.122   8.616
30975WAT     H293168   9.291   8.272   8.551
30976WAT      O93169   5.801   3.615   7.939
30976WAT     H193170   5.814   3.629   8.037
30976WAT     H293171   5.762   3.697   7.898
30977WAT      O93172   9.634   3.390   4.943
30977WAT     H193173   9.569   3.314   4.932
30977WAT     H293174   9.584   3.476   4.942
30978WAT      O93175   0.707   6.035   5.100
30978WAT     H193176   0.626   5.981   5.126
30978WAT     H293177   0.761   6.054   5.181
30979WAT      O93178   5.996   9.848   5.947
30979WAT     H193179   6.046   9.854   6.033
30979WAT     H293180   6.010   9.757   5.906
30980WAT      O93181   2.753   3.652   5.742
30980WAT     H193182   2.784   3.650   5.837
30980WAT     H293183   2.655   3.634   5.739
30981WAT      O93184   6.992   1.543   2.939
30981WAT     H193185   7.067   1.518   3.000
30981WAT     H293186   6.919   1.587   2.991
30982WAT      O93187   2.172   5.515   6.342
30982WAT     H193188   2.159   5.420   6.314
30982WAT     H293189   2.206   5.517   6.436
30983WAT      O93190   3.964   1.215   5.575
30983WAT     H193191   3.958   1.119   5.545
30983WAT     H293192   3.876   1.244   5.610
30984WAT      O93193   8.733   5.984   5.331
30984WAT     H193194   8.684   6.001   5.417
30984WAT     H293195   8.811   6.045   5.324
30985WAT      O93196   8.635   4.896   4.532
30985WAT     H193197   8.549   4.856   4.565
30985WAT     H293198   8.616   4.983   4.488
30986WAT      O93199   0.264   1.644   2.876
30986WAT     H193200   0.346   1.665   2.930
30986WAT     H293201   0.250   1.716   2.808
30987WAT      O93202   9.792   6.439   7.864
30987WAT     H193203   9.859   6.386   7.812
30987WAT     H293204   9.730   6.485   7.800
30988WAT      O93205   0.668   3.979   0.257
30988WAT     H193206   0.734   3.957   0.185
30988WAT     H293207   0.577   3.992   0.217
30989WAT      O93208   5.093   4.253   0.642
30989WAT     H193209   5.142   4.167   0.655
30989WAT     H293210   4.994   4.238   0.652
30990WAT      O93211   9.013   9.642   7.562
30990WAT     H193212   8.923   9.661   7.602
30990WAT     H293213   9.046   9.724   7.515
30991WAT      O93214   9.176   0.551   8.981
30991WAT     H193215   9.208   0.457   8.996
30991WAT     H293216   9.255   0.613   8.984
30992WAT      O93217   9.464   6.744   2.312
30992WAT     H193218   9.428   6.835   2.332
30992WAT     H293219   9.557   6.752   2.274
30993WAT      O93220   8.045   0.725   0.059
30993WAT     H193221   7.987   0.762   0.132
30993WAT     H293222   8.141   0.726   0.089
30994WAT      O93223   1.757   9.369   0.662
30994WAT     H193224   1.771   9.284   0.611
30994WAT     H293225   1.846   9.409   0.684
30995WAT      O93226   2.842   9.322   7.927
30995WAT     H193227   2.900   9.282   7.856
30995WAT     H293228   2.762   9.265   7.942
30996WAT      O93229   6.365   7.617   5.222
30996WAT     H193230   6.429   7.570   5.283
30996WAT     H293231   6.375   7.579   5.129
30997WAT      O93232   0.314   5.917   2.457
30997WAT     H193233   0.237   5.981   2.449
30997WAT     H293234   0.371   5.944   2.534
30998WAT      O93235   0.961   0.890   3.108
30998WAT     H193236   1.041   0.905   3.166
30998WAT     H293237   0.878   0.909   3.161
30999WAT      O93238   1.897   6.694   7.733
30999WAT     H193239   1.929   6.683   7.827
30999WAT     H293240   1.838   6.775   7.728
31000WAT      O93241   7.083   6.471   2.775
31000WAT     H193242   7.135   6.420   2.708
31000WAT     H293243   7.010   6.413   2.812
31001WAT      O93244   9.534   0.609   9.234
31001WAT     H193245   9.604   0.554   9.278
31001WAT     H293246   9.483   0.661   9.303
31002WAT      O93247   0.720   3.752   9.506
31002WAT     H193248   0.766   3.761   9.418
31002WAT     H293249   0.645   3.687   9.498
31003WAT      O93250   8.284   2.465   8.737
31003WAT     H193251   8.334   2.428   8.659
31003WAT     H293252   8.343   2.528   8.788
31004WAT      O93253   5.098   6.216   2.834
31004WAT     H193254   5.080   6.302   2.787
31004WAT     H293255   5.129   6.234   2.927
31005WAT      O93256   4.824   3.608   5.330
31005WAT     H193257   4.829   3.558   5.417
31005WAT     H293258   4.913   3.605   5.285
31006WAT      O93259   6.979   2.700   2.941
31006WAT     H193260   6.896   2.738   2.901
31006WAT     H293261   6.958   2.613   2.986
31007WAT      O93262   6.596   3.098   2.833
31007WAT     H193263   6.555   3.009   2.814
31007WAT     H293264   6.534   3.171   2.803
31008WAT      O93265   7.984   6.621   4.115
31008WAT     H193266   8.039   6.538   4.102
31008WAT     H293267   8.015   6.669   4.197
31009WAT      O93268   9.451   4.924   7.424
31009WAT     H193269   9.519   4.938   7.496
31009WAT     H293270   9.482   4.968   7.340
31010WAT      O93271   6.883   4.713   3.259
31010WAT     H193272   6.977   4.710   3.225
31010WAT     H293273   6.871   4.795   3.315
31011WAT      O93274   1.115   5.390   3.374
31011WAT     H193275   1.196   5.423   3.421
31011WAT     H293276   1.120   5.291   3.364
31012WAT      O93277   2.493   8.296   0.223
31012WAT     H193278   2.429   8.300   0.146
31012WAT     H293279   2.462   8.357   0.296
31013WAT      O93280   9.326   0.807   4.349
31013WAT     H193281   9.250   0.791   4.412
31013WAT     H293282   9.386   0.877   4.387
31014WAT      O93283   9.367   9.103   4.350
31014WAT     H193284   9.441   9.097   4.416
31014WAT     H293285   9.311   9.183   4.369
31015WAT      O93286   5.095   8.074   5.614
31015WAT     H193287   5.086   8.159   5.562
31015WAT     H293288   5.135   8.003   5.555
31016WAT      O93289   8.720   8.874   0.502
31016WAT     H193290   8.723   8.776   0.522
31016WAT     H293291   8.733   8.925   0.587
31017WAT      O93292   8.150   4.329   2.985
31017WAT     H193293   8.228   4.286   3.030
31017WAT     H293294   8.132   4.418   3.026
31018WAT      O93295   8.133   3.621   5.445
31018WAT     H193296   8.130   3.535   5.395
31018WAT     H293297   8.217   3.626   5.498
31019WAT      O93298   5.636   1.908   2.168
31019WAT     H193299   5.578   1.969   2.222
31019WAT     H293300   5.582   1.831   2.135
31020WAT      O93301   2.063   3.211   1.273
31020WAT     H193302   2.120   3.138   1.236
31020WAT     H293303   2.111   3.256   1.349
31021WAT      O93304   6.965   5.651   5.353
31021WAT     H193305   7.018   5.569   5.330
31021WAT     H293306   6.959   5.661   5.452
31022WAT      O93307   7.403   8.834   1.497
31022WAT     H193308   7.464   8.904   1.533
31022WAT     H293309   7.427   8.745   1.536
31023WAT      O93310   4.248   4.836   1.494
31023WAT     H193311   4.186   4.768   1.535
31023WAT     H293312   4.223   4.849   1.398
31024WAT      O93313   2.283   5.807   3.194
31024WAT     H193314   2.277   5.907   3.195
31024WAT     H293315   2.365   5.779   3.144
31025WAT      O93316   1.594   7.443   4.441
31025WAT     H193317   1.562   7.357   4.482
31025WAT     H293318   1.518   7.509   4.438
31026WAT      O93319   2.482   3.801   9.008
31026WAT     H193320   2.408   3.853   8.965
31026WAT     H293321   2.446   3.714   9.041
31027WAT      O93322   3.671   6.963   8.981
31027WAT     H193323   3.611   7.028   9.026
31027WAT     H293324   3.740   7.013   8.927
31028WAT      O93325   9.631   9.268   6.079
31028WAT     H193326   9.666   9.302   5.991
31028WAT     H293327   9.589   9.344   6.129
31029WAT      O93328   8.644   3.016   7.853
31029WAT     H193329   8.738   3.047   7.846
31029WAT     H293330   8.582   3.093   7.836
31030WAT      O93331   6.673   4.517   3.918
31030WAT     H193332   6.693   4.612   3.940
31030WAT     H293333   6.646   4.509   3.822
31031WAT      O93334   2.204   7.915   2.000
31031WAT     H193335   2.247   7.845   2.056
31031WAT     H293336   2.266   7.943   1.927
31032WAT      O93337   4.704   0.409   1.056
31032WAT     H193338   4.696   0.488   1.118
31032WAT     H293339   4.741   0.331   1.107
31033WAT      O93340   1.535   0.815   9.005
31033WAT     H193341   1.499   0.858   9.089
31033WAT     H293342   1.596   0.879   8.959
31034WAT      O93343   1.043   4.432   3.407
31034WAT     H193344   1.009   4.395   3.320
31034WAT     H293345   1.137   4.403   3.421
31035WAT      O93346   7.239   1.645   3.724
31035WAT     H193347   7.229   1.574   3.654
31035WAT     H293348   7.270   1.730   3.681
31036WAT      O93349   5.658   3.774   7.343
31036WAT     H193350   5.559   3.766   7.329
31036WAT     H293351   5.693   3.850   7.288
31037WAT      O93352   4.172   8.022   4.202
31037WAT     H193353   4.142   8.066   4.287
31037WAT     H293354   4.271   8.033   4.193
31038WAT      O93355   0.105   2.463   6.673
31038WAT     H193356   0.076   2.370   6.692
31038WAT     H293357   0.037   2.527   6.708
31039WAT      O93358   8.876   2.010   8.397
31039WAT     H193359   8.937   2.085   8.374
31039WAT     H293360   8.877   1.996   8.496
31040WAT      O93361   6.902   9.060   9.129
31040WAT     H193362   6.972   9.019   9.071
31040WAT     H293363   6.868   8.991   9.193
31041WAT      O93364   3.767   3.466   9.549
31041WAT     H193365   3.749   3.446   9.453
31041WAT     H293366   3.690   3.518   9.586
31042WAT      O93367   9.504   2.335   7.096
31042WAT     H193368   9.551   2.390   7.027
31042WAT     H293369   9.408   2.325   7.072
31043WAT      O93370   8.891   9.571   0.259
31043WAT     H193371   8.810   9.571   0.200
31043WAT     H293372   8.884   9.497   0.326
31044WAT      O93373   1.926   1.586   7.587
31044WAT     H193374   1.850   1.542   7.635
31044WAT     H293375   2.003   1.598   7.651
31045WAT      O93376   4.678   2.325   6.541
31045WAT     H193377   4.620   2.369   6.610
31045WAT     H293378   4.747   2.390   6.509
31046WAT      O93379   4.680   8.346   6.218
31046WAT     H193380   4.724   8.389   6.297
31046WAT     H293381   4.601   8.402   6.190
31047WAT      O93382   2.335   1.268   3.394
31047WAT     H193383   2.386   1.319   3.325
31047WAT     H293384   2.313   1.177   3.359
31048WAT      O93385   8.324   0.010   0.912
31048WAT     H193386   8.246   0.068   0.891
31048WAT     H293387   8.379   0.052   0.985
31049WAT      O93388   8.643   2.073   0.006
31049WAT     H193389   8.733   2.088  -0.033
31049WAT     H293390   8.573   2.088  -0.063
31050WAT      O93391   1.438   4.540   6.017
31050WAT     H193392   1.364   4.504   6.075
31050WAT     H293393   1.524   4.494   6.041
31051WAT      O93394   4.814   4.868   9.024
31051WAT     H193395   4.901   4.852   8.977
31051WAT     H293396   4.822   4.840   9.119
31052WAT      O93397   9.780   9.019   3.421
31052WAT     H193398   9.771   8.919   3.420
31052WAT     H293399   9.805   9.050   3.513
31053WAT      O93400   5.972   8.269   2.713
31053WAT     H193401   6.038   8.344   2.705
31053WAT     H293402   6.016   8.191   2.756
31054WAT      O93403   0.258   4.165   3.029
31054WAT     H193404   0.199   4.245   3.017
31054WAT     H293405   0.244   4.125   3.119
31055WAT      O93406   2.216   5.116   3.157
31055WAT     H193407   2.169   5.127   3.069
31055WAT     H293408   2.201   5.198   3.212
31056WAT      O93409   7.031   0.984   9.644
31056WAT     H193410   7.125   1.006   9.668
31056WAT     H293411   6.969   1.042   9.697
31057WAT      O93412   6.244   9.291   1.629
31057WAT     H193413   6.237   9.200   1.671
31057WAT     H293414   6.181   9.354   1.676
31058WAT      O93415   0.185   7.589   4.114
31058WAT     H193416   0.279   7.557   4.114
31058WAT     H293417   0.163   7.627   4.024
31059WAT      O93418   6.360   5.386   3.600
31059WAT     H193419   6.443   5.331   3.611
31059WAT     H293420   6.376   5.457   3.531
31060WAT      O93421   1.295   7.513   0.884
31060WAT     H193422   1.315   7.534   0.788
31060WAT     H293423   1.349   7.434   0.912
31061WAT      O93424   6.004   1.743   9.106
31061WAT     H193425   5.971   1.837   9.119
31061WAT     H293426   5.938   1.679   9.144
31062WAT      O93427   1.115   2.432   5.218
31062WAT     H193428   1.171   2.488   5.279
31062WAT     H293429   1.166   2.412   5.135
31063WAT      O93430   1.285   1.067   2.109
31063WAT     H193431   1.357   1.000   2.091
31063WAT     H293432   1.325   1.159   2.109
31064WAT      O93433   3.730   6.000   5.055
31064WAT     H193434   3.643   6.000   5.006
31064WAT     H293435   3.722   6.053   5.139
31065WAT      O93436   4.943   3.429   3.385
31065WAT     H193437   4.932   3.472   3.475
31065WAT     H293438   4.999   3.346   3.394
31066WAT      O93439   7.075   2.419   8.592
31066WAT     H193440   7.104   2.508   8.627
31066WAT     H293441   6.984   2.397   8.627
31067WAT      O93442   8.379   0.992   7.678
31067WAT     H193443   8.313   0.935   7.727
31067WAT     H293444   8.339   1.022   7.591
31068WAT      O93445   9.237   3.125   1.354
31068WAT     H193446   9.168   3.154   1.421
31068WAT     H293447   9.191   3.097   1.270
31069WAT      O93448   7.449   5.850   6.334
31069WAT     H193449   7.514   5.781   6.365
31069WAT     H293450   7.370   5.853   6.395
31070WAT      O93451   0.118   8.701   3.557
31070WAT     H193452   0.110   8.623   3.618
31070WAT     H293453   0.165   8.776   3.605
31071WAT      O93454   5.123   2.736   5.994
31071WAT     H193455   5.129   2.661   5.928
31071WAT     H293456   5.029   2.742   6.029
31072WAT      O93457   5.856   1.019   1.600
31072WAT     H193458   5.889   1.077   1.674
31072WAT     H293459   5.861   0.923   1.628
31073WAT      O93460   3.292   0.031   6.909
31073WAT     H193461   3.285  -0.068   6.923
31073WAT     H293462   3.387   0.055   6.887
31074WAT      O93463   4.779   2.134   6.762
31074WAT     H193464   4.817   2.206   6.704
31074WAT     H293465   4.792   2.158   6.858
31075WAT      O93466   7.810   1.518   8.062
31075WAT     H193467   7.904   1.551   8.076
31075WAT     H293468   7.779   1.545   7.971
31076WAT      O93469   4.721   2.304   4.942
31076WAT     H193470   4.678   2.376   4.887
31076WAT     H293471   4.786   2.254   4.885
31077WAT      O93472   8.398   1.797   8.547
31077WAT     H193473   8.497   1.796   8.557
31077WAT     H293474   8.358   1.858   8.616
31078WAT      O93475   5.245   6.566   9.868
31078WAT     H193476   5.315   6.605   9.928
31078WAT     H293477   5.155   6.578   9.909
31079WAT      O93478   4.952   6.411   5.584
31079WAT     H193479   4.923   6.465   5.506
31079WAT     H293480   4.950   6.467   5.667
31080WAT      O93481   2.898   8.061   2.840
31080WAT     H193482   2.841   7.986   2.807
31080WAT     H293483   2.992   8.030   2.851
31081WAT      O93484   8.870   8.257   7.691
31081WAT     H193485   8.902   8.274   7.784
31081WAT     H293486   8.820   8.170   7.688
31082WAT      O93487   6.139   7.391   3.407
31082WAT     H193488   6.088   7.455   3.348
31082WAT     H293489   6.103   7.298   3.394
31083WAT      O93490   7.552   9.562   4.232
31083WAT     H193491   7.562   9.464   4.214
31083WAT     H293492   7.584   9.582   4.325
31084WAT      O93493   0.879   3.960   0.695
31084WAT     H193494   0.861   3.970   0.792
31084WAT     H293495   0.884   4.050   0.652
31085WAT      O93496   1.419   9.817   2.042
31085WAT     H193497   1.323   9.795   2.021
31085WAT     H293498   1.431   9.916   2.041
31086WAT      O93499   5.041   8.395   4.041
31086WAT     H193500   5.126   8.343   4.036
31086WAT     H293501   4.975   8.346   4.098
31087WAT      O93502   5.097   5.252   2.470
31087WAT     H193503   5.155   5.255   2.388
31087WAT     H293504   5.085   5.345   2.504
31088WAT      O93505   4.016   5.649   9.321
31088WAT     H193506   3.986   5.569   9.270
31088WAT     H293507   4.075   5.705   9.263
31089WAT      O93508   0.962   7.150   6.972
31089WAT     H193509   0.984   7.067   6.921
31089WAT     H293510   1.010   7.148   7.060
31090WAT      O93511   5.449   3.821   9.157
31090WAT     H193512   5.531   3.865   9.120
31090WAT     H293513   5.369   3.874   9.133
31091WAT      O93514   5.461   3.890   1.104
31091WAT     H193515   5.447   3.805   1.053
31091WAT     H293516   5.404   3.890   1.185
31092WAT      O93517   0.845   8.423   8.326
31092WAT     H193518   0.818   8.468   8.411
31092WAT     H293519   0.819   8.480   8.248
31093WAT      O93520   7.974   9.765   9.524
31093WAT     H193521   7.939   9.859   9.531
31093WAT     H293522   7.926   9.717   9.451
31094WAT      O93523   4.746   8.108   1.426
31094WAT     H193524   4.756   8.202   1.391
31094WAT     H293525   4.788   8.044   1.361
31095WAT      O93526   7.116   0.816   5.903
31095WAT     H193527   7.050   0.751   5.866
31095WAT     H293528   7.068   0.885   5.957
31096WAT      O93529   0.932   5.839   5.075
31096WAT     H193530   0.949   5.764   5.011
31096WAT     H293531   0.869   5.905   5.034
31097WAT      O93532   5.961   7.661   4.526
31097WAT     H193533   5.949   7.693   4.432
31097WAT     H293534   5.876   7.621   4.559
31098WAT      O93535   8.683   6.435   8.120
31098WAT     H193536   8.593   6.391   8.113
31098WAT     H293537   8.688   6.487   8.206
31099WAT      O93538   8.251   8.787   1.776
31099WAT     H193539   8.303   8.845   1.839
31099WAT     H293540   8.289   8.695   1.777
31100WAT      O93541   2.533   8.493   2.986
31100WAT     H193542   2.497   8.562   2.922
31100WAT     H293543   2.625   8.519   3.014
31101WAT      O93544   1.381   1.541   1.391
31101WAT     H193545   1.364   1.477   1.466
31101WAT     H293546   1.424   1.493   1.315
31102WAT      O93547   0.100   1.503   3.682
31102WAT     H193548   0.175   1.461   3.630
31102WAT     H293549   0.020   1.513   3.623
31103WAT      O93550   6.875   8.371   3.553
31103WAT     H193551   6.835   8.280   3.541
31103WAT     H293552   6.872   8.421   3.467
31104WAT      O93553   5.794   4.128   5.669
31104WAT     H193554   5.732   4.074   5.612
31104WAT     H293555   5.741   4.187   5.730
31105WAT      O93556   8.599   7.587   3.325
31105WAT     H193557   8.632   7.679   3.347
31105WAT     H293558   8.584   7.535   3.409
31106WAT      O93559   0.677   8.756   8.328
31106WAT     H193560   0.686   8.839   8.384
31106WAT     H293561   0.619   8.690   8.375
31107WAT      O93562   2.557   3.325   9.702
31107WAT     H193563   2.592   3.235   9.729
31107WAT     H293564   2.463   3.317   9.670
31108WAT      O93565   9.277   2.257   3.126
31108WAT     H193566   9.259   2.326   3.196
31108WAT     H293567   9.278   2.300   3.036
31109WAT      O93568   4.216   4.359   3.193
31109WAT     H193569   4.174   4.314   3.114
31109WAT     H293570   4.307   4.391   3.169
31110WAT      O93571   3.803   1.782   0.738
31110WAT     H193572   3.843   1.724   0.667
31110WAT     H293573   3.775   1.725   0.816
31111WAT      O93574   4.428   5.643   7.434
31111WAT     H193575   4.380   5.567   7.390
31111WAT     H293576   4.517   5.657   7.390
31112WAT      O93577   8.763   5.298   2.780
31112WAT     H193578   8.828   5.336   2.845
31112WAT     H293579   8.755   5.358   2.701
31113WAT      O93580   0.646   0.397   4.114
31113WAT     H193581   0.676   0.367   4.024
31113WAT     H293582   0.566   0.345   4.143
31114WAT      O93583   7.429   1.893   8.521
31114WAT     H193584   7.446   1.920   8.616
31114WAT     H293585   7.494   1.822   8.494
31115WAT      O93586   1.470   7.290   0.977
31115WAT     H193587   1.392   7.249   1.024
31115WAT     H293588   1.519   7.220   0.926
31116WAT      O93589   7.211   1.585   6.495
31116WAT     H193590   7.132   1.602   6.553
31116WAT     H293591   7.191   1.616   6.402
31117WAT      O93592   2.388   0.726   7.207
31117WAT     H193593   2.300   0.710   7.251
31117WAT     H293594   2.376   0.725   7.108
31118WAT      O93595   1.733   9.138   1.024
31118WAT     H193596   1.798   9.087   1.081
31118WAT     H293597   1.720   9.230   1.061
31119WAT      O93598   0.724   7.923   6.220
31119WAT     H193599   0.756   7.859   6.150
31119WAT     H293600   0.786   7.920   6.298
31120WAT      O93601   8.208   1.803   8.066
31120WAT     H193602   8.283   1.834   8.009
31120WAT     H293603   8.227   1.824   8.162
31121WAT      O93604   0.109   2.378   2.288
31121WAT     H193605   0.169   2.298   2.289
31121WAT     H293606   0.020   2.353   2.248
31122WAT      O93607   1.985   1.497   5.482
31122WAT     H193608   2.029   1.499   5.572
31122WAT     H293609   2.046   1.453   5.416
31123WAT      O93610   3.049   6.753   4.569
31123WAT     H193611   2.964   6.739   4.518
31123WAT     H293612   3.049   6.695   4.650
31124WAT      O93613   6.214   5.040   5.616
31124WAT     H193614   6.271   4.983   5.677
31124WAT     H293615   6.210   4.997   5.526
31125WAT      O93616   5.958   9.098   2.936
31125WAT     H193617   5.861   9.102   2.960
31125WAT     H293618   5.983   9.003   2.919
31126WAT      O93619   1.840   0.067   8.514
31126WAT     H193620   1.931   0.042   8.481
31126WAT     H293621   1.823   0.021   8.601
31127WAT      O93622   6.696   0.669   4.631
31127WAT     H193623   6.738   0.724   4.559
31127WAT     H293624   6.639   0.598   4.591
31128WAT      O93625   0.820   8.076   7.013
31128WAT     H193626   0.865   8.158   6.977
31128WAT     H293627   0.879   8.031   7.080
31129WAT      O93628   1.941   4.581   0.444
31129WAT     H193629   1.964   4.516   0.373
31129WAT     H293630   1.893   4.659   0.404
31130WAT      O93631   2.532   9.105   4.122
31130WAT     H193632   2.476   9.134   4.044
31130WAT     H293633   2.497   9.147   4.205
31131WAT      O93634   0.635   0.796   8.185
31131WAT     H193635   0.626   0.791   8.086
31131WAT     H293636   0.600   0.884   8.217
31132WAT      O93637   0.155   3.208   6.678
31132WAT     H193638   0.065   3.214   6.635
31132WAT     H293639   0.196   3.299   6.682
31133WAT      O93640   6.302   5.037   2.646
31133WAT     H193641   6.228   5.025   2.581
31133WAT     H293642   6.328   5.133   2.652
31134WAT      O93643   7.638   4.677   8.408
31134WAT     H193644   7.655   4.723   8.321
31134WAT     H293645   7.541   4.680   8.429
31135WAT      O93646   9.687   2.459   8.147
31135WAT     H193647   9.686   2.443   8.246
31135WAT     H293648   9.629   2.538   8.126
31136WAT      O93649   3.148   8.077   2.975
31136WAT     H193650   3.134   8.172   3.005
31136WAT     H293651   3.241   8.067   2.940
31137WAT      O93652   7.496   2.759   3.093
31137WAT     H193653   7.403   2.746   3.056
31137WAT     H293654   7.535   2.669   3.114
31138WAT      O93655   5.185   0.411   6.046
31138WAT     H193656   5.218   0.370   6.131
31138WAT     H293657   5.253   0.477   6.012
31139WAT      O93658   1.232   1.745   7.671
31139WAT     H193659   1.321   1.760   7.627
31139WAT     H293660   1.160   1.783   7.613
31140WAT      O93661   9.658   4.382   7.127
31140WAT     H193662   9.626   4.414   7.038
31140WAT     H293663   9.579   4.354   7.182
31141WAT      O93664   3.938   6.453   1.376
31141WAT     H193665   3.866   6.520   1.396
31141WAT     H293666   3.896   6.370   1.340
31142WAT      O93667   6.305   8.119   2.286
31142WAT     H193668   6.381   8.127   2.351
31142WAT     H293669   6.274   8.210   2.260
31143WAT      O93670   3.182   2.505   3.770
31143WAT     H193671   3.082   2.495   3.765
31143WAT     H293672   3.218   2.518   3.677
31144WAT      O93673   3.557   1.079   5.751
31144WAT     H193674   3.604   1.065   5.664
31144WAT     H293675   3.623   1.109   5.820
31145WAT      O93676   9.101   6.901   0.139
31145WAT     H193677   9.146   6.849   0.212
31145WAT     H293678   9.170   6.943   0.080
31146WAT      O93679   5.406   5.683   8.762
31146WAT     H193680   5.353   5.614   8.712
31146WAT     H293681   5.354   5.768   8.768
31147WAT      O93682   7.553   1.619   1.520
31147WAT     H193683   7.499   1.701   1.534
31147WAT     H293684   7.647   1.634   1.553
31148WAT      O93685   0.564   0.502   8.006
31148WAT     H193686   0.639   0.522   8.069
31148WAT     H293687   0.478   0.504   8.056
31149WAT      O93688   5.536   1.251   1.971
31149WAT     H193689   5.548   1.296   2.060
31149WAT     H293690   5.531   1.320   1.899
31150WAT      O93691   9.210   4.880   2.143
31150WAT     H193692   9.141   4.847   2.208
31150WAT     H293693   9.235   4.806   2.081
31151WAT      O93694   5.641   0.089   8.068
31151WAT     H193695   5.607   0.178   8.098
31151WAT     H293696   5.652   0.028   8.146
31152WAT      O93697   7.187   7.572   6.088
31152WAT     H193698   7.246   7.620   6.153
31152WAT     H293699   7.150   7.489   6.131
31153WAT      O93700   6.159   0.016   1.941
31153WAT     H193701   6.252   0.023   1.977
31153WAT     H293702   6.102   0.088   1.982
31154WAT      O93703   6.820   3.313   6.806
31154WAT     H193704   6.805   3.214   6.807
31154WAT     H293705   6.826   3.344   6.711
31155WAT      O93706   0.180   5.673   5.780
31155WAT     H193707   0.157   5.585   5.821
31155WAT     H293708   0.216   5.659   5.688
31156WAT      O93709   0.740   2.650   1.338
31156WAT     H193710   0.662   2.668   1.277
31156WAT     H293711   0.812   2.604   1.286
31157WAT      O93712   3.959   1.306   8.343
31157WAT     H193713   3.868   1.326   8.379
31157WAT     H293714   4.028   1.356   8.397
31158WAT      O93715   1.476   6.774   2.616
31158WAT     H193716   1.535   6.704   2.578
31158WAT     H293717   1.474   6.766   2.715
31159WAT      O93718   2.044   2.514   1.723
31159WAT     H193719   2.094   2.590   1.682
31159WAT     H293720   2.106   2.436   1.735
31160WAT      O93721   4.059   3.805   5.927
31160WAT     H193722   4.044   3.870   6.001
31160WAT     H293723   4.066   3.713   5.964
31161WAT      O93724   0.260   9.731   8.687
31161WAT     H193725   0.225   9.819   8.653
31161WAT     H293726   0.204   9.700   8.763
31162WAT      O93727   7.756   9.777   1.562
31162WAT     H193728   7.688   9.746   1.629
31162WAT     H293729   7.817   9.843   1.605
31163WAT      O93730   2.370   1.851   2.388
31163WAT     H193731   2.450   1.800   2.420
31163WAT     H293732   2.341   1.914   2.461
31164WAT      O93733   5.886   8.139   3.851
31164WAT     H193734   5.926   8.113   3.763
31164WAT     H293735   5.787   8.128   3.847
31165WAT      O93736   7.351   2.999   6.390
31165WAT     H193737   7.395   3.090   6.392
31165WAT     H293738   7.254   3.010   6.368
31166WAT      O93739   1.612   0.421   1.919
31166WAT     H193740   1.633   0.341   1.974
31166WAT     H293741   1.695   0.474   1.904
31167WAT      O93742   1.738   5.981   1.500
31167WAT     H193743   1.828   6.012   1.471
31167WAT     H293744   1.669   6.047   1.470
31168WAT      O93745   2.959   3.293   2.475
31168WAT     H193746   2.952   3.235   2.394
31168WAT     H293747   2.935   3.241   2.556
31169WAT      O93748   9.315   3.764   8.671
31169WAT     H193749   9.256   3.824   8.616
31169WAT     H293750   9.291   3.774   8.768
31170WAT      O93751   9.182   3.394   3.531
31170WAT     H193752   9.200   3.491   3.545
31170WAT     H293753   9.252   3.354   3.473
31171WAT      O93754   5.191   8.932   6.151
31171WAT     H193755   5.179   8.913   6.054
31171WAT     H293756   5.276   8.983   6.165
31172WAT      O93757   7.208   3.210   9.506
31172WAT     H193758   7.226   3.182   9.600
31172WAT     H293759   7.222   3.133   9.445
31173WAT      O93760   2.427   5.830   0.655
31173WAT     H193761   2.428   5.820   0.556
31173WAT     H293762   2.510   5.878   0.685
31174WAT      O93763   2.570   1.514   0.352
31174WAT     H193764   2.565   1.598   0.298
31174WAT     H293765   2.657   1.469   0.335
31175WAT      O93766   9.203   1.375   7.020
31175WAT     H193767   9.171   1.304   7.083
31175WAT     H293768   9.256   1.333   6.947
31176WAT      O93769   9.145   5.682   7.784
31176WAT     H193770   9.241   5.711   7.785
31176WAT     H293771   9.088   5.755   7.745
31177WAT      O93772   8.744   1.840   3.611
31177WAT     H193773   8.751   1.930   3.655
31177WAT     H293774   8.649   1.810   3.613
31178WAT      O93775   2.898   8.635   8.337
31178WAT     H193776   2.887   8.540   8.366
31178WAT     H293777   2.870   8.645   8.242
31179WAT      O93778   6.643   9.004   3.003
31179WAT     H193779   6.603   8.930   2.949
31179WAT     H293780   6.572   9.069   3.029
31180WAT      O93781   4.750   9.059   6.887
31180WAT     H193782   4.767   9.077   6.984
31180WAT     H293783   4.831   9.081   6.834
31181WAT      O93784   1.957   1.094   6.730
31181WAT     H193785   1.957   1.130   6.823
31181WAT     H293786   2.020   1.148   6.674
31182WAT      O93787   3.761   4.234   1.946
31182WAT     H193788   3.817   4.287   1.883
31182WAT     H293789   3.815   4.210   2.027
31183WAT      O93790   7.126   8.239   6.106
31183WAT     H193791   7.135   8.268   6.011
31183WAT     H293792   7.030   8.215   6.125
31184WAT      O93793   5.907   4.499   5.755
31184WAT     H193794   5.980   4.556   5.716
31184WAT     H293795   5.826   4.555   5.773
31185WAT      O93796   2.872   1.710   2.042
31185WAT     H193797   2.946   1.642   2.045
31185WAT     H293798   2.911   1.802   2.036
31186WAT      O93799   9.539   2.680   8.105
31186WAT     H193800   9.588   2.740   8.041
31186WAT     H293801   9.552   2.713   8.199
31187WAT      O93802   2.332   5.709   9.231
31187WAT     H193803   2.366   5.630   9.181
31187WAT     H293804   2.274   5.764   9.171
31188WAT      O93805   2.400   1.434   3.183
31188WAT     H193806   2.462   1.512   3.177
31188WAT     H293807   2.413   1.376   3.102
31189WAT      O93808   5.221   9.014   0.925
31189WAT     H193809   5.269   9.034   1.011
31189WAT     H293810   5.171   8.928   0.935
31190WAT      O93811   6.091   1.687   6.176
31190WAT     H193812   6.178   1.677   6.225
31190WAT     H293813   6.105   1.669   6.079
31191WAT      O93814   7.550   2.755   9.441
31191WAT     H193815   7.600   2.811   9.375
31191WAT     H293816   7.609   2.680   9.472
31192WAT      O93817   8.695   9.093   3.232
31192WAT     H193818   8.640   9.042   3.166
31192WAT     H293819   8.722   9.033   3.307
31193WAT      O93820   9.644   1.580   8.392
31193WAT     H193821   9.614   1.526   8.314
31193WAT     H293822   9.737   1.615   8.374
31194WAT      O93823   7.632   9.624   0.855
31194WAT     H193824   7.669   9.622   0.948
31194WAT     H293825   7.674   9.699   0.804
31195WAT      O93826   2.840   8.890   0.275
31195WAT     H193827   2.800   8.979   0.253
31195WAT     H293828   2.877   8.849   0.191
31196WAT      O93829   1.000   5.370   3.767
31196WAT     H193830   0.955   5.353   3.855
31196WAT     H293831   1.066   5.297   3.749
31197WAT      O93832   3.283   3.035   9.390
31197WAT     H193833   3.325   3.040   9.481
31197WAT     H293834   3.194   2.989   9.397
31198WAT      O93835   3.158   4.878   3.369
31198WAT     H193836   3.068   4.836   3.358
31198WAT     H293837   3.209   4.870   3.283
31199WAT      O93838   6.760   6.185   3.849
31199WAT     H193839   6.740   6.279   3.879
31199WAT     H293840   6.851   6.159   3.882
31200WAT      O93841   0.023   8.597   8.152
31200WAT     H193842  -0.058   8.615   8.096
31200WAT     H293843   0.023   8.501   8.180
31201WAT      O93844   5.892   8.503   3.989
31201WAT     H193845   5.937   8.494   3.900
31201WAT     H293846   5.949   8.462   4.060
31202WAT      O93847   2.818   1.562   9.072
31202WAT     H193848   2.885   1.629   9.102
31202WAT     H293849   2.733   1.573   9.124
31203WAT      O93850   5.715   3.697   1.032
31203WAT     H193851   5.729   3.794   1.053
31203WAT     H293852   5.678   3.688   0.939
31204WAT      O93853   6.826   8.267   5.482
31204WAT     H193854   6.824   8.303   5.576
31204WAT     H293855   6.842   8.342   5.418
31205WAT      O93856   0.993   8.053   5.237
31205WAT     H193857   0.895   8.045   5.257
31205WAT     H293858   1.045   8.043   5.321
31206WAT      O93859   3.287   2.311   9.391
31206WAT     H193860   3.286   2.214   9.417
31206WAT     H293861   3.335   2.364   9.461
31207WAT      O93862   0.731   8.900   1.611
31207WAT     H193863   0.710   8.940   1.522
31207WAT     H293864   0.813   8.844   1.605
31208WAT      O93865   7.138   7.468   4.571
31208WAT     H193866   7.053   7.519   4.575
31208WAT     H293867   7.150   7.417   4.656
31209WAT      O93868   4.723   4.335   4.661
31209WAT     H193869   4.647   4.389   4.699
31209WAT     H293870   4.792   4.397   4.623
31210WAT      O93871   4.017   1.149   4.735
31210WAT     H193872   4.012   1.248   4.744
31210WAT     H293873   4.087   1.125   4.669
31211WAT      O93874   2.773   8.700   2.580
31211WAT     H193875   2.710   8.736   2.510
31211WAT     H293876   2.812   8.776   2.632
31212WAT      O93877   6.019   1.906   3.914
31212WAT     H193878   5.960   1.946   3.983
31212WAT     H293879   5.975   1.911   3.824
31213WAT      O93880   8.129   2.832   4.618
31213WAT     H193881   8.041   2.787   4.604
31213WAT     H293882   8.137   2.862   4.713
31214WAT      O93883   2.916   3.899   0.835
31214WAT     H193884   2.972   3.833   0.887
31214WAT     H293885   2.899   3.979   0.892
31215WAT      O93886   3.202   7.513   2.386
31215WAT     H193887   3.166   7.426   2.353
31215WAT     H293888   3.153   7.540   2.469
31216WAT      O93889   0.139   2.596   7.830
31216WAT     H193890   0.230   2.556   7.840
31216WAT     H293891   0.072   2.523   7.815
31217WAT      O93892   3.322   1.548   4.859
31217WAT     H193893   3.421   1.558   4.845
31217WAT     H293894   3.306   1.480   4.930
31218WAT      O93895   7.119   1.772   9.788
31218WAT     H193896   7.138   1.861   9.829
31218WAT     H293897   7.025   1.770   9.755
31219WAT      O93898   9.870   5.671   7.769
31219WAT     H193899   9.825   5.671   7.858
31219WAT     H293900   9.830   5.742   7.711
31220WAT      O93901   7.565   6.430   9.080
31220WAT     H193902   7.511   6.394   9.005
31220WAT     H293903   7.586   6.526   9.064
31221WAT      O93904   8.465   6.615   9.022
31221WAT     H193905   8.473   6.549   9.097
31221WAT     H293906   8.369   6.622   8.993
31222WAT      O93907   9.360   8.236   3.227
31222WAT     H193908   9.274   8.223   3.276
31222WAT     H293909   9.429   8.175   3.265
31223WAT      O93910   1.840   3.999   9.686
31223WAT     H193911   1.794   4.073   9.638
31223WAT     H293912   1.834   4.014   9.785
31224WAT      O93913   3.991   4.824   6.131
31224WAT     H193914   3.892   4.836   6.140
31224WAT     H293915   4.026   4.888   6.062
31225WAT      O93916   0.138   8.035   6.345
31225WAT     H193917   0.114   8.082   6.431
31225WAT     H293918   0.206   7.964   6.364
31226WAT      O93919   7.441   0.614   3.379
31226WAT     H193920   7.509   0.682   3.356
31226WAT     H293921   7.467   0.525   3.340
31227WAT      O93922   6.042   8.841   8.778
31227WAT     H193923   6.070   8.927   8.821
31227WAT     H293924   6.104   8.820   8.702
31228WAT      O93925   6.899   7.705   3.137
31228WAT     H193926   6.979   7.765   3.127
31228WAT     H293927   6.851   7.699   3.049
31229WAT      O93928   5.185   3.999   2.545
31229WAT     H193929   5.264   4.022   2.488
31229WAT     H293930   5.186   4.056   2.628
31230WAT      O93931   8.829   7.697   8.634
31230WAT     H193932   8.817   7.603   8.664
31230WAT     H293933   8.743   7.747   8.642
31231WAT      O93934   9.782   7.946   2.818
31231WAT     H193935   9.708   7.949   2.751
31231WAT     H293936   9.750   7.986   2.904
31232WAT      O93937   0.566   0.651   9.739
31232WAT     H193938   0.534   0.615   9.651
31232WAT     H293939   0.519   0.603   9.814
31233WAT      O93940   3.151   3.344   1.596
31233WAT     H193941   3.233   3.390   1.629
31233WAT     H293942   3.070   3.385   1.638
31234WAT      O93943   8.252   3.175   5.152
31234WAT     H193944   8.253   3.101   5.085
31234WAT     H293945   8.283   3.141   5.241
31235WAT      O93946   5.502   9.087   9.819
31235WAT     H193947   5.546   9.087   9.729
31235WAT     H293948   5.431   9.158   9.821
31236WAT      O93949   3.961   9.712   0.323
31236WAT     H193950   4.036   9.772   0.351
31236WAT     H293951   3.992   9.617   0.327
31237WAT      O93952   6.366   1.765   7.523
31237WAT     H193953   6.436   1.694   7.524
31237WAT     H293954   6.276   1.723   7.517
31238WAT      O93955   8.795   6.612   9.622
31238WAT     H193956   8.835   6.623   9.713
31238WAT     H293957   8.868   6.603   9.554
31239WAT      O93958   9.863   0.076   0.145
31239WAT     H193959   9.906   0.162   0.172
31239WAT     H293960   9.855   0.016   0.226
31240WAT      O93961   2.767   9.345   0.410
31240WAT     H193962   2.686   9.286   0.403
31240WAT     H293963   2.814   9.327   0.497
31241WAT      O93964   0.401   2.464   8.658
31241WAT     H193965   0.411   2.413   8.743
31241WAT     H293966   0.484   2.454   8.603
31242WAT      O93967   8.932   9.414   0.489
31242WAT     H193968   8.841   9.385   0.461
31242WAT     H293969   8.926   9.473   0.569
31243WAT      O93970   0.534   5.693   0.695
31243WAT     H193971   0.565   5.598   0.686
31243WAT     H293972   0.457   5.696   0.759
31244WAT      O93973   5.115   9.730   6.797
31244WAT     H193974   5.192   9.793   6.794
31244WAT     H293975   5.136   9.654   6.859
31245WAT      O93976   0.047   5.056   6.225
31245WAT     H193977   0.111   5.035   6.299
31245WAT     H293978   0.039   5.156   6.216
31246WAT      O93979   1.583   3.593   5.183
31246WAT     H193980   1.577   3.688   5.215
31246WAT     H293981   1.679   3.566   5.178
31247WAT      O93982   0.565   3.733   1.017
31247WAT     H193983   0.656   3.729   1.060
31247WAT     H293984   0.564   3.807   0.949
31248WAT      O93985   3.801   1.496   0.021
31248WAT     H193986   3.733   1.501  -0.052
31248WAT     H293987   3.755   1.497   0.109
31249WAT      O93988   1.865   6.530   1.954
31249WAT     H193989   1.800   6.469   2.000
31249WAT     H293990   1.910   6.588   2.022
31250WAT      O93991   9.552   8.110   4.369
31250WAT     H193992   9.538   8.087   4.465
31250WAT     H293993   9.650   8.104   4.348
31251WAT      O93994   9.281   6.466   0.823
31251WAT     H193995   9.360   6.524   0.844
31251WAT     H293996   9.300   6.372   0.850
31252WAT      O93997   1.640   4.743   0.089
31252WAT     H193998   1.604   4.790   0.008
31252WAT     H293999   1.586   4.661   0.107
31253WAT      O94000   0.536   4.155   0.989
31253WAT     H194001   0.590   4.235   1.018
31253WAT     H294002   0.510   4.102   1.070
31254WAT      O94003   5.647   7.830   7.175
31254WAT     H194004   5.701   7.914   7.173
31254WAT     H294005   5.573   7.840   7.241
31255WAT      O94006   6.822   0.395   9.095
31255WAT     H194007   6.780   0.349   9.173
31255WAT     H294008   6.912   0.355   9.078
31256WAT      O94009   5.305   2.439   2.690
31256WAT     H194010   5.369   2.515   2.699
31256WAT     H294011   5.231   2.450   2.756
31257WAT      O94012   1.485   4.456   1.098
31257WAT     H194013   1.457   4.369   1.058
31257WAT     H294014   1.561   4.494   1.046
31258WAT      O94015   7.452   6.834   0.515
31258WAT     H194016   7.384   6.907   0.509
31258WAT     H294017   7.527   6.862   0.575
31259WAT      O94018   0.477   4.631   4.079
31259WAT     H194019   0.488   4.672   3.988
31259WAT     H294020   0.483   4.531   4.071
31260WAT      O94021   2.447   4.455   0.462
31260WAT     H194022   2.514   4.486   0.394
31260WAT     H294023   2.376   4.401   0.416
31261WAT      O94024   3.192   0.775   4.491
31261WAT     H194025   3.201   0.773   4.591
31261WAT     H294026   3.236   0.695   4.452
31262WAT      O94027   8.730   5.664   8.745
31262WAT     H194028   8.821   5.642   8.709
31262WAT     H294029   8.703   5.755   8.712
31263WAT      O94030   1.983   3.211   8.530
31263WAT     H194031   1.953   3.150   8.457
31263WAT     H294032   2.033   3.158   8.599
31264WAT      O94033   6.373   5.566   8.583
31264WAT     H194034   6.417   5.490   8.631
31264WAT     H294035   6.442   5.633   8.556
31265WAT      O94036   7.162   8.165   5.817
31265WAT     H194037   7.202   8.188   5.728
31265WAT     H294038   7.228   8.114   5.871
31266WAT      O94039   8.751   6.543   2.600
31266WAT     H194040   8.675   6.494   2.557
31266WAT     H294041   8.741   6.540   2.699
31267WAT      O94042   1.629   3.483   1.883
31267WAT     H194043   1.677   3.545   1.821
31267WAT     H294044   1.694   3.441   1.946
31268WAT      O94045   5.979   4.465   0.708
31268WAT     H194046   5.919   4.542   0.687
31268WAT     H294047   6.060   4.499   0.757
31269WAT      O94048   1.791   4.311   8.927
31269WAT     H194049   1.694   4.295   8.906
31269WAT     H294050   1.840   4.331   8.843
31270WAT      O94051   4.489   8.632   0.624
31270WAT     H194052   4.551   8.579   0.567
31270WAT     H294053   4.512   8.617   0.720
31271WAT      O94054   6.303   2.922   7.956
31271WAT     H194055   6.308   2.973   7.870
31271WAT     H294056   6.221   2.949   8.006
31272WAT      O94057   4.520   7.598   4.687
31272WAT     H194058   4.560   7.683   4.723
31272WAT     H294059   4.552   7.521   4.742
31273WAT      O94060   0.543   4.187   3.036
31273WAT     H194061   0.524   4.265   3.096
31273WAT     H294062   0.500   4.201   2.947
31274WAT      O94063   4.902   2.874   1.815
31274WAT     H194064   4.988   2.921   1.837
31274WAT     H294065   4.825   2.933   1.839
31275WAT      O94066   7.134   0.784   6.877
31275WAT     H194067   7.214   0.839   6.854
31275WAT     H294068   7.069   0.839   6.929
31276WAT      O94069   0.768   8.506   3.812
31276WAT     H194070   0.678   8.518   3.772
31276WAT     H294071   0.797   8.410   3.801
31277WAT      O94072   5.052   4.838   3.258
31277WAT     H194073   5.080   4.742   3.266
31277WAT     H294074   5.075   4.887   3.342
31278WAT      O94075   8.564   3.040   4.901
31278WAT     H194076   8.590   3.135   4.919
31278WAT     H294077   8.471   3.038   4.863
31279WAT      O94078   0.509   1.970   5.600
31279WAT     H194079   0.575   1.932   5.665
31279WAT     H294080   0.481   1.899   5.535
31280WAT      O94081   9.813   5.902   3.194
31280WAT     H194082   9.868   5.841   3.137
31280WAT     H294083   9.717   5.895   3.168
31281WAT      O94084   3.042   7.532   1.732
31281WAT     H194085   2.946   7.556   1.722
31281WAT     H294086   3.072   7.551   1.825
31282WAT      O94087   4.011   2.420   2.907
31282WAT     H194088   3.994   2.323   2.894
31282WAT     H294089   3.993   2.445   3.002
31283WAT      O94090   0.117   2.037   6.444
31283WAT     H194091   0.124   2.104   6.370
31283WAT     H294092   0.209   2.020   6.481
31284WAT      O94093   5.635   6.740   2.261
31284WAT     H194094   5.613   6.819   2.318
31284WAT     H294095   5.668   6.771   2.172
31285WAT      O94096   6.419   8.380   5.845
31285WAT     H194097   6.328   8.347   5.818
31285WAT     H294098   6.467   8.308   5.895
31286WAT      O94099   3.774   1.770   4.991
31286WAT     H194100   3.859   1.822   4.983
31286WAT     H294101   3.721   1.805   5.068
31287WAT      O94102   0.111   9.378   8.176
31287WAT     H194103   0.119   9.378   8.276
31287WAT     H294104   0.181   9.318   8.137
31288WAT      O94105   2.145   2.952   9.176
31288WAT     H194106   2.173   3.007   9.255
31288WAT     H294107   2.098   3.011   9.110
31289WAT      O94108   0.420   6.947   0.009
31289WAT     H194109   0.321   6.958   0.022
31289WAT     H294110   0.468   7.019   0.059
31290WAT      O94111   0.049   3.718   5.818
31290WAT     H194112   0.064   3.659   5.739
31290WAT     H294113   0.016   3.807   5.787
31291WAT      O94114   9.561   1.580   2.326
31291WAT     H194115   9.552   1.515   2.402
31291WAT     H294116   9.658   1.602   2.313
31292WAT      O94117   1.714   1.300   4.123
31292WAT     H194118   1.798   1.311   4.070
31292WAT     H294119   1.730   1.330   4.217
31293WAT      O94120   7.121   7.518   7.028
31293WAT     H194121   7.075   7.591   6.978
31293WAT     H294122   7.194   7.480   6.971
31294WAT      O94123   1.737   2.161   7.350
31294WAT     H194124   1.656   2.219   7.364
31294WAT     H294125   1.719   2.094   7.279
31295WAT      O94126   2.259   8.982   7.193
31295WAT     H194127   2.304   8.913   7.249
31295WAT     H294128   2.167   8.951   7.170
31296WAT      O94129   4.190   1.691   7.032
31296WAT     H194130   4.261   1.666   7.097
31296WAT     H294131   4.164   1.787   7.046
31297WAT      O94132   3.842   2.249   2.680
31297WAT     H194133   3.886   2.217   2.764
31297WAT     H294134   3.783   2.177   2.644
31298WAT      O94135   7.629   0.455   0.230
31298WAT     H194136   7.557   0.459   0.299
31298WAT     H294137   7.591   0.423   0.143
31299WAT      O94138   5.789   3.853   9.455
31299WAT     H194139   5.692   3.875   9.457
31299WAT     H294140   5.826   3.854   9.548
31300WAT      O94141   6.080   3.096   1.382
31300WAT     H194142   6.076   3.179   1.326
31300WAT     H294143   5.988   3.059   1.393
31301WAT      O94144   0.230   8.590   7.145
31301WAT     H194145   0.134   8.603   7.120
31301WAT     H294146   0.287   8.655   7.093
31302WAT      O94147   5.917   7.932   0.568
31302WAT     H194148   5.937   8.021   0.610
31302WAT     H294149   5.910   7.942   0.469
31303WAT      O94150   6.260   0.675   0.025
31303WAT     H194151   6.165   0.701   0.011
31303WAT     H294152   6.288   0.613  -0.049
31304WAT      O94153   0.668   6.955   0.849
31304WAT     H194154   0.680   7.051   0.826
31304WAT     H294155   0.658   6.945   0.948
31305WAT      O94156   6.018   4.617   6.800
31305WAT     H194157   5.951   4.662   6.860
31305WAT     H294158   5.972   4.586   6.717
31306WAT      O94159   2.771   8.062   3.781
31306WAT     H194160   2.735   8.028   3.694
31306WAT     H294161   2.800   8.157   3.770
31307WAT      O94162   7.849   7.608   7.862
31307WAT     H194163   7.894   7.639   7.945
31307WAT     H294164   7.917   7.572   7.798
31308WAT      O94165   0.642   6.926   8.336
31308WAT     H194166   0.688   6.837   8.336
31308WAT     H294167   0.669   6.977   8.255
31309WAT      O94168   2.474   5.756   6.640
31309WAT     H194169   2.433   5.822   6.578
31309WAT     H294170   2.549   5.799   6.690
31310WAT      O94171   4.504   0.286   5.739
31310WAT     H194172   4.518   0.282   5.838
31310WAT     H294173   4.485   0.194   5.705
31311WAT      O94174   3.669   9.788   8.780
31311WAT     H194175   3.626   9.766   8.692
31311WAT     H294176   3.766   9.807   8.765
31312WAT      O94177   5.627   8.477   3.911
31312WAT     H194178   5.720   8.454   3.939
31312WAT     H294179   5.577   8.393   3.887
31313WAT      O94180   0.412   7.091   0.402
31313WAT     H194181   0.338   7.029   0.428
31313WAT     H294182   0.462   7.053   0.325
31314WAT      O94183   5.958   3.944   2.871
31314WAT     H194184   6.017   3.921   2.794
31314WAT     H294185   6.013   3.980   2.946
31315WAT      O94186   9.042   5.945   7.609
31315WAT     H194187   8.989   5.861   7.604
31315WAT     H294188   9.102   5.951   7.529
31316WAT      O94189   6.127   1.730   8.836
31316WAT     H194190   6.080   1.728   8.924
31316WAT     H294191   6.195   1.656   8.833
31317WAT      O94192   6.116   4.318   7.398
31317WAT     H194193   6.146   4.349   7.308
31317WAT     H294194   6.195   4.288   7.452
31318WAT      O94195   6.346   8.692   6.546
31318WAT     H194196   6.359   8.681   6.447
31318WAT     H294197   6.274   8.631   6.577
31319WAT      O94198   9.202   2.676   1.038
31319WAT     H194199   9.257   2.683   1.122
31319WAT     H294200   9.150   2.591   1.040
31320WAT      O94201   4.165   2.593   8.634
31320WAT     H194202   4.125   2.502   8.624
31320WAT     H294203   4.242   2.603   8.570
31321WAT      O94204   1.158   8.136   0.663
31321WAT     H194205   1.174   8.103   0.756
31321WAT     H294206   1.238   8.116   0.606
31322WAT      O94207   6.411   2.934   4.601
31322WAT     H194208   6.337   2.906   4.662
31322WAT     H294209   6.497   2.936   4.651
31323WAT      O94210   7.236   0.966   8.758
31323WAT     H194211   7.283   0.976   8.670
31323WAT     H294212   7.156   1.025   8.760
31324WAT      O94213   8.482   6.612   4.214
31324WAT     H194214   8.581   6.609   4.220
31324WAT     H294215   8.454   6.643   4.123
31325WAT      O94216   0.518   2.911   7.656
31325WAT     H194217   0.545   2.890   7.562
31325WAT     H294218   0.524   2.828   7.711
31326WAT      O94219   7.167   1.180   6.332
31326WAT     H194220   7.205   1.238   6.404
31326WAT     H294221   7.111   1.108   6.374
31327WAT      O94222   6.789   3.178   1.536
31327WAT     H194223   6.889   3.184   1.546
31327WAT     H294224   6.761   3.230   1.455
31328WAT      O94225   2.574   5.145   7.981
31328WAT     H194226   2.559   5.228   8.035
31328WAT     H294227   2.591   5.068   8.043
31329WAT      O94228   5.786   4.150   4.579
31329WAT     H194229   5.781   4.226   4.515
31329WAT     H294230   5.721   4.079   4.552
31330WAT      O94231   0.459   4.822   6.341
31330WAT     H194232   0.388   4.754   6.356
31330WAT     H294233   0.505   4.842   6.427
31331WAT      O94234   1.390   3.798   3.486
31331WAT     H194235   1.381   3.803   3.387
31331WAT     H294236   1.346   3.879   3.527
31332WAT      O94237   8.104   9.157   7.845
31332WAT     H194238   8.124   9.135   7.941
31332WAT     H294239   8.013   9.122   7.821
31333WAT      O94240   4.932   4.541   3.739
31333WAT     H194241   4.845   4.495   3.721
31333WAT     H294242   4.919   4.640   3.737
31334WAT      O94243   9.023   5.470   4.470
31334WAT     H194244   9.121   5.451   4.458
31334WAT     H294245   8.998   5.551   4.417
31335WAT      O94246   2.958   6.999   6.005
31335WAT     H194247   2.999   7.008   5.914
31335WAT     H294248   2.868   6.957   5.998
31336WAT      O94249   4.217   3.193   6.370
31336WAT     H194250   4.215   3.290   6.345
31336WAT     H294251   4.133   3.149   6.338
31337WAT      O94252   8.436   5.763   5.197
31337WAT     H194253   8.399   5.853   5.222
31337WAT     H294254   8.526   5.773   5.156
31338WAT      O94255   4.497   4.867   4.242
31338WAT     H194256   4.469   4.790   4.185
31338WAT     H294257   4.457   4.858   4.333
31339WAT      O94258   7.635   8.141   1.134
31339WAT     H194259   7.628   8.195   1.218
31339WAT     H294260   7.731   8.128   1.111
31340WAT      O94261   7.169   2.611   2.692
31340WAT     H194262   7.090   2.603   2.632
31340WAT     H294263   7.138   2.629   2.785
31341WAT      O94264   4.177   3.924   5.705
31341WAT     H194265   4.173   3.865   5.786
31341WAT     H294266   4.122   4.005   5.719
31342WAT      O94267   4.573   6.649   8.383
31342WAT     H194268   4.528   6.695   8.306
31342WAT     H294269   4.634   6.713   8.429
31343WAT      O94270   5.273   9.653   9.180
31343WAT     H194271   5.176   9.638   9.159
31343WAT     H294272   5.321   9.679   9.096
31344WAT      O94273   0.952   7.951   9.635
31344WAT     H194274   0.957   7.900   9.549
31344WAT     H294275   0.921   7.891   9.708
31345WAT      O94276   5.310   1.934   6.014
31345WAT     H194277   5.394   1.882   6.029
31345WAT     H294278   5.252   1.887   5.948
31346WAT      O94279   6.415   5.264   5.219
31346WAT     H194280   6.334   5.207   5.225
31346WAT     H294281   6.429   5.293   5.124
31347WAT      O94282   6.009   7.617   3.287
31347WAT     H194283   6.026   7.608   3.189
31347WAT     H294284   6.010   7.714   3.312
31348WAT      O94285   2.960   0.242   3.948
31348WAT     H194286   3.021   0.167   3.924
31348WAT     H294287   2.869   0.206   3.970
31349WAT      O94288   2.766   6.160   0.517
31349WAT     H194289   2.856   6.175   0.477
31349WAT     H294290   2.753   6.222   0.594
31350WAT      O94291   9.048   0.379   2.701
31350WAT     H194292   9.038   0.478   2.688
31350WAT     H294293   9.145   0.356   2.706
31351WAT      O94294   2.164   6.891   7.800
31351WAT     H194295   2.139   6.926   7.890
31351WAT     H294296   2.236   6.822   7.810
31352WAT      O94297   5.606   1.614   3.284
31352WAT     H194298   5.581   1.585   3.376
31352WAT     H294299   5.531   1.595   3.221
31353WAT      O94300   1.310   6.819   6.884
31353WAT     H194301   1.377   6.824   6.810
31353WAT     H294302   1.295   6.723   6.908
31354WAT      O94303   3.521   8.548   1.839
31354WAT     H194304   3.469   8.613   1.783
31354WAT     H294305   3.533   8.586   1.931
31355WAT      O94306   1.373   3.422   0.868
31355WAT     H194307   1.399   3.371   0.786
31355WAT     H294308   1.399   3.518   0.858
31356WAT      O94309   1.867   9.033   1.482
31356WAT     H194310   1.783   8.980   1.473
31356WAT     H294311   1.846   9.131   1.471
31357WAT      O94312   5.053   8.734   6.614
31357WAT     H194313   5.040   8.641   6.581
31357WAT     H294314   5.078   8.793   6.537
31358WAT      O94315   4.068   4.213   6.453
31358WAT     H194316   4.067   4.307   6.417
31358WAT     H294317   3.987   4.199   6.510
31359WAT      O94318   0.534   9.724   5.528
31359WAT     H194319   0.545   9.797   5.460
31359WAT     H294320   0.503   9.641   5.482
31360WAT      O94321   2.080   8.541   0.468
31360WAT     H194322   2.106   8.607   0.539
31360WAT     H294323   2.116   8.450   0.493
31361WAT      O94324   3.031   2.958   9.448
31361WAT     H194325   2.973   2.937   9.369
31361WAT     H294326   2.986   2.927   9.532
31362WAT      O94327   1.488   0.936   6.975
31362WAT     H194328   1.441   0.915   6.889
31362WAT     H294329   1.524   1.029   6.971
31363WAT      O94330   3.112   5.575   0.882
31363WAT     H194331   3.209   5.602   0.887
31363WAT     H294332   3.075   5.599   0.793
31364WAT      O94333   5.347   5.559   8.044
31364WAT     H194334   5.367   5.657   8.050
31364WAT     H294335   5.418   5.507   8.092
31365WAT      O94336   1.411   4.692   9.588
31365WAT     H194337   1.315   4.668   9.601
31365WAT     H294338   1.417   4.781   9.541
31366WAT      O94339   1.646   3.881   1.113
31366WAT     H194340   1.591   3.899   1.194
31366WAT     H294341   1.678   3.968   1.074
31367WAT      O94342   8.533   0.308   5.196
31367WAT     H194343   8.447   0.259   5.207
31367WAT     H294344   8.581   0.313   5.283
31368WAT      O94345   4.648   8.878   9.530
31368WAT     H194346   4.674   8.940   9.456
31368WAT     H294347   4.710   8.891   9.607
31369WAT      O94348   8.080   9.644   0.446
31369WAT     H194349   8.080   9.663   0.544
31369WAT     H294350   8.044   9.552   0.430
31370WAT      O94351   4.738   6.056   4.716
31370WAT     H194352   4.732   5.958   4.730
31370WAT     H294353   4.687   6.104   4.788
31371WAT      O94354   5.414   4.956   8.547
31371WAT     H194355   5.347   5.007   8.493
31371WAT     H294356   5.503   4.960   8.502
31372WAT      O94357   7.082   3.012   6.288
31372WAT     H194358   7.066   2.934   6.229
31372WAT     H294359   7.087   3.096   6.233
31373WAT      O94360   0.428   2.047   1.911
31373WAT     H194361   0.506   1.986   1.925
31373WAT     H294362   0.451   2.138   1.943
31374WAT      O94363   2.953   7.825   4.393
31374WAT     H194364   3.013   7.745   4.399
31374WAT     H294365   2.858   7.796   4.403
31375WAT      O94366   2.871   9.482   5.032
31375WAT     H194367   2.886   9.557   4.968
31375WAT     H294368   2.880   9.395   4.984
31376WAT      O94369   3.866   6.262   8.711
31376WAT     H194370   3.777   6.282   8.750
31376WAT     H294371   3.858   6.186   8.647
31377WAT      O94372   9.845   2.982   6.374
31377WAT     H194373   9.934   3.021   6.397
31377WAT     H294374   9.773   3.046   6.398
31378WAT      O94375   9.808   9.724   5.348
31378WAT     H194376   9.873   9.711   5.423
31378WAT     H294377   9.720   9.752   5.385
31379WAT      O94378   3.788   5.535   6.912
31379WAT     H194379   3.835   5.447   6.902
31379WAT     H294380   3.808   5.594   6.834
31380WAT      O94381   5.497   2.147   2.238
31380WAT     H194382   5.454   2.180   2.154
31380WAT     H294383   5.501   2.221   2.305
31381WAT      O94384   2.865   1.342   3.109
31381WAT     H194385   2.962   1.350   3.084
31381WAT     H294386   2.847   1.398   3.189
31382WAT      O94387   7.924   3.256   6.352
31382WAT     H194388   8.020   3.233   6.363
31382WAT     H294389   7.905   3.281   6.257
31383WAT      O94390   7.932   0.435   7.129
31383WAT     H194391   7.906   0.449   7.224
31383WAT     H294392   8.026   0.465   7.115
31384WAT      O94393   1.482   3.213   9.279
31384WAT     H194394   1.554   3.145   9.265
31384WAT     H294395   1.394   3.175   9.251
31385WAT      O94396   0.456   0.564   5.736
31385WAT     H194397   0.481   0.593   5.643
31385WAT     H294398   0.358   0.544   5.739
31386WAT      O94399   3.304   3.513   5.840
31386WAT     H194400   3.390   3.545   5.881
31386WAT     H294401   3.236   3.586   5.844
31387WAT      O94402   7.600   8.738   2.038
31387WAT     H194403   7.629   8.703   1.949
31387WAT     H294404   7.511   8.784   2.028
31388WAT      O94405   2.124   0.300   9.413
31388WAT     H194406   2.051   0.364   9.436
31388WAT     H294407   2.085   0.210   9.397
31389WAT      O94408   0.069   0.891   7.570
31389WAT     H194409   0.025   0.826   7.508
31389WAT     H294410   0.168   0.891   7.554
31390WAT      O94411   0.807   8.784   5.383
31390WAT     H194412   0.903   8.774   5.407
31390WAT     H294413   0.762   8.695   5.384
31391WAT      O94414   5.469   4.892   6.645
31391WAT     H194415   5.498   4.797   6.656
31391WAT     H294416   5.536   4.952   6.688
31392WAT      O94417   0.586   8.110   6.375
31392WAT     H194418   0.555   8.064   6.458
31392WAT     H294419   0.607   8.043   6.304
31393WAT      O94420   1.806   7.022   8.198
31393WAT     H194421   1.768   7.107   8.161
31393WAT     H294422   1.851   7.041   8.285
31394WAT      O94423   3.529   1.742   8.559
31394WAT     H194424   3.453   1.707   8.613
31394WAT     H294425   3.562   1.827   8.599
31395WAT      O94426   7.152   8.567   5.866
31395WAT     H194427   7.089   8.641   5.893
31395WAT     H294428   7.108   8.510   5.797
31396WAT      O94429   2.059   9.150   0.508
31396WAT     H194430   2.112   9.192   0.434
31396WAT     H294431   2.110   9.074   0.547
31397WAT      O94432   4.104   0.764   9.646
31397WAT     H194433   4.004   0.772   9.649
31397WAT     H294434   4.129   0.667   9.644
31398WAT      O94435   7.947   2.188   5.228
31398WAT     H194436   7.969   2.208   5.324
31398WAT     H294437   7.926   2.273   5.180
31399WAT      O94438   9.512   7.725   2.318
31399WAT     H194439   9.548   7.691   2.405
31399WAT     H294440   9.588   7.746   2.257
31400WAT      O94441   8.287   9.418   0.455
31400WAT     H194442   8.221   9.474   0.406
31400WAT     H294443   8.239   9.351   0.511
31401WAT      O94444   7.032   7.037   9.237
31401WAT     H194445   7.003   6.945   9.263
31401WAT     H294446   7.021   7.048   9.138
31402WAT      O94447   4.699   5.879   5.783
31402WAT     H194448   4.693   5.901   5.686
31402WAT     H294449   4.739   5.956   5.833
31403WAT      O94450   4.054   4.481   0.375
31403WAT     H194451   4.103   4.393   0.384
31403WAT     H294452   4.121   4.555   0.367
31404WAT      O94453   5.892   1.191   3.908
31404WAT     H194454   5.981   1.172   3.869
31404WAT     H294455   5.902   1.252   3.986
31405WAT      O94456   0.959   3.815   8.319
31405WAT     H194457   0.902   3.774   8.389
31405WAT     H294458   0.934   3.911   8.308
31406WAT      O94459   8.601   7.943   3.110
31406WAT     H194460   8.677   7.963   3.048
31406WAT     H294461   8.638   7.921   3.201
31407WAT      O94462   7.891   7.245   9.876
31407WAT     H194463   7.927   7.337   9.894
31407WAT     H294464   7.936   7.180   9.937
31408WAT      O94465   2.262   4.189   8.871
31408WAT     H194466   2.243   4.098   8.834
31408WAT     H294467   2.323   4.238   8.808
31409WAT      O94468   6.030   7.131   5.267
31409WAT     H194469   6.062   7.111   5.174
31409WAT     H294470   5.965   7.207   5.264
31410WAT      O94471   0.575   3.937   8.294
31410WAT     H194472   0.477   3.924   8.307
31410WAT     H294473   0.594   4.035   8.283
31411WAT      O94474   5.654   1.874   4.145
31411WAT     H194475   5.693   1.812   4.213
31411WAT     H294476   5.572   1.834   4.105
31412WAT      O94477   3.170   0.389   7.813
31412WAT     H194478   3.213   0.384   7.722
31412WAT     H294479   3.105   0.314   7.823
31413WAT      O94480   7.620   3.526   6.078
31413WAT     H194481   7.697   3.473   6.114
31413WAT     H294482   7.594   3.597   6.144
31414WAT      O94483   8.138   3.820   3.698
31414WAT     H194484   8.168   3.913   3.721
31414WAT     H294485   8.043   3.808   3.725
31415WAT      O94486   1.858   9.255   5.800
31415WAT     H194487   1.799   9.243   5.720
31415WAT     H294488   1.848   9.348   5.835
31416WAT      O94489   6.079   0.451   7.909
31416WAT     H194490   5.983   0.455   7.880
31416WAT     H294491   6.121   0.368   7.871
31417WAT      O94492   9.808   4.249   2.147
31417WAT     H194493   9.741   4.259   2.074
31417WAT     H294494   9.894   4.216   2.109
31418WAT      O94495   3.706   0.879   6.897
31418WAT     H194496   3.709   0.815   6.973
31418WAT     H294497   3.746   0.838   6.816
31419WAT      O94498   4.171   6.476   3.638
31419WAT     H194499   4.182   6.400   3.702
31419WAT     H294500   4.074   6.485   3.614
31420WAT      O94501   3.428   8.641   6.907
31420WAT     H194502   3.498   8.664   6.974
31420WAT     H294503   3.345   8.692   6.926
31421WAT      O94504   0.563   7.781   7.640
31421WAT     H194505   0.466   7.797   7.624
31421WAT     H294506   0.593   7.831   7.721
31422WAT      O94507   7.734   0.916   3.914
31422WAT     H194508   7.734   0.949   4.009
31422WAT     H294509   7.721   0.817   3.913
31423WAT      O94510   5.404   9.536   8.191
31423WAT     H194511   5.414   9.482   8.274
31423WAT     H294512   5.479   9.515   8.128
31424WAT      O94513   7.877   3.101   0.336
31424WAT     H194514   7.944   3.154   0.387
31424WAT     H294515   7.815   3.162   0.288
31425WAT      O94516   0.397   8.578   5.305
31425WAT     H194517   0.306   8.537   5.300
31425WAT     H294518   0.389   8.668   5.348
31426WAT      O94519   5.438   5.068   8.777
31426WAT     H194520   5.433   5.007   8.698
31426WAT     H294521   5.530   5.107   8.784
31427WAT      O94522   5.324   2.202   7.792
31427WAT     H194523   5.416   2.234   7.815
31427WAT     H294524   5.330   2.118   7.738
31428WAT      O94525   8.047   0.714   5.196
31428WAT     H194526   8.045   0.617   5.170
31428WAT     H294527   7.966   0.735   5.250
31429WAT      O94528   0.895   9.160   6.563
31429WAT     H194529   0.966   9.130   6.500
31429WAT     H294530   0.934   9.174   6.653
31430WAT      O94531   1.914   9.719   1.115
31430WAT     H194532   1.967   9.644   1.076
31430WAT     H294533   1.873   9.773   1.041
31431WAT      O94534   5.690   5.115   7.566
31431WAT     H194535   5.708   5.030   7.616
31431WAT     H294536   5.775   5.152   7.530
31432WAT      O94537   3.754   2.458   5.757
31432WAT     H194538   3.715   2.405   5.682
31432WAT     H294539   3.683   2.516   5.798
31433WAT      O94540   1.128   5.690   1.113
31433WAT     H194541   1.205   5.638   1.078
31433WAT     H294542   1.094   5.645   1.197
31434WAT      O94543   0.408   7.859   2.906
31434WAT     H194544   0.342   7.837   2.835
31434WAT     H294545   0.371   7.837   2.996
31435WAT      O94546   4.011   2.365   8.632
31435WAT     H194547   3.940   2.385   8.698
31435WAT     H294548   4.057   2.279   8.656
31436WAT      O94549   3.815   1.393   6.876
31436WAT     H194550   3.896   1.413   6.931
31436WAT     H294551   3.737   1.447   6.908
31437WAT      O94552   7.162   0.369   6.112
31437WAT     H194553   7.092   0.372   6.040
31437WAT     H294554   7.165   0.457   6.159
31438WAT      O94555   6.789   9.535   9.630
31438WAT     H194556   6.711   9.495   9.581
31438WAT     H294557   6.823   9.614   9.579
31439WAT      O94558   5.928   5.384   8.844
31439WAT     H194559   5.948   5.368   8.748
31439WAT     H294560   5.964   5.308   8.899
31440WAT      O94561   2.932   1.153   5.064
31440WAT     H194562   2.933   1.055   5.046
31440WAT     H294563   3.023   1.183   5.093
31441WAT      O94564   0.954   6.541   5.674
31441WAT     H194565   0.887   6.609   5.647
31441WAT     H294566   0.999   6.503   5.593
31442WAT      O94567   6.256   6.541   9.066
31442WAT     H194568   6.158   6.519   9.059
31442WAT     H294569   6.290   6.514   9.156
31443WAT      O94570   1.389   8.310   2.321
31443WAT     H194571   1.386   8.409   2.306
31443WAT     H294572   1.475   8.273   2.285
31444WAT      O94573   4.487   0.498   4.571
31444WAT     H194574   4.499   0.431   4.499
31444WAT     H294575   4.396   0.541   4.562
31445WAT      O94576   0.148   8.399   4.487
31445WAT     H194577   0.063   8.447   4.505
31445WAT     H294578   0.162   8.392   4.389
31446WAT      O94579   3.586   7.789   6.816
31446WAT     H194580   3.644   7.750   6.888
31446WAT     H294581   3.507   7.832   6.858
31447WAT      O94582   0.944   7.716   4.695
31447WAT     H194583   0.875   7.744   4.629
31447WAT     H294584   0.947   7.616   4.699
31448WAT      O94585   2.654   6.194   5.326
31448WAT     H194586   2.637   6.127   5.254
31448WAT     H294587   2.701   6.150   5.402
31449WAT      O94588   7.663   7.195   8.919
31449WAT     H194589   7.587   7.132   8.935
31449WAT     H294590   7.747   7.142   8.908
31450WAT      O94591   9.220   3.594   4.901
31450WAT     H194592   9.136   3.539   4.907
31450WAT     H294593   9.201   3.688   4.930
31451WAT      O94594   3.055   3.511   0.145
31451WAT     H194595   3.133   3.494   0.084
31451WAT     H294596   2.986   3.439   0.131
31452WAT      O94597   2.169   8.585   0.846
31452WAT     H194598   2.117   8.500   0.854
31452WAT     H294599   2.138   8.636   0.766
31453WAT      O94600   4.342   5.406   8.441
31453WAT     H194601   4.353   5.446   8.533
31453WAT     H294602   4.316   5.478   8.377
31454WAT      O94603   1.314   6.821   5.038
31454WAT     H194604   1.281   6.880   4.964
31454WAT     H294605   1.414   6.820   5.039
31455WAT      O94606   0.850   6.097   6.775
31455WAT     H194607   0.862   6.193   6.748
31455WAT     H294608   0.768   6.060   6.731
31456WAT      O94609   3.662   5.201   2.231
31456WAT     H194610   3.643   5.219   2.327
31456WAT     H294611   3.699   5.109   2.221
31457WAT      O94612   6.350   3.022   3.212
31457WAT     H194613   6.257   3.059   3.211
31457WAT     H294614   6.396   3.050   3.296
31458WAT      O94615   6.641   8.731   3.432
31458WAT     H194616   6.677   8.808   3.380
31458WAT     H294617   6.543   8.745   3.449
31459WAT      O94618   4.174   1.736   2.404
31459WAT     H194619   4.266   1.722   2.443
31459WAT     H294620   4.140   1.826   2.432
31460WAT      O94621   0.788   9.361   8.406
31460WAT     H194622   0.799   9.304   8.324
31460WAT     H294623   0.736   9.310   8.475
31461WAT      O94624   7.431   7.144   2.067
31461WAT     H194625   7.504   7.080   2.091
31461WAT     H294626   7.446   7.178   1.974
31462WAT      O94627   9.037   5.122   2.341
31462WAT     H194628   9.096   5.059   2.392
31462WAT     H294629   8.960   5.149   2.399
31463WAT      O94630   9.446   5.105   6.034
31463WAT     H194631   9.517   5.172   6.054
31463WAT     H294632   9.486   5.024   5.991
31464WAT      O94633   9.511   4.300   0.856
31464WAT     H194634   9.572   4.350   0.796
31464WAT     H294635   9.488   4.212   0.814
31465WAT      O94636   6.666   3.078   7.375
31465WAT     H194637   6.579   3.030   7.359
31465WAT     H294638   6.649   3.159   7.430
31466WAT      O94639   3.518   6.285   7.510
31466WAT     H194640   3.526   6.214   7.440
31466WAT     H294641   3.463   6.251   7.586
31467WAT      O94642   1.601   6.712   1.817
31467WAT     H194643   1.598   6.768   1.900
31467WAT     H294644   1.552   6.626   1.834
31468WAT      O94645   8.708   9.633   2.576
31468WAT     H194646   8.632   9.572   2.598
31468WAT     H294647   8.672   9.721   2.544
31469WAT      O94648   3.972   6.491   0.552
31469WAT     H194649   3.894   6.547   0.525
31469WAT     H294650   3.979   6.411   0.493
31470WAT      O94651   6.890   2.692   0.777
31470WAT     H194652   6.816   2.748   0.739
31470WAT     H294653   6.853   2.634   0.851
31471WAT      O94654   7.005   4.729   8.523
31471WAT     H194655   7.057   4.773   8.450
31471WAT     H294656   6.970   4.800   8.585
31472WAT      O94657   0.167   3.104   5.413
31472WAT     H194658   0.097   3.143   5.352
31472WAT     H294659   0.137   3.115   5.508
31473WAT      O94660   9.871   9.186   8.502
31473WAT     H194661   9.936   9.234   8.561
31473WAT     H294662   9.799   9.145   8.559
31474WAT      O94663   2.571   1.485   4.061
31474WAT     H194664   2.659   1.520   4.029
31474WAT     H294665   2.545   1.534   4.144
31475WAT      O94666   0.103   6.278   6.676
31475WAT     H194667   0.042   6.323   6.741
31475WAT     H294668   0.070   6.294   6.583
31476WAT      O94669   8.560   8.562   3.671
31476WAT     H194670   8.599   8.636   3.725
31476WAT     H294671   8.588   8.474   3.711
31477WAT      O94672   9.052   1.202   9.423
31477WAT     H194673   8.993   1.270   9.381
31477WAT     H294674   9.116   1.246   9.485
31478WAT      O94675   5.445   2.430   1.526
31478WAT     H194676   5.496   2.348   1.554
31478WAT     H294677   5.348   2.414   1.540
31479WAT      O94678   4.237   9.142   4.887
31479WAT     H194679   4.217   9.051   4.924
31479WAT     H294680   4.226   9.210   4.960
31480WAT      O94681   3.483   3.210   3.672
31480WAT     H194682   3.494   3.224   3.573
31480WAT     H294683   3.486   3.299   3.718
31481WAT      O94684   8.251   2.387   5.268
31481WAT     H194685   8.277   2.294   5.294
31481WAT     H294686   8.193   2.384   5.187
31482WAT      O94687   0.187   2.318   4.560
31482WAT     H194688   0.227   2.409   4.567
31482WAT     H294689   0.212   2.278   4.472
31483WAT      O94690   9.215   7.764   1.938
31483WAT     H194691   9.189   7.848   1.986
31483WAT     H294692   9.183   7.769   1.844
31484WAT      O94693   8.607   7.483   0.902
31484WAT     H194694   8.601   7.406   0.838
31484WAT     H294695   8.581   7.453   0.994
31485WAT      O94696   1.210   7.287   7.740
31485WAT     H194697   1.175   7.380   7.726
31485WAT     H294698   1.153   7.240   7.807
31486WAT      O94699   4.156   2.495   5.678
31486WAT     H194700   4.109   2.581   5.696
31486WAT     H294701   4.107   2.444   5.607
31487WAT      O94702   3.150   5.470   5.741
31487WAT     H194703   3.156   5.517   5.829
31487WAT     H294704   3.146   5.538   5.668
31488WAT      O94705   9.278   6.137   2.071
31488WAT     H194706   9.196   6.130   2.014
31488WAT     H294707   9.343   6.199   2.028
31489WAT      O94708   2.945   2.946   7.518
31489WAT     H194709   2.923   2.857   7.559
31489WAT     H294710   2.961   3.013   7.591
31490WAT      O94711   0.809   1.136   3.763
31490WAT     H194712   0.817   1.176   3.672
31490WAT     H294713   0.806   1.036   3.756
31491WAT      O94714   0.232   6.315   9.077
31491WAT     H194715   0.260   6.339   9.170
31491WAT     H294716   0.193   6.223   9.077
31492WAT      O94717   4.245   7.107   8.857
31492WAT     H194718   4.236   7.184   8.921
31492WAT     H294719   4.207   7.133   8.769
31493WAT      O94720   9.850   7.437   4.818
31493WAT     H194721   9.812   7.468   4.731
31493WAT     H294722   9.941   7.398   4.803
31494WAT      O94723   2.076   3.361   5.377
31494WAT     H194724   2.035   3.300   5.445
31494WAT     H294725   2.008   3.427   5.346
31495WAT      O94726   3.331   2.643   1.396
31495WAT     H194727   3.383   2.579   1.453
31495WAT     H294728   3.346   2.620   1.299
31496WAT      O94729   8.173   1.275   2.387
31496WAT     H194730   8.235   1.215   2.439
31496WAT     H294731   8.173   1.247   2.291
31497WAT      O94732   7.941   1.589   8.736
31497WAT     H194733   8.020   1.533   8.759
31497WAT     H294734   7.969   1.686   8.735
31498WAT      O94735   4.944   7.821   2.554
31498WAT     H194736   4.938   7.919   2.533
31498WAT     H294737   4.853   7.782   2.557
31499WAT      O94738   6.319   4.059   6.168
31499WAT     H194739   6.336   4.144   6.119
31499WAT     H294740   6.296   4.080   6.264
31500WAT      O94741   7.953   3.241   4.159
31500WAT     H194742   8.047   3.240   4.194
31500WAT     H294743   7.896   3.295   4.220
31501WAT      O94744   3.929   6.667   7.148
31501WAT     H194745   3.930   6.707   7.239
31501WAT     H294746   4.022   6.663   7.112
31502WAT      O94747   4.534   8.334   5.227
31502WAT     H194748   4.505   8.372   5.139
31502WAT     H294749   4.459   8.281   5.267
31503WAT      O94750   2.342   8.348   1.746
31503WAT     H194751   2.312   8.426   1.691
31503WAT     H294752   2.391   8.283   1.688
31504WAT      O94753   1.478   1.455   8.200
31504WAT     H194754   1.499   1.416   8.111
31504WAT     H294755   1.557   1.447   8.261
31505WAT      O94756   5.420   7.262   3.784
31505WAT     H194757   5.400   7.180   3.730
31505WAT     H294758   5.495   7.312   3.741
31506WAT      O94759   3.217   8.973   2.021
31506WAT     H194760   3.247   9.065   2.044
31506WAT     H294761   3.271   8.937   1.945
31507WAT      O94762   8.530   6.412   8.768
31507WAT     H194763   8.445   6.414   8.716
31507WAT     H294764   8.543   6.500   8.814
31508WAT      O94765   2.704   0.970   5.372
31508WAT     H194766   2.723   1.043   5.306
31508WAT     H294767   2.625   0.996   5.428
31509WAT      O94768   6.837   2.101   8.650
31509WAT     H194769   6.923   2.050   8.644
31509WAT     H294770   6.856   2.198   8.638
31510WAT      O94771   9.719   6.312   7.262
31510WAT     H194772   9.628   6.342   7.232
31510WAT     H294773   9.769   6.390   7.301
31511WAT      O94774   4.416   5.875   6.758
31511WAT     H194775   4.511   5.903   6.755
31511WAT     H294776   4.364   5.937   6.816
31512WAT      O94777   8.927   2.278   4.349
31512WAT     H194778   8.993   2.327   4.405
31512WAT     H294779   8.859   2.234   4.408
31513WAT      O94780   2.369   4.151   2.959
31513WAT     H194781   2.340   4.161   2.864
31513WAT     H294782   2.418   4.233   2.987
31514WAT      O94783   0.182   4.619   4.761
31514WAT     H194784   0.155   4.571   4.845
31514WAT     H294785   0.197   4.715   4.781
31515WAT      O94786   3.017   5.283   7.762
31515WAT     H194787   3.006   5.382   7.771
31515WAT     H294788   2.966   5.237   7.835
31516WAT      O94789   4.465   7.070   2.630
31516WAT     H194790   4.552   7.023   2.621
31516WAT     H294791   4.463   7.121   2.716
31517WAT      O94792   0.335   7.707   4.555
31517WAT     H194793   0.293   7.692   4.644
31517WAT     H294794   0.381   7.797   4.554
31518WAT      O94795   4.278   4.017   6.036
31518WAT     H194796   4.180   4.020   6.053
31518WAT     H294797   4.318   3.937   6.081
31519WAT      O94798   2.116   7.046   5.327
31519WAT     H194799   2.208   7.044   5.288
31519WAT     H294800   2.114   7.108   5.406
31520WAT      O94801   9.267   6.975   5.562
31520WAT     H194802   9.310   6.953   5.474
31520WAT     H294803   9.333   7.024   5.619
31521WAT      O94804   3.990   3.086   6.264
31521WAT     H194805   3.957   2.998   6.298
31521WAT     H294806   3.914   3.149   6.254
31522WAT      O94807   8.795   0.076   7.528
31522WAT     H194808   8.800  -0.000   7.593
31522WAT     H294809   8.821   0.043   7.437
31523WAT      O94810   5.285   5.427   0.796
31523WAT     H194811   5.245   5.475   0.874
31523WAT     H294812   5.222   5.355   0.765
31524WAT      O94813   0.758   7.092   2.806
31524WAT     H194814   0.772   6.994   2.796
31524WAT     H294815   0.833   7.131   2.861
31525WAT      O94816   0.127   2.271   7.235
31525WAT     H194817   0.072   2.222   7.168
31525WAT     H294818   0.135   2.367   7.208
31526WAT      O94819   1.489   0.768   2.208
31526WAT     H194820   1.541   0.686   2.184
31526WAT     H294821   1.531   0.848   2.166
31527WAT      O94822   6.448   7.626   4.454
31527WAT     H194823   6.366   7.575   4.480
31527WAT     H294824   6.455   7.708   4.510
31528WAT      O94825   2.844   8.154   2.482
31528WAT     H194826   2.793   8.161   2.568
31528WAT     H294827   2.796   8.092   2.420
31529WAT      O94828   0.670   1.815   7.341
31529WAT     H194829   0.763   1.812   7.378
31529WAT     H294830   0.625   1.899   7.372
31530WAT      O94831   4.619   1.092   4.240
31530WAT     H194832   4.520   1.085   4.232
31530WAT     H294833   4.659   1.001   4.243
31531WAT      O94834   7.399   5.859   7.620
31531WAT     H194835   7.422   5.771   7.579
31531WAT     H294836   7.479   5.918   7.620
31532WAT      O94837   9.821   5.595   5.117
31532WAT     H194838   9.731   5.551   5.115
31532WAT     H294839   9.827   5.663   5.044
31533WAT      O94840   8.437   3.400   5.442
31533WAT     H194841   8.439   3.324   5.507
31533WAT     H294842   8.365   3.384   5.374
31534WAT      O94843   3.201   1.215   9.259
31534WAT     H194844   3.114   1.239   9.215
31534WAT     H294845   3.277   1.244   9.201
31535WAT      O94846   4.505   3.545   4.431
31535WAT     H194847   4.477   3.575   4.522
31535WAT     H294848   4.592   3.589   4.407
31536WAT      O94849   3.760   6.638   0.484
31536WAT     H194850   3.724   6.703   0.551
31536WAT     H294851   3.815   6.686   0.416
31537WAT      O94852   1.523   3.795   1.913
31537WAT     H194853   1.585   3.864   1.951
31537WAT     H294854   1.488   3.738   1.987
31538WAT      O94855   2.294   0.113   5.414
31538WAT     H194856   2.274   0.160   5.499
31538WAT     H294857   2.210   0.075   5.375
31539WAT      O94858   1.352   2.466   3.750
31539WAT     H194859   1.294   2.528   3.802
31539WAT     H294860   1.359   2.497   3.655
31540WAT      O94861   3.127   7.621   0.391
31540WAT     H194862   3.043   7.631   0.443
31540WAT     H294863   3.201   7.591   0.452
31541WAT      O94864   8.725   8.272   0.395
31541WAT     H194865   8.748   8.282   0.298
31541WAT     H294866   8.809   8.274   0.449
31542WAT      O94867   3.856   6.675   5.672
31542WAT     H194868   3.861   6.615   5.591
31542WAT     H294869   3.913   6.637   5.744
31543WAT      O94870   2.602   7.088   1.260
31543WAT     H194871   2.628   6.992   1.250
31543WAT     H294872   2.678   7.146   1.234
31544WAT      O94873   7.038   9.201   2.818
31544WAT     H194874   7.001   9.140   2.889
31544WAT     H294875   7.025   9.159   2.728
31545WAT      O94876   3.047   1.623   4.383
31545WAT     H194877   3.110   1.650   4.456
31545WAT     H294878   2.957   1.663   4.400
31546WAT      O94879   5.447   6.912   4.724
31546WAT     H194880   5.532   6.964   4.725
31546WAT     H294881   5.442   6.855   4.806
31547WAT      O94882   3.607   8.536   9.809
31547WAT     H194883   3.555   8.563   9.890
31547WAT     H294884   3.550   8.550   9.728
31548WAT      O94885   9.615   8.360   7.367
31548WAT     H194886   9.603   8.260   7.366
31548WAT     H294887   9.711   8.382   7.353
31549WAT      O94888   8.618   4.136   8.146
31549WAT     H194889   8.664   4.047   8.149
31549WAT     H294890   8.621   4.171   8.053
31550WAT      O94891   0.100   0.748   3.114
31550WAT     H194892   0.185   0.781   3.154
31550WAT     H294893   0.120   0.687   3.037
31551WAT      O94894   5.346   3.340   1.040
31551WAT     H194895   5.269   3.332   0.977
31551WAT     H294896   5.432   3.335   0.990
31552WAT      O94897   0.805   1.068   6.408
31552WAT     H194898   0.722   1.025   6.373
31552WAT     H294899   0.849   1.119   6.335
31553WAT      O94900   9.675   9.345   5.108
31553WAT     H194901   9.740   9.365   5.035
31553WAT     H294902   9.613   9.423   5.119
31554WAT      O94903   5.870   1.300   9.832
31554WAT     H194904   5.822   1.385   9.853
31554WAT     H294905   5.805   1.224   9.833
31555WAT      O94906   0.793   7.435   6.199
31555WAT     H194907   0.757   7.447   6.291
31555WAT     H294908   0.718   7.412   6.137
31556WAT      O94909   8.116   9.813   5.240
31556WAT     H194910   8.101   9.724   5.284
31556WAT     H294911   8.028   9.858   5.225
31557WAT      O94912   1.601   7.947   8.164
31557WAT     H194913   1.667   7.902   8.104
31557WAT     H294914   1.619   8.046   8.165
31558WAT      O94915   0.849   4.422   0.288
31558WAT     H194916   0.939   4.464   0.277
31558WAT     H294917   0.812   4.444   0.378
31559WAT      O94918   9.360   7.288   3.048
31559WAT     H194919   9.361   7.303   3.147
31559WAT     H294920   9.275   7.323   3.009
31560WAT      O94921   7.294   2.201   4.208
31560WAT     H194922   7.252   2.199   4.117
31560WAT     H294923   7.238   2.258   4.269
31561WAT      O94924   4.246   2.993   7.624
31561WAT     H194925   4.165   2.963   7.675
31561WAT     H294926   4.244   3.093   7.615
31562WAT      O94927   1.289   4.771   7.775
31562WAT     H194928   1.356   4.723   7.833
31562WAT     H294929   1.317   4.766   7.680
31563WAT      O94930   9.347   1.643   3.880
31563WAT     H194931   9.292   1.577   3.829
31563WAT     H294932   9.424   1.596   3.923
31564WAT      O94933   6.819   6.960   4.073
31564WAT     H194934   6.725   6.946   4.042
31564WAT     H294935   6.821   7.033   4.141
31565WAT      O94936   2.671   1.692   1.704
31565WAT     H194937   2.667   1.595   1.681
31565WAT     H294938   2.765   1.718   1.724
31566WAT      O94939   6.829   7.072   4.774
31566WAT     H194940   6.900   7.140   4.792
31566WAT     H294941   6.847   6.989   4.826
31567WAT      O94942   3.955   3.880   7.326
31567WAT     H194943   4.036   3.918   7.370
31567WAT     H294944   3.874   3.933   7.355
31568WAT      O94945   8.550   2.643   0.715
31568WAT     H194946   8.567   2.545   0.717
31568WAT     H294947   8.495   2.670   0.794
31569WAT      O94948   5.659   7.209   5.307
31569WAT     H194949   5.654   7.308   5.321
31569WAT     H294950   5.668   7.191   5.209
31570WAT      O94951   4.579   3.219   3.226
31570WAT     H194952   4.547   3.299   3.176
31570WAT     H294953   4.632   3.248   3.306
31571WAT      O94954   3.502   6.117   7.007
31571WAT     H194955   3.567   6.089   6.937
31571WAT     H294956   3.414   6.138   6.964
31572WAT      O94957   4.768   0.805   6.091
31572WAT     H194958   4.728   0.879   6.038
31572WAT     H294959   4.840   0.841   6.149
31573WAT      O94960   8.507   5.459   2.584
31573WAT     H194961   8.579   5.498   2.640
31573WAT     H294962   8.529   5.471   2.487
31574WAT      O94963   2.304   3.576   0.013
31574WAT     H194964   2.398   3.551   0.034
31574WAT     H294965   2.251   3.581   0.097
31575WAT      O94966   3.019   7.311   8.643
31575WAT     H194967   2.938   7.274   8.687
31575WAT     H294968   3.091   7.241   8.640
31576WAT      O94969   5.923   8.969   0.700
31576WAT     H194970   5.984   8.950   0.776
31576WAT     H294971   5.829   8.947   0.726
31577WAT      O94972   1.696   7.905   3.610
31577WAT     H194973   1.755   7.882   3.688
31577WAT     H294974   1.728   7.855   3.529
31578WAT      O94975   0.257   7.120   1.101
31578WAT     H194976   0.266   7.106   1.003
31578WAT     H294977   0.230   7.215   1.119
31579WAT      O94978   3.635   1.820   5.199
31579WAT     H194979   3.570   1.884   5.158
31579WAT     H294980   3.672   1.859   5.283
31580WAT      O94981   9.565   5.558   9.756
31580WAT     H194982   9.465   5.565   9.762
31580WAT     H294983   9.596   5.480   9.810
31581WAT      O94984   5.784   0.386   3.012
31581WAT     H194985   5.777   0.444   3.093
31581WAT     H294986   5.801   0.443   2.931
31582WAT      O94987   5.712   8.793   9.640
31582WAT     H194988   5.753   8.806   9.550
31582WAT     H294989   5.624   8.747   9.629
31583WAT      O94990   6.535   9.470   0.327
31583WAT     H194991   6.546   9.506   0.420
31583WAT     H294992   6.537   9.546   0.262
31584WAT      O94993   4.196   1.157   9.640
31584WAT     H194994   4.177   1.239   9.695
31584WAT     H294995   4.215   1.080   9.701
31585WAT      O94996   6.173   0.619   7.706
31585WAT     H194997   6.117   0.600   7.625
31585WAT     H294998   6.152   0.553   7.778
31586WAT      O94999   3.835   1.872   5.763
31586WAT     H195000   3.829   1.772   5.755
31586WAT     H295001   3.916   1.904   5.714
31587WAT      O95002   3.904   6.917   3.259
31587WAT     H195003   3.811   6.951   3.252
31587WAT     H295004   3.966   6.980   3.212
31588WAT      O95005   4.759   6.240   7.846
31588WAT     H195006   4.749   6.155   7.898
31588WAT     H295007   4.692   6.242   7.772
31589WAT      O95008   4.404   2.188   0.223
31589WAT     H195009   4.366   2.267   0.174
31589WAT     H295010   4.464   2.136   0.162
31590WAT      O95011   6.482   1.815   9.355
31590WAT     H195012   6.532   1.734   9.383
31590WAT     H295013   6.391   1.789   9.321
31591WAT      O95014   8.479   5.427   3.979
31591WAT     H195015   8.522   5.494   3.918
31591WAT     H295016   8.384   5.453   3.994
31592WAT      O95017   2.968   3.068   1.855
31592WAT     H195018   2.952   3.098   1.950
31592WAT     H295019   2.881   3.056   1.809
31593WAT      O95020   6.359   6.195   6.814
31593WAT     H195021   6.317   6.283   6.836
31593WAT     H295022   6.431   6.208   6.747
31594WAT      O95023   2.348   4.812   2.416
31594WAT     H195024   2.272   4.764   2.373
31594WAT     H295025   2.433   4.791   2.368
31595WAT      O95026   3.277   3.861   3.147
31595WAT     H195027   3.248   3.871   3.052
31595WAT     H295028   3.363   3.910   3.161
31596WAT      O95029   1.643   0.205   9.197
31596WAT     H195030   1.655   0.214   9.296
31596WAT     H295031   1.630   0.295   9.156
31597WAT      O95032   4.015   9.041   6.483
31597WAT     H195033   3.916   9.042   6.496
31597WAT     H295034   4.059   9.087   6.561
31598WAT      O95035   3.300   0.686   0.339
31598WAT     H195036   3.392   0.693   0.302
31598WAT     H295037   3.238   0.652   0.268
31599WAT      O95038   6.463   2.742   8.149
31599WAT     H195039   6.402   2.787   8.085
31599WAT     H295040   6.557   2.748   8.115
31600WAT      O95041   9.863   6.804   4.339
31600WAT     H195042   9.794   6.874   4.321
31600WAT     H295043   9.912   6.782   4.254
31601WAT      O95044   8.623   4.781   2.797
31601WAT     H195045   8.610   4.829   2.710
31601WAT     H295046   8.699   4.716   2.788
31602WAT      O95047   7.990   1.615   4.011
31602WAT     H195048   7.979   1.711   3.985
31602WAT     H295049   7.910   1.563   3.980
31603WAT      O95050   3.529   7.284   2.947
31603WAT     H195051   3.619   7.258   2.910
31603WAT     H295052   3.525   7.383   2.959
31604WAT      O95053   9.794   8.157   2.601
31604WAT     H195054   9.711   8.126   2.554
31604WAT     H295055   9.872   8.150   2.540
31605WAT      O95056   6.662   6.138   2.123
31605WAT     H195057   6.646   6.088   2.208
31605WAT     H295058   6.721   6.217   2.141
31606WAT      O95059   2.798   0.118   7.637
31606WAT     H195060   2.771   0.033   7.682
31606WAT     H295061   2.886   0.105   7.591
31607WAT      O95062   3.862   8.000   1.479
31607WAT     H195063   3.952   7.961   1.458
31607WAT     H295064   3.852   8.008   1.578
31608WAT      O95065   2.848   3.275   3.210
31608WAT     H195066   2.917   3.343   3.184
31608WAT     H295067   2.803   3.240   3.127
31609WAT      O95068   0.342   2.730   5.459
31609WAT     H195069   0.272   2.695   5.397
31609WAT     H295070   0.416   2.663   5.466
31610WAT      O95071   0.371   4.766   5.036
31610WAT     H195072   0.299   4.823   4.995
31610WAT     H295073   0.343   4.670   5.032
31611WAT      O95074   2.415   4.872   9.831
31611WAT     H195075   2.512   4.894   9.819
31611WAT     H295076   2.360   4.932   9.773
31612WAT      O95077   7.840   4.526   3.189
31612WAT     H195078   7.773   4.525   3.115
31612WAT     H295079   7.882   4.436   3.196
31613WAT      O95080   5.942   2.223   7.542
31613WAT     H195081   5.912   2.274   7.462
31613WAT     H295082   5.970   2.131   7.514
31614WAT      O95083   7.005   1.012   6.468
31614WAT     H195084   7.003   1.086   6.537
31614WAT     H295085   6.988   0.925   6.514
31615WAT      O95086   0.827   8.696   6.908
31615WAT     H195087   0.785   8.783   6.885
31615WAT     H295088   0.821   8.634   6.829
31616WAT      O95089   0.242   7.266   5.774
31616WAT     H195090   0.207   7.174   5.793
31616WAT     H295091   0.260   7.313   5.861
31617WAT      O95092   4.529   8.185   4.792
31617WAT     H195093   4.464   8.231   4.731
31617WAT     H295094   4.493   8.184   4.885
31618WAT      O95095   0.062   8.219   2.826
31618WAT     H195096  -0.005   8.195   2.756
31618WAT     H295097   0.147   8.171   2.808
31619WAT      O95098   5.634   3.253   9.223
31619WAT     H195099   5.613   3.157   9.207
31619WAT     H295100   5.643   3.270   9.321
31620WAT      O95101   5.505   9.601   4.486
31620WAT     H195102   5.577   9.532   4.496
31620WAT     H295103   5.422   9.570   4.532
31621WAT      O95104   7.940   3.579   3.937
31621WAT     H195105   7.859   3.578   3.996
31621WAT     H295106   7.939   3.661   3.880
31622WAT      O95107   2.998   6.951   9.123
31622WAT     H195108   2.983   6.956   9.024
31622WAT     H295109   3.096   6.949   9.141
31623WAT      O95110   1.462   7.215   7.950
31623WAT     H195111   1.471   7.151   7.874
31623WAT     H295112   1.434   7.165   8.033
31624WAT      O95113   9.597   9.461   4.787
31624WAT     H195114   9.594   9.491   4.691
31624WAT     H295115   9.692   9.443   4.813
31625WAT      O95116   2.908   1.943   3.072
31625WAT     H195117   2.819   1.985   3.092
31625WAT     H295118   2.908   1.907   2.979
31626WAT      O95119   2.569   5.757   9.008
31626WAT     H195120   2.630   5.714   8.942
31626WAT     H295121   2.531   5.687   9.068
31627WAT      O95122   8.665   7.406   5.931
31627WAT     H195123   8.736   7.365   5.989
31627WAT     H295124   8.575   7.382   5.967
31628WAT      O95125   1.441   2.171   1.584
31628WAT     H195126   1.433   2.237   1.659
31628WAT     H295127   1.353   2.161   1.538
31629WAT      O95128   5.631   3.688   3.587
31629WAT     H195129   5.718   3.738   3.580
31629WAT     H295130   5.603   3.686   3.683
31630WAT      O95131   6.950   2.256   6.081
31630WAT     H195132   6.860   2.232   6.115
31630WAT     H295133   6.999   2.311   6.148
31631WAT      O95134   3.529   6.916   3.651
31631WAT     H195135   3.611   6.964   3.619
31631WAT     H295136   3.501   6.848   3.584
31632WAT      O95137   5.495   1.232   9.006
31632WAT     H195138   5.484   1.301   8.935
31632WAT     H295139   5.586   1.191   8.998
31633WAT      O95140   1.930   4.475   4.654
31633WAT     H195141   1.973   4.405   4.598
31633WAT     H295142   1.950   4.566   4.616
31634WAT      O95143   5.339   7.344   5.860
31634WAT     H195144   5.326   7.406   5.937
31634WAT     H295145   5.436   7.340   5.836
31635WAT      O95146   6.987   8.775   5.901
31635WAT     H195147   7.040   8.820   5.973
31635WAT     H295148   6.938   8.845   5.848
31636WAT      O95149   2.459   4.737   3.581
31636WAT     H195150   2.440   4.814   3.520
31636WAT     H295151   2.417   4.754   3.670
31637WAT      O95152   4.104   4.194   2.991
31637WAT     H195153   4.071   4.139   3.068
31637WAT     H295154   4.161   4.138   2.931
31638WAT      O95155   4.412   2.293   4.941
31638WAT     H195156   4.328   2.241   4.958
31638WAT     H295157   4.485   2.230   4.918
31639WAT      O95158   5.754   3.342   3.401
31639WAT     H195159   5.690   3.414   3.376
31639WAT     H295160   5.788   3.358   3.494
31640WAT      O95161   5.255   1.423   9.027
31640WAT     H195162   5.327   1.445   9.093
31640WAT     H295163   5.175   1.480   9.046
31641WAT      O95164   3.752   4.473   2.152
31641WAT     H195165   3.724   4.410   2.079
31641WAT     H295166   3.779   4.560   2.113
31642WAT      O95167   5.841   7.001   2.465
31642WAT     H195168   5.754   6.973   2.424
31642WAT     H295169   5.829   7.086   2.516
31643WAT      O95170   6.042   7.796   3.843
31643WAT     H195171   6.002   7.824   3.931
31643WAT     H295172   6.125   7.743   3.860
31644WAT      O95173   9.522   9.545   0.310
31644WAT     H195174   9.519   9.602   0.228
31644WAT     H295175   9.466   9.463   0.296
31645WAT      O95176   5.378   5.646   2.646
31645WAT     H195177   5.461   5.592   2.632
31645WAT     H295178   5.390   5.705   2.726
31646WAT      O95179   4.367   7.084   3.214
31646WAT     H195180   4.380   7.138   3.297
31646WAT     H295181   4.453   7.038   3.190
31647WAT      O95182   1.471   8.849   5.843
31647WAT     H195183   1.543   8.780   5.854
31647WAT     H295184   1.477   8.889   5.752
31648WAT      O95185   0.309   3.595   7.611
31648WAT     H195186   0.268   3.551   7.690
31648WAT     H295187   0.312   3.694   7.625
31649WAT      O95188   5.907   0.113   8.504
31649WAT     H195189   5.924   0.143   8.410
31649WAT     H295190   5.859   0.025   8.503
31650WAT      O95191   3.966   3.058   8.998
31650WAT     H195192   4.050   3.006   9.011
31650WAT     H295193   3.893   3.019   9.055
31651WAT      O95194   3.925   0.776   3.226
31651WAT     H195195   4.013   0.812   3.195
31651WAT     H295196   3.854   0.799   3.159
31652WAT      O95197   8.136   3.257   7.591
31652WAT     H195198   8.076   3.177   7.589
31652WAT     H295199   8.109   3.317   7.666
31653WAT      O95200   1.690   2.843   1.355
31653WAT     H195201   1.681   2.752   1.314
31653WAT     H295202   1.730   2.906   1.289
31654WAT      O95203   5.257   8.797   8.165
31654WAT     H195204   5.251   8.719   8.103
31654WAT     H295205   5.180   8.797   8.228
31655WAT      O95206   9.094   1.157   5.335
31655WAT     H195207   9.160   1.131   5.406
31655WAT     H295208   9.034   1.228   5.371
31656WAT      O95209   8.846   9.125   1.582
31656WAT     H195210   8.801   9.044   1.547
31656WAT     H295211   8.897   9.170   1.508
31657WAT      O95212   2.161   1.161   2.952
31657WAT     H195213   2.160   1.062   2.958
31657WAT     H295214   2.254   1.195   2.969
31658WAT      O95215   0.460   9.556   2.020
31658WAT     H195216   0.436   9.504   1.937
31658WAT     H295217   0.402   9.636   2.027
31659WAT      O95218   8.540   0.013   2.998
31659WAT     H195219   8.564   0.089   2.938
31659WAT     H295220   8.621  -0.015   3.050
31660WAT      O95221   0.223   2.481   7.538
31660WAT     H195222   0.209   2.572   7.575
31660WAT     H295223   0.154   2.419   7.575
31661WAT      O95224   7.132   0.507   6.954
31661WAT     H195225   7.116   0.591   6.902
31661WAT     H295226   7.230   0.497   6.972
31662WAT      O95227   4.374   4.852   4.524
31662WAT     H195228   4.372   4.759   4.560
31662WAT     H295229   4.456   4.899   4.558
31663WAT      O95230   9.170   3.382   9.456
31663WAT     H195231   9.100   3.447   9.487
31663WAT     H295232   9.260   3.422   9.469
31664WAT      O95233   7.960   1.549   7.558
31664WAT     H195234   7.900   1.596   7.624
31664WAT     H295235   8.054   1.552   7.590
31665WAT      O95236   0.189   8.061   4.811
31665WAT     H195237   0.237   8.019   4.888
31665WAT     H295238   0.228   8.151   4.792
31666WAT      O95239   5.842   6.640   2.415
31666WAT     H195240   5.814   6.544   2.427
31666WAT     H295241   5.776   6.686   2.354
31667WAT      O95242   7.475   3.599   5.092
31667WAT     H195243   7.553   3.616   5.153
31667WAT     H295244   7.474   3.502   5.067
31668WAT      O95245   4.232   7.199   4.945
31668WAT     H195246   4.248   7.298   4.949
31668WAT     H295247   4.320   7.151   4.941
31669WAT      O95248   3.503   3.609   1.397
31669WAT     H195249   3.584   3.665   1.384
31669WAT     H295250   3.470   3.620   1.491
31670WAT      O95251   2.607   0.317   4.779
31670WAT     H195252   2.675   0.244   4.790
31670WAT     H295253   2.516   0.276   4.766
31671WAT      O95254   1.119   3.393   7.796
31671WAT     H195255   1.170   3.340   7.864
31671WAT     H295256   1.159   3.378   7.705
31672WAT      O95257   0.911   6.212   3.442
31672WAT     H195258   0.891   6.300   3.399
31672WAT     H295259   1.005   6.186   3.424
31673WAT      O95260   9.579   6.990   0.953
31673WAT     H195261   9.536   6.973   1.042
31673WAT     H295262   9.524   7.054   0.901
31674WAT      O95263   5.183   1.747   6.264
31674WAT     H195264   5.180   1.779   6.359
31674WAT     H295265   5.264   1.785   6.219
31675WAT      O95266   3.598   3.395   7.972
31675WAT     H195267   3.660   3.454   8.023
31675WAT     H295268   3.528   3.450   7.927
31676WAT      O95269   1.312   2.561   3.489
31676WAT     H195270   1.315   2.496   3.413
31676WAT     H295271   1.244   2.632   3.469
31677WAT      O95272   4.000   7.598   7.686
31677WAT     H195273   4.068   7.568   7.619
31677WAT     H295274   3.961   7.518   7.732
31678WAT      O95275   7.740   4.860   5.870
31678WAT     H195276   7.724   4.820   5.960
31678WAT     H295277   7.839   4.865   5.853
31679WAT      O95278   9.732   1.406   1.143
31679WAT     H195279   9.740   1.339   1.217
31679WAT     H295280   9.657   1.468   1.163
31680WAT      O95281   5.606   2.326   0.966
31680WAT     H195282   5.696   2.362   0.942
31680WAT     H295283   5.593   2.330   1.065
31681WAT      O95284   5.299   4.880   8.957
31681WAT     H195285   5.333   4.910   9.046
31681WAT     H295286   5.339   4.937   8.885
31682WAT      O95287   1.912   6.086   2.186
31682WAT     H195288   1.950   6.125   2.102
31682WAT     H295289   1.828   6.135   2.209
31683WAT      O95290   5.151   3.115   1.096
31683WAT     H195291   5.122   3.023   1.121
31683WAT     H295292   5.071   3.176   1.097
31684WAT      O95293   7.098   8.736   4.636
31684WAT     H195294   7.188   8.727   4.677
31684WAT     H295295   7.108   8.760   4.540
31685WAT      O95296   4.048   3.331   4.426
31685WAT     H195297   4.019   3.308   4.333
31685WAT     H295298   4.137   3.377   4.423
31686WAT      O95299   8.683   3.115   9.599
31686WAT     H195300   8.763   3.156   9.643
31686WAT     H295301   8.669   3.023   9.636
31687WAT      O95302   8.073   6.402   7.581
31687WAT     H195303   7.994   6.350   7.613
31687WAT     H295304   8.157   6.358   7.612
31688WAT      O95305   1.007   0.979   1.112
31688WAT     H195306   0.983   0.954   1.206
31688WAT     H295307   1.105   0.967   1.098
31689WAT      O95308   4.851   3.826   2.244
31689WAT     H195309   4.936   3.846   2.292
31689WAT     H295310   4.859   3.738   2.197
31690WAT      O95311   3.048   1.322   3.807
31690WAT     H195312   3.102   1.392   3.760
31690WAT     H295313   2.952   1.328   3.778
31691WAT      O95314   8.708   1.894   0.540
31691WAT     H195315   8.627   1.950   0.556
31691WAT     H295316   8.732   1.896   0.443
31692WAT      O95317   4.503   1.442   5.590
31692WAT     H195318   4.414   1.477   5.619
31692WAT     H295319   4.558   1.418   5.670
31693WAT      O95320   1.326   7.831   5.630
31693WAT     H195321   1.275   7.876   5.704
31693WAT     H295322   1.415   7.876   5.620
31694WAT      O95323   2.119   8.393   8.338
31694WAT     H195324   2.189   8.403   8.409
31694WAT     H295325   2.104   8.296   8.320
31695WAT      O95326   2.578   4.725   8.922
31695WAT     H195327   2.577   4.627   8.906
31695WAT     H295328   2.606   4.773   8.838
31696WAT      O95329   8.695   1.342   4.277
31696WAT     H195330   8.637   1.421   4.257
31696WAT     H295331   8.791   1.372   4.279
31697WAT      O95332   9.017   4.150   4.420
31697WAT     H195333   8.937   4.200   4.453
31697WAT     H295334   8.986   4.066   4.374
31698WAT      O95335   4.834   3.262   4.193
31698WAT     H195336   4.886   3.222   4.117
31698WAT     H295337   4.805   3.189   4.254
31699WAT      O95338   7.426   1.345   5.835
31699WAT     H195339   7.437   1.272   5.904
31699WAT     H295340   7.514   1.388   5.819
31700WAT      O95341   4.164   6.582   6.772
31700WAT     H195342   4.119   6.672   6.780
31700WAT     H295343   4.129   6.521   6.843
31701WAT      O95344   5.193   4.873   7.451
31701WAT     H195345   5.131   4.843   7.379
31701WAT     H295346   5.153   4.950   7.500
31702WAT      O95347   8.080   2.647   0.437
31702WAT     H195348   8.044   2.633   0.345
31702WAT     H295349   8.011   2.622   0.505
31703WAT      O95350   0.886   3.672   1.765
31703WAT     H195351   0.916   3.585   1.805
31703WAT     H295352   0.953   3.702   1.697
31704WAT      O95353   5.907   8.220   2.435
31704WAT     H195354   5.898   8.227   2.534
31704WAT     H295355   5.855   8.294   2.392
31705WAT      O95356   0.141   3.811   5.462
31705WAT     H195357   0.131   3.719   5.499
31705WAT     H295358   0.063   3.833   5.404
31706WAT      O95359   0.906   7.843   4.350
31706WAT     H195360   0.955   7.868   4.267
31706WAT     H295361   0.826   7.789   4.326
31707WAT      O95362   6.608   3.650   6.757
31707WAT     H195363   6.600   3.568   6.813
31707WAT     H295364   6.703   3.683   6.759
31708WAT      O95365   5.532   7.741   1.373
31708WAT     H195366   5.574   7.825   1.338
31708WAT     H295367   5.489   7.760   1.461
31709WAT      O95368   9.223   6.750   0.339
31709WAT     H195369   9.146   6.745   0.402
31709WAT     H295370   9.306   6.774   0.389
31710WAT      O95371   8.860   4.774   4.614
31710WAT     H195372   8.904   4.816   4.693
31710WAT     H295373   8.795   4.838   4.574
31711WAT      O95374   4.932   0.921   1.876
31711WAT     H195375   4.988   0.904   1.795
31711WAT     H295376   4.959   1.007   1.918
31712WAT      O95377   2.653   8.802   2.912
31712WAT     H195378   2.751   8.795   2.932
31712WAT     H295379   2.603   8.816   2.997
31713WAT      O95380   4.785   8.254   2.184
31713WAT     H195381   4.780   8.294   2.093
31713WAT     H295382   4.771   8.155   2.178
31714WAT      O95383   2.225   3.045   7.416
31714WAT     H195384   2.278   2.980   7.362
31714WAT     H295385   2.127   3.030   7.399
31715WAT      O95386   0.100   7.627   3.393
31715WAT     H195387   0.172   7.689   3.422
31715WAT     H295388   0.019   7.640   3.451
31716WAT      O95389   9.286   1.537   9.501
31716WAT     H195390   9.385   1.545   9.513
31716WAT     H295391   9.255   1.449   9.537
31717WAT      O95392   3.906   7.089   7.221
31717WAT     H195393   3.875   7.063   7.129
31717WAT     H295394   3.947   7.180   7.218
31718WAT      O95395   0.472   5.304   0.115
31718WAT     H195396   0.419   5.251   0.181
31718WAT     H295397   0.467   5.401   0.138
31719WAT      O95398   0.068   4.726   7.485
31719WAT     H195399   0.131   4.761   7.417
31719WAT     H295400   0.011   4.654   7.445
31720WAT      O95401   1.596   1.241   1.400
31720WAT     H195402   1.510   1.191   1.409
31720WAT     H295403   1.631   1.230   1.307
31721WAT      O95404   4.833   0.658   5.884
31721WAT     H195405   4.793   0.697   5.968
31721WAT     H295406   4.777   0.685   5.805
31722WAT      O95407   0.178   4.161   2.070
31722WAT     H195408   0.225   4.095   2.012
31722WAT     H295409   0.245   4.219   2.115
31723WAT      O95410   6.235   2.166   9.372
31723WAT     H195411   6.295   2.136   9.446
31723WAT     H295412   6.290   2.204   9.298
31724WAT      O95413   8.460   6.355   5.933
31724WAT     H195414   8.497   6.353   6.026
31724WAT     H295415   8.360   6.360   5.938
31725WAT      O95416   9.454   0.585   1.214
31725WAT     H195417   9.474   0.678   1.245
31725WAT     H295418   9.524   0.522   1.249
31726WAT      O95419   6.457   7.793   0.223
31726WAT     H195420   6.481   7.698   0.244
31726WAT     H295421   6.464   7.848   0.307
31727WAT      O95422   9.725   5.247   1.176
31727WAT     H195423   9.696   5.342   1.187
31727WAT     H295424   9.821   5.238   1.203
31728WAT      O95425   6.173   3.334   8.059
31728WAT     H195426   6.239   3.288   8.118
31728WAT     H295427   6.219   3.404   8.005
31729WAT      O95428   5.841   8.208   4.639
31729WAT     H195429   5.887   8.297   4.651
31729WAT     H295430   5.893   8.137   4.687
31730WAT      O95431   1.774   4.099   7.172
31730WAT     H195432   1.752   4.158   7.249
31730WAT     H295433   1.693   4.048   7.144
31731WAT      O95434   9.530   9.622   6.547
31731WAT     H195435   9.522   9.598   6.450
31731WAT     H295436   9.499   9.545   6.603
31732WAT      O95437   9.588   0.894   8.572
31732WAT     H195438   9.552   0.822   8.630
31732WAT     H295439   9.538   0.979   8.588
31733WAT      O95440   9.713   9.570   4.556
31733WAT     H195441   9.778   9.646   4.564
31733WAT     H295442   9.762   9.486   4.533
31734WAT      O95443   3.065   6.089   5.180
31734WAT     H195444   3.050   6.001   5.134
31734WAT     H295445   3.136   6.078   5.250
31735WAT      O95446   5.577   5.645   7.123
31735WAT     H195447   5.617   5.728   7.084
31735WAT     H295448   5.490   5.626   7.078
31736WAT      O95449   1.341   0.317   3.347
31736WAT     H195450   1.283   0.398   3.358
31736WAT     H295451   1.297   0.239   3.391
31737WAT      O95452   8.040   6.514   1.496
31737WAT     H195453   8.092   6.447   1.549
31737WAT     H295454   8.073   6.514   1.401
31738WAT      O95455   1.716   9.473   7.342
31738WAT     H195456   1.697   9.396   7.282
31738WAT     H295457   1.697   9.447   7.436
31739WAT      O95458   1.900   9.329   2.749
31739WAT     H195459   1.974   9.341   2.815
31739WAT     H295460   1.821   9.384   2.776
31740WAT      O95461   2.793   0.260   5.858
31740WAT     H195462   2.844   0.175   5.870
31740WAT     H295463   2.754   0.288   5.946
31741WAT      O95464   8.137   8.170   2.244
31741WAT     H195465   8.084   8.093   2.279
31741WAT     H295466   8.178   8.219   2.321
31742WAT      O95467   9.369   4.444   9.214
31742WAT     H195468   9.298   4.505   9.247
31742WAT     H295469   9.331   4.353   9.199
31743WAT      O95470   9.808   5.303   8.673
31743WAT     H195471   9.865   5.375   8.714
31743WAT     H295472   9.726   5.344   8.633
31744WAT      O95473   4.437   2.637   9.163
31744WAT     H195474   4.467   2.567   9.228
31744WAT     H295475   4.340   2.624   9.142
31745WAT      O95476   0.147   7.355   7.352
31745WAT     H195477   0.106   7.407   7.277
31745WAT     H295478   0.133   7.257   7.337
31746WAT      O95479   0.025   2.074   7.611
31746WAT     H195480   0.015   2.162   7.565
31746WAT     H295481  -0.059   2.052   7.660
31747WAT      O95482   9.019   3.514   8.554
31747WAT     H195483   8.948   3.467   8.502
31747WAT     H295484   9.003   3.613   8.551
31748WAT      O95485   1.843   2.504   8.782
31748WAT     H195486   1.757   2.523   8.829
31748WAT     H295487   1.894   2.435   8.832
31749WAT      O95488   5.319   2.351   0.604
31749WAT     H195489   5.395   2.413   0.623
31749WAT     H295490   5.353   2.271   0.554
31750WAT      O95491   2.096   2.134   5.257
31750WAT     H195492   2.126   2.177   5.342
31750WAT     H295493   2.083   2.036   5.273
31751WAT      O95494   6.650   3.339   7.481
31751WAT     H195495   6.621   3.407   7.549
31751WAT     H295496   6.748   3.350   7.463
31752WAT      O95497   1.063   8.966   3.514
31752WAT     H195498   1.036   9.030   3.442
31752WAT     H295499   1.153   8.991   3.549
31753WAT      O95500   4.984   0.986   0.838
31753WAT     H195501   5.082   0.964   0.846
31753WAT     H295502   4.944   0.990   0.929
31754WAT      O95503   0.811   0.433   9.260
31754WAT     H195504   0.902   0.412   9.223
31754WAT     H295505   0.814   0.519   9.311
31755WAT      O95506   9.455   0.690   9.669
31755WAT     H195507   9.548   0.670   9.638
31755WAT     H295508   9.392   0.682   9.592
31756WAT      O95509   7.236   7.625   5.102
31756WAT     H195510   7.201   7.543   5.146
31756WAT     H295511   7.334   7.635   5.122
31757WAT      O95512   5.420   1.341   5.246
31757WAT     H195513   5.321   1.335   5.247
31757WAT     H295514   5.452   1.381   5.331
31758WAT      O95515   5.266   0.928   5.585
31758WAT     H195516   5.188   0.929   5.647
31758WAT     H295517   5.235   0.950   5.492
31759WAT      O95518   3.010   7.591   9.448
31759WAT     H195519   2.980   7.528   9.520
31759WAT     H295520   3.087   7.645   9.481
31760WAT      O95521   4.999   4.274   9.553
31760WAT     H195522   5.027   4.217   9.476
31760WAT     H295523   5.062   4.352   9.561
31761WAT      O95524   4.649   8.723   3.658
31761WAT     H195525   4.666   8.691   3.751
31761WAT     H295526   4.551   8.732   3.643
31762WAT      O95527   2.231   7.747   9.159
31762WAT     H195528   2.263   7.751   9.253
31762WAT     H295529   2.308   7.762   9.096
31763WAT      O95530   1.403   7.986   8.998
31763WAT     H195531   1.489   7.936   9.001
31763WAT     H295532   1.368   7.987   8.904
31764WAT      O95533   3.911   2.872   4.851
31764WAT     H195534   3.841   2.891   4.783
31764WAT     H295535   3.873   2.885   4.943
31765WAT      O95536   9.514   9.128   5.203
31765WAT     H195537   9.425   9.153   5.166
31765WAT     H295538   9.583   9.194   5.173
31766WAT      O95539   6.529   6.783   0.436
31766WAT     H195540   6.592   6.852   0.471
31766WAT     H295541   6.529   6.785   0.337
31767WAT      O95542   3.698   8.345   1.918
31767WAT     H195543   3.645   8.423   1.884
31767WAT     H295544   3.655   8.260   1.887
31768WAT      O95545   4.912   0.226   6.066
31768WAT     H195546   4.914   0.318   6.105
31768WAT     H295547   4.911   0.233   5.966
31769WAT      O95548   9.456   9.046   7.390
31769WAT     H195549   9.520   9.123   7.393
31769WAT     H295550   9.413   9.036   7.480
31770WAT      O95551   2.644   7.215   6.744
31770WAT     H195552   2.740   7.191   6.730
31770WAT     H295553   2.588   7.132   6.739
31771WAT      O95554   2.109   3.637   4.366
31771WAT     H195555   2.205   3.614   4.351
31771WAT     H295556   2.074   3.689   4.288
31772WAT      O95557   4.674   0.345   5.552
31772WAT     H195558   4.612   0.320   5.627
31772WAT     H295559   4.688   0.444   5.552
31773WAT      O95560   8.940   2.813   9.459
31773WAT     H195561   8.958   2.728   9.411
31773WAT     H295562   8.930   2.888   9.393
31774WAT      O95563   8.571   6.162   5.192
31774WAT     H195564   8.646   6.098   5.210
31774WAT     H295565   8.579   6.196   5.098
31775WAT      O95566   9.426   9.673   1.692
31775WAT     H195567   9.332   9.685   1.727
31775WAT     H295568   9.489   9.668   1.769
31776WAT      O95569   7.064   7.045   0.307
31776WAT     H195570   7.022   7.133   0.284
31776WAT     H295571   7.161   7.059   0.329
31777WAT      O95572   0.964   2.064   3.770
31777WAT     H195573   1.032   2.100   3.835
31777WAT     H295574   1.011   2.012   3.699
31778WAT      O95575   7.199   8.860   2.992
31778WAT     H195576   7.298   8.876   3.003
31778WAT     H295577   7.149   8.933   3.037
31779WAT      O95578   9.362   2.239   5.209
31779WAT     H195579   9.333   2.297   5.133
31779WAT     H295580   9.406   2.157   5.173
31780WAT      O95581   8.782   8.958   6.010
31780WAT     H195582   8.782   8.858   6.017
31780WAT     H295583   8.698   8.988   5.966
31781WAT      O95584   2.916   1.956   9.609
31781WAT     H195585   2.818   1.948   9.595
31781WAT     H295586   2.938   1.947   9.706
31782WAT      O95587   4.465   2.273   3.832
31782WAT     H195588   4.373   2.273   3.794
31782WAT     H295589   4.463   2.310   3.925
31783WAT      O95590   9.383   3.895   5.413
31783WAT     H195591   9.363   3.992   5.400
31783WAT     H295592   9.298   3.842   5.409
31784WAT      O95593   4.140   1.939   7.022
31784WAT     H195594   4.196   2.011   6.980
31784WAT     H295595   4.058   1.980   7.062
31785WAT      O95596   3.195   2.358   6.462
31785WAT     H195597   3.248   2.359   6.547
31785WAT     H295598   3.170   2.452   6.436
31786WAT      O95599   8.838   4.375   5.974
31786WAT     H195600   8.787   4.450   5.931
31786WAT     H295601   8.868   4.311   5.903
31787WAT      O95602   5.546   7.604   8.884
31787WAT     H195603   5.551   7.676   8.954
31787WAT     H295604   5.639   7.579   8.856
31788WAT      O95605   6.820   5.383   2.712
31788WAT     H195606   6.894   5.322   2.685
31788WAT     H295607   6.733   5.335   2.707
31789WAT      O95608   4.891   3.518   6.492
31789WAT     H195609   4.990   3.519   6.506
31789WAT     H295610   4.871   3.489   6.398
31790WAT      O95611   2.666   4.972   1.822
31790WAT     H195612   2.640   4.995   1.729
31790WAT     H295613   2.766   4.976   1.831
31791WAT      O95614   8.709   7.858   2.502
31791WAT     H195615   8.809   7.862   2.492
31791WAT     H295616   8.674   7.777   2.457
31792WAT      O95617   2.583   9.418   4.803
31792WAT     H195618   2.534   9.388   4.885
31792WAT     H295619   2.588   9.518   4.803
31793WAT      O95620   5.062   4.518   1.644
31793WAT     H195621   4.990   4.570   1.600
31793WAT     H295622   5.150   4.565   1.631
31794WAT      O95623   9.648   8.735   8.269
31794WAT     H195624   9.576   8.782   8.320
31794WAT     H295625   9.613   8.647   8.236
31795WAT      O95626   5.547   8.443   5.765
31795WAT     H195627   5.484   8.466   5.691
31795WAT     H295628   5.499   8.450   5.853
31796WAT      O95629   1.186   2.827   9.616
31796WAT     H195630   1.252   2.862   9.550
31796WAT     H295631   1.109   2.891   9.624
31797WAT      O95632   6.014   2.977   2.731
31797WAT     H195633   6.041   3.023   2.816
31797WAT     H295634   6.004   3.045   2.658
31798WAT      O95635   9.205   8.286   8.895
31798WAT     H195636   9.278   8.314   8.957
31798WAT     H295637   9.241   8.280   8.801
31799WAT      O95638   5.657   4.494   7.551
31799WAT     H195639   5.718   4.429   7.506
31799WAT     H295640   5.648   4.470   7.648
31800WAT      O95641   3.876   8.697   0.228
31800WAT     H195642   3.845   8.788   0.255
31800WAT     H295643   3.976   8.694   0.227
31801WAT      O95644   0.186   1.499   2.158
31801WAT     H195645   0.183   1.436   2.081
31801WAT     H295646   0.274   1.490   2.205
31802WAT      O95647   3.427   5.473   6.380
31802WAT     H195648   3.380   5.533   6.315
31802WAT     H295649   3.390   5.487   6.471
31803WAT      O95650   3.251   7.338   8.366
31803WAT     H195651   3.328   7.294   8.413
31803WAT     H295652   3.259   7.438   8.377
31804WAT      O95653   1.994   8.008   7.041
31804WAT     H195654   1.915   8.068   7.055
31804WAT     H295655   2.063   8.026   7.111
31805WAT      O95656   2.106   2.633   9.851
31805WAT     H195657   2.160   2.614   9.933
31805WAT     H295658   2.022   2.578   9.853
31806WAT      O95659   9.294   0.678   1.562
31806WAT     H195660   9.360   0.730   1.509
31806WAT     H295661   9.297   0.581   1.535
31807WAT      O95662   0.507   0.334   8.964
31807WAT     H195663   0.529   0.353   9.060
31807WAT     H295664   0.408   0.335   8.951
31808WAT      O95665   7.434   3.501   5.858
31808WAT     H195666   7.515   3.521   5.912
31808WAT     H295667   7.450   3.524   5.763
31809WAT      O95668   1.129   5.085   1.523
31809WAT     H195669   1.193   5.157   1.495
31809WAT     H295670   1.116   5.090   1.622
31810WAT      O95671   2.757   1.610   9.394
31810WAT     H195672   2.697   1.601   9.315
31810WAT     H295673   2.773   1.521   9.435
31811WAT      O95674   4.774   3.577   7.538
31811WAT     H195675   4.788   3.487   7.580
31811WAT     H295676   4.809   3.576   7.444
31812WAT      O95677   6.273   9.833   0.326
31812WAT     H195678   6.180   9.861   0.303
31812WAT     H295679   6.278   9.808   0.423
31813WAT      O95680   5.351   8.646   4.758
31813WAT     H195681   5.337   8.616   4.664
31813WAT     H295682   5.269   8.695   4.790
31814WAT      O95683   6.223   4.545   7.261
31814WAT     H195684   6.142   4.561   7.316
31814WAT     H295685   6.234   4.621   7.196
31815WAT      O95686   3.609   1.936   1.622
31815WAT     H195687   3.580   2.017   1.570
31815WAT     H295688   3.535   1.869   1.621
31816WAT      O95689   1.681   8.679   5.647
31816WAT     H195690   1.605   8.626   5.684
31816WAT     H295691   1.648   8.769   5.617
31817WAT      O95692   9.173   8.194   0.767
31817WAT     H195693   9.249   8.258   0.777
31817WAT     H295694   9.153   8.152   0.855
31818WAT      O95695   7.148   0.766   0.844
31818WAT     H195696   7.086   0.781   0.766
31818WAT     H295697   7.161   0.852   0.893
31819WAT      O95698   4.776   0.796   2.473
31819WAT     H195699   4.810   0.876   2.523
31819WAT     H295700   4.854   0.742   2.440
31820WAT      O95701   7.508   0.273   9.446
31820WAT     H195702   7.498   0.370   9.422
31820WAT     H295703   7.550   0.224   9.370
31821WAT      O95704   0.025   9.038   0.563
31821WAT     H195705   0.085   8.958   0.554
31821WAT     H295706  -0.012   9.062   0.473
31822WAT      O95707   9.582   3.144   8.815
31822WAT     H195708   9.520   3.220   8.833
31822WAT     H295709   9.550   3.063   8.863
31823WAT      O95710   9.424   0.911   3.471
31823WAT     H195711   9.351   0.886   3.408
31823WAT     H295712   9.511   0.877   3.436
31824WAT      O95713   1.834   8.679   2.062
31824WAT     H195714   1.861   8.605   2.000
31824WAT     H295715   1.780   8.746   2.011
31825WAT      O95716   6.635   1.474   6.200
31825WAT     H195717   6.635   1.374   6.207
31825WAT     H295718   6.604   1.500   6.109
31826WAT      O95719   9.388   2.990   4.161
31826WAT     H195720   9.418   3.079   4.196
31826WAT     H295721   9.288   2.985   4.162
31827WAT      O95722   6.222   0.095   4.015
31827WAT     H195723   6.288   0.029   4.051
31827WAT     H295724   6.131   0.075   4.052
31828WAT      O95725   2.642   3.350   4.877
31828WAT     H195726   2.733   3.309   4.880
31828WAT     H295727   2.598   3.340   4.966
31829WAT      O95728   3.788   4.354   1.547
31829WAT     H195729   3.797   4.437   1.602
31829WAT     H295730   3.704   4.359   1.493
31830WAT      O95731   4.244   5.471   9.495
31830WAT     H195732   4.273   5.517   9.411
31830WAT     H295733   4.144   5.464   9.495
31831WAT      O95734   3.109   0.825   0.474
31831WAT     H195735   3.152   0.831   0.564
31831WAT     H295736   3.175   0.789   0.408
31832WAT      O95737   8.556   0.094   5.962
31832WAT     H195738   8.530   0.185   5.995
31832WAT     H295739   8.606   0.045   6.033
31833WAT      O95740   4.377   4.398   1.787
31833WAT     H195741   4.419   4.359   1.869
31833WAT     H295742   4.448   4.430   1.724
31834WAT      O95743   8.687   0.795   3.398
31834WAT     H195744   8.759   0.745   3.446
31834WAT     H295745   8.623   0.730   3.356
31835WAT      O95746   8.483   3.044   9.443
31835WAT     H195747   8.386   3.029   9.459
31835WAT     H295748   8.524   3.088   9.524
31836WAT      O95749   7.395   4.472   0.238
31836WAT     H195750   7.490   4.501   0.228
31836WAT     H295751   7.370   4.414   0.160
31837WAT      O95752   0.631   8.959   9.145
31837WAT     H195753   0.630   8.945   9.244
31837WAT     H295754   0.688   8.889   9.102
31838WAT      O95755   6.137   7.756   5.601
31838WAT     H195756   6.121   7.780   5.505
31838WAT     H295757   6.225   7.710   5.610
31839WAT      O95758   6.792   3.140   4.011
31839WAT     H195759   6.706   3.125   3.962
31839WAT     H295760   6.865   3.156   3.944
31840WAT      O95761   9.818   7.933   1.135
31840WAT     H195762   9.883   7.858   1.119
31840WAT     H295763   9.744   7.928   1.068
31841WAT      O95764   3.331   5.792   5.874
31841WAT     H195765   3.293   5.811   5.783
31841WAT     H295766   3.305   5.700   5.903
31842WAT      O95767   1.155   4.237   6.903
31842WAT     H195768   1.220   4.296   6.951
31842WAT     H295769   1.206   4.170   6.848
31843WAT      O95770   1.146   6.577   6.685
31843WAT     H195771   1.239   6.609   6.706
31843WAT     H295772   1.089   6.655   6.659
31844WAT      O95773   6.227   4.442   1.053
31844WAT     H195774   6.286   4.475   1.127
31844WAT     H295775   6.246   4.346   1.035
31845WAT      O95776   4.630   7.850   3.198
31845WAT     H195777   4.540   7.828   3.234
31845WAT     H295778   4.625   7.864   3.099
31846WAT      O95779   0.950   2.235   1.923
31846WAT     H195780   0.852   2.250   1.910
31846WAT     H295781   0.968   2.204   2.016
31847WAT      O95782   5.809   0.192   5.914
31847WAT     H195783   5.869   0.112   5.920
31847WAT     H295784   5.828   0.254   5.990
31848WAT      O95785   8.841   7.114   2.254
31848WAT     H195786   8.757   7.150   2.215
31848WAT     H295787   8.887   7.056   2.187
31849WAT      O95788   3.171   2.855   6.070
31849WAT     H195789   3.208   2.765   6.048
31849WAT     H295790   3.126   2.893   5.989
31850WAT      O95791   3.962   1.999   3.934
31850WAT     H195792   3.913   1.943   3.867
31850WAT     H295793   3.948   1.962   4.025
31851WAT      O95794   1.375   4.685   0.810
31851WAT     H195795   1.378   4.765   0.750
31851WAT     H295796   1.282   4.650   0.815
31852WAT      O95797   4.556   6.394   6.274
31852WAT     H195798   4.485   6.341   6.319
31852WAT     H295799   4.514   6.461   6.212
31853WAT      O95800   7.153   6.603   6.717
31853WAT     H195801   7.193   6.690   6.747
31853WAT     H295802   7.149   6.540   6.795
31854WAT      O95803   7.440   7.258   8.669
31854WAT     H195804   7.492   7.342   8.654
31854WAT     H295805   7.406   7.257   8.763
31855WAT      O95806   8.712   7.374   6.909
31855WAT     H195807   8.748   7.382   6.816
31855WAT     H295808   8.670   7.460   6.937
31856WAT      O95809   0.415   6.939   5.237
31856WAT     H195810   0.370   7.027   5.252
31856WAT     H295811   0.417   6.919   5.139
31857WAT      O95812   5.445   1.647   8.732
31857WAT     H195813   5.465   1.639   8.634
31857WAT     H295814   5.350   1.675   8.745
31858WAT      O95815   6.238   2.650   0.914
31858WAT     H195816   6.228   2.550   0.918
31858WAT     H295817   6.312   2.678   0.974
31859WAT      O95818   7.644   3.485   0.126
31859WAT     H195819   7.582   3.551   0.169
31859WAT     H295820   7.699   3.532   0.056
31860WAT      O95821   1.372   5.162   1.805
31860WAT     H195822   1.350   5.260   1.804
31860WAT     H295823   1.287   5.109   1.804
31861WAT      O95824   0.107   3.379   1.342
31861WAT     H195825   0.066   3.308   1.401
31861WAT     H295826   0.133   3.338   1.255
31862WAT      O95827   7.453   8.888   5.845
31862WAT     H195828   7.551   8.882   5.868
31862WAT     H295829   7.404   8.813   5.890
31863WAT      O95830   5.338   3.759   8.581
31863WAT     H195831   5.348   3.659   8.576
31863WAT     H295832   5.318   3.785   8.675
31864WAT      O95833   2.770   7.818   2.078
31864WAT     H195834   2.784   7.750   2.150
31864WAT     H295835   2.857   7.839   2.035
31865WAT      O95836   4.441   1.801   8.795
31865WAT     H195837   4.506   1.794   8.719
31865WAT     H295838   4.491   1.829   8.878
31866WAT      O95839   4.208   9.451   4.838
31866WAT     H195840   4.279   9.383   4.857
31866WAT     H295841   4.250   9.537   4.809
31867WAT      O95842   0.003   5.674   4.715
31867WAT     H195843   0.057   5.725   4.649
31867WAT     H295844   0.032   5.578   4.715
31868WAT      O95845   1.908   9.592   2.975
31868WAT     H195846   1.843   9.657   3.015
31868WAT     H295847   1.925   9.518   3.039
31869WAT      O95848   8.585   0.966   0.485
31869WAT     H195849   8.607   0.878   0.444
31869WAT     H295850   8.522   1.016   0.426
31870WAT      O95851   0.649   2.863   7.383
31870WAT     H195852   0.737   2.898   7.413
31870WAT     H295853   0.657   2.765   7.364
31871WAT      O95854   1.816   2.030   5.413
31871WAT     H195855   1.726   2.018   5.370
31871WAT     H295856   1.851   1.941   5.443
31872WAT      O95857   2.289   8.225   5.749
31872WAT     H195858   2.383   8.204   5.776
31872WAT     H295859   2.275   8.324   5.750
31873WAT      O95860   2.067   1.606   4.446
31873WAT     H195861   2.097   1.702   4.449
31873WAT     H295862   1.978   1.598   4.489
31874WAT      O95863   6.831   9.348   9.032
31874WAT     H195864   6.732   9.353   9.046
31874WAT     H295865   6.865   9.260   9.064
31875WAT      O95866   8.957   4.239   9.074
31875WAT     H195867   9.052   4.226   9.100
31875WAT     H295868   8.947   4.225   8.975
31876WAT      O95869   0.179   3.689   0.011
31876WAT     H195870   0.207   3.594  -0.005
31876WAT     H295871   0.172   3.705   0.109
31877WAT      O95872   0.639   8.324   1.216
31877WAT     H195873   0.717   8.310   1.155
31877WAT     H295874   0.664   8.296   1.309
31878WAT      O95875   8.936   5.532   9.743
31878WAT     H195876   8.841   5.521   9.712
31878WAT     H295877   8.937   5.541   9.843
31879WAT      O95878   5.950   6.217   2.873
31879WAT     H195879   5.963   6.315   2.887
31879WAT     H295880   5.947   6.197   2.775
31880WAT      O95881   7.492   1.716   7.653
31880WAT     H195882   7.511   1.712   7.555
31880WAT     H295883   7.524   1.803   7.690
31881WAT      O95884   4.518   1.379   1.702
31881WAT     H195885   4.425   1.389   1.739
31881WAT     H295886   4.558   1.294   1.735
31882WAT      O95887   7.474   4.453   6.283
31882WAT     H195888   7.495   4.412   6.194
31882WAT     H295889   7.517   4.542   6.290
31883WAT      O95890   5.622   2.448   9.718
31883WAT     H195891   5.631   2.526   9.781
31883WAT     H295892   5.567   2.475   9.639
31884WAT      O95893   6.505   5.826   6.399
31884WAT     H195894   6.431   5.893   6.393
31884WAT     H295895   6.513   5.778   6.312
31885WAT      O95896   0.548   0.383   9.239
31885WAT     H195897   0.647   0.388   9.255
31885WAT     H295898   0.500   0.432   9.312
31886WAT      O95899   4.235   6.497   2.082
31886WAT     H195900   4.149   6.511   2.131
31886WAT     H295901   4.306   6.469   2.147
31887WAT      O95902   2.711   0.580   6.171
31887WAT     H195903   2.648   0.637   6.117
31887WAT     H295904   2.670   0.563   6.261
31888WAT      O95905   6.822   8.829   1.546
31888WAT     H195906   6.789   8.870   1.461
31888WAT     H295907   6.771   8.745   1.565
31889WAT      O95908   4.785   1.741   8.303
31889WAT     H195909   4.693   1.705   8.321
31889WAT     H295910   4.780   1.840   8.292
31890WAT      O95911   9.035   2.517   3.213
31890WAT     H195912   8.958   2.461   3.181
31890WAT     H295913   9.103   2.458   3.257
31891WAT      O95914   9.155   2.886   0.298
31891WAT     H195915   9.223   2.816   0.320
31891WAT     H295916   9.136   2.885   0.200
31892WAT      O95917   7.041   3.044   8.897
31892WAT     H195918   7.015   3.140   8.908
31892WAT     H295919   6.966   2.985   8.926
31893WAT      O95920   5.637   2.750   5.741
31893WAT     H195921   5.717   2.720   5.793
31893WAT     H295922   5.665   2.769   5.647
31894WAT      O95923   0.459   3.987   1.206
31894WAT     H195924   0.488   3.893   1.226
31894WAT     H295925   0.365   4.000   1.237
31895WAT      O95926   2.116   6.584   5.698
31895WAT     H195927   2.200   6.632   5.725
31895WAT     H295928   2.047   6.595   5.769
31896WAT      O95929   3.169   2.255   9.130
31896WAT     H195930   3.216   2.249   9.218
31896WAT     H295931   3.179   2.347   9.092
31897WAT      O95932   1.266   0.494   5.038
31897WAT     H195933   1.262   0.412   5.094
31897WAT     H295934   1.231   0.572   5.091
31898WAT      O95935   0.732   4.059   4.129
31898WAT     H195936   0.657   4.041   4.065
31898WAT     H295937   0.696   4.067   4.221
31899WAT      O95938   3.621   2.552   3.525
31899WAT     H195939   3.644   2.614   3.450
31899WAT     H295940   3.522   2.555   3.541
   9.88928    9.84380    9.89279 
