GROningen MAchine for Chemical Simulation
95940
    1G5    HO5'    1   4.946   4.144   2.232
    1G5     O5'    2   4.990   4.210   2.287
    1G5     C5'    3   5.069   4.137   2.389
    1G5     H5'    4   5.008   4.075   2.455
    1G5    H5''    5   5.110   4.215   2.452
    1G5     C4'    6   5.179   4.064   2.330
    1G5     H4'    7   5.133   3.995   2.260
    1G5     O4'    8   5.282   4.140   2.267
    1G5     C1'    9   5.400   4.057   2.259
    1G5     H1'   10   5.415   4.009   2.163
    1G5      N9   11   5.513   4.136   2.292
    1G5      C8   12   5.520   4.277   2.292
    1G5      H8   13   5.439   4.339   2.256
    1G5      N7   14   5.631   4.323   2.324
    1G5      C5   15   5.713   4.214   2.337
    1G5      C6   16   5.853   4.204   2.356
    1G5      O6   17   5.929   4.297   2.377
    1G5      N1   18   5.903   4.077   2.356
    1G5      H1   19   6.003   4.068   2.362
    1G5      C2   20   5.823   3.972   2.333
    1G5      N2   21   5.884   3.857   2.332
    1G5     H21   22   5.979   3.855   2.367
    1G5     H22   23   5.816   3.783   2.322
    1G5      N3   24   5.696   3.972   2.309
    1G5      C4   25   5.639   4.097   2.315
    1G5     C3'   26   5.263   3.995   2.444
    1G5     H3'   27   5.308   4.077   2.500
    1G5     C2'   28   5.382   3.949   2.364
    1G5     H2'   29   5.468   3.935   2.430
    1G5     O2'   30   5.341   3.823   2.308
    1G5    HO2'   31   5.291   3.776   2.376
    1G5     O3'   32   5.192   3.896   2.519
    2G        P   33   5.231   3.873   2.674
    2G      OP1   34   5.174   3.748   2.724
    2G      OP2   35   5.201   3.994   2.747
    2G      O5'   36   5.381   3.859   2.684
    2G      C5'   37   5.443   3.727   2.669
    2G      H5'   38   5.426   3.688   2.569
    2G     H5''   39   5.410   3.661   2.749
    2G      C4'   40   5.590   3.748   2.704
    2G      H4'   41   5.635   3.648   2.706
    2G      O4'   42   5.666   3.834   2.610
    2G      C1'   43   5.758   3.906   2.684
    2G      H1'   44   5.860   3.890   2.647
    2G       N9   45   5.736   4.055   2.679
    2G       C8   46   5.622   4.126   2.666
    2G       H8   47   5.527   4.080   2.645
    2G       N7   48   5.641   4.254   2.670
    2G       C5   49   5.777   4.267   2.703
    2G       C6   50   5.860   4.388   2.714
    2G       O6   51   5.822   4.510   2.718
    2G       N1   52   5.996   4.360   2.736
    2G       H1   53   6.055   4.442   2.742
    2G       C2   54   6.044   4.231   2.726
    2G       N2   55   6.173   4.214   2.766
    2G      H21   56   6.236   4.286   2.798
    2G      H22   57   6.214   4.125   2.745
    2G       N3   58   5.970   4.119   2.715
    2G       C4   59   5.835   4.149   2.703
    2G      C3'   60   5.616   3.804   2.839
    2G      H3'   61   5.551   3.891   2.848
    2G      C2'   62   5.761   3.851   2.824
    2G      H2'   63   5.788   3.925   2.899
    2G      O2'   64   5.854   3.746   2.826
    2G     HO2'   65   5.816   3.660   2.846
    2G      O3'   66   5.601   3.723   2.958
    3G        P   67   5.573   3.786   3.102
    3G      OP1   68   5.557   3.669   3.193
    3G      OP2   69   5.459   3.866   3.093
    3G      O5'   70   5.696   3.880   3.141
    3G      C5'   71   5.813   3.816   3.187
    3G      H5'   72   5.813   3.731   3.119
    3G     H5''   73   5.796   3.775   3.286
    3G      C4'   74   5.933   3.910   3.193
    3G      H4'   75   6.027   3.855   3.200
    3G      O4'   76   5.936   3.979   3.072
    3G      C1'   77   5.974   4.118   3.084
    3G      H1'   78   6.055   4.158   3.024
    3G       N9   79   5.861   4.206   3.055
    3G       C8   80   5.726   4.178   3.038
    3G       H8   81   5.691   4.076   3.032
    3G       N7   82   5.649   4.287   3.018
    3G       C5   83   5.745   4.394   3.030
    3G       C6   84   5.717   4.537   3.043
    3G       O6   85   5.603   4.595   3.039
    3G       N1   86   5.834   4.611   3.061
    3G       H1   87   5.831   4.712   3.055
    3G       C2   88   5.955   4.553   3.067
    3G       N2   89   6.058   4.634   3.058
    3G      H21   90   6.044   4.733   3.050
    3G      H22   91   6.152   4.610   3.031
    3G       N3   92   5.984   4.422   3.074
    3G       C4   93   5.871   4.346   3.057
    3G      C3'   94   5.924   4.032   3.293
    3G      H3'   95   5.820   4.064   3.300
    3G      C2'   96   6.010   4.137   3.230
    3G      H2'   97   5.990   4.235   3.272
    3G      O2'   98   6.148   4.094   3.240
    3G     HO2'   99   6.150   4.035   3.316
    3G      O3'  100   5.986   3.994   3.420
    4U        P  101   5.941   4.063   3.554
    4U      OP1  102   6.013   4.006   3.672
    4U      OP2  103   5.793   4.074   3.548
    4U      O5'  104   6.001   4.212   3.534
    4U      C5'  105   6.144   4.233   3.545
    4U      H5'  106   6.199   4.162   3.482
    4U     H5''  107   6.178   4.212   3.647
    4U      C4'  108   6.178   4.383   3.526
    4U      H4'  109   6.285   4.391   3.507
    4U      O4'  110   6.107   4.442   3.419
    4U      C1'  111   6.096   4.586   3.440
    4U      H1'  112   6.164   4.639   3.374
    4U       N1  113   5.958   4.620   3.421
    4U       C6  114   5.852   4.529   3.453
    4U       H6  115   5.862   4.438   3.511
    4U       C5  116   5.727   4.559   3.424
    4U       H5  117   5.648   4.493   3.459
    4U       C4  118   5.686   4.688   3.377
    4U       O4  119   5.569   4.721   3.349
    4U       N3  120   5.794   4.775   3.346
    4U       H3  121   5.767   4.865   3.308
    4U       C2  122   5.927   4.751   3.373
    4U       O2  123   6.012   4.835   3.342
    4U      C3'  124   6.147   4.468   3.648
    4U      H3'  125   6.046   4.451   3.686
    4U      C2'  126   6.148   4.607   3.588
    4U      H2'  127   6.083   4.668   3.650
    4U      O2'  128   6.278   4.654   3.582
    4U     HO2'  129   6.317   4.636   3.668
    4U      O3'  130   6.247   4.465   3.749
    5U        P  131   6.200   4.510   3.898
    5U      OP1  132   6.263   4.417   3.992
    5U      OP2  133   6.056   4.528   3.900
    5U      O5'  134   6.251   4.662   3.913
    5U      C5'  135   6.390   4.693   3.951
    5U      H5'  136   6.451   4.634   3.883
    5U     H5''  137   6.408   4.680   4.058
    5U      C4'  138   6.414   4.839   3.916
    5U      H4'  139   6.517   4.865   3.943
    5U      O4'  140   6.375   4.882   3.783
    5U      C1'  141   6.354   5.021   3.776
    5U      H1'  142   6.438   5.080   3.739
    5U       N1  143   6.231   5.049   3.689
    5U       C6  144   6.124   4.964   3.693
    5U       H6  145   6.121   4.887   3.768
    5U       C5  146   6.025   4.981   3.609
    5U       H5  147   5.944   4.909   3.607
    5U       C4  148   6.007   5.096   3.525
    5U       O4  149   5.911   5.106   3.454
    5U       N3  150   6.114   5.185   3.534
    5U       H3  151   6.104   5.270   3.481
    5U       C2  152   6.230   5.161   3.600
    5U       O2  153   6.327   5.230   3.575
    5U      C3'  154   6.327   4.933   3.999
    5U      H3'  155   6.228   4.889   3.988
    5U      C2'  156   6.339   5.069   3.923
    5U      H2'  157   6.249   5.129   3.936
    5U      O2'  158   6.458   5.129   3.966
    5U     HO2'  159   6.451   5.109   4.059
    5U      O3'  160   6.355   4.950   4.136
    6A        P  161   6.257   4.915   4.251
    6A      OP1  162   6.337   4.949   4.371
    6A      OP2  163   6.210   4.779   4.236
    6A      O5'  164   6.133   5.012   4.224
    6A      C5'  165   6.144   5.156   4.238
    6A      H5'  166   6.234   5.184   4.184
    6A     H5''  167   6.152   5.192   4.341
    6A      C4'  168   6.042   5.244   4.171
    6A      H4'  169   6.061   5.348   4.194
    6A      O4'  170   6.058   5.225   4.031
    6A      C1'  171   5.927   5.245   3.970
    6A      H1'  172   5.931   5.330   3.903
    6A       N9  173   5.886   5.112   3.915
    6A       C8  174   5.906   4.982   3.955
    6A       H8  175   5.974   4.959   4.035
    6A       N7  176   5.847   4.893   3.884
    6A       C5  177   5.768   4.970   3.801
    6A       C6  178   5.663   4.936   3.712
    6A       N6  179   5.628   4.811   3.674
    6A      H61  180   5.567   4.801   3.594
    6A      H62  181   5.677   4.727   3.700
    6A       N1  182   5.597   5.024   3.642
    6A       C2  183   5.643   5.155   3.659
    6A       H2  184   5.587   5.229   3.603
    6A       N3  185   5.729   5.200   3.743
    6A       C4  186   5.792   5.104   3.814
    6A      C3'  187   5.900   5.216   4.210
    6A      H3'  188   5.886   5.108   4.215
    6A      C2'  189   5.832   5.277   4.084
    6A      H2'  190   5.738   5.223   4.077
    6A      O2'  191   5.811   5.421   4.082
    6A     HO2'  192   5.758   5.438   4.160
    6A      O3'  193   5.862   5.296   4.328
    7G        P  194   5.748   5.258   4.420
    7G      OP1  195   5.768   5.358   4.530
    7G      OP2  196   5.748   5.109   4.440
    7G      O5'  197   5.609   5.298   4.349
    7G      C5'  198   5.563   5.434   4.355
    7G      H5'  199   5.645   5.503   4.371
    7G     H5''  200   5.498   5.454   4.439
    7G      C4'  201   5.486   5.474   4.227
    7G      H4'  202   5.476   5.583   4.225
    7G      O4'  203   5.538   5.448   4.097
    7G      C1'  204   5.428   5.414   4.013
    7G      H1'  205   5.440   5.472   3.921
    7G       N9  206   5.433   5.269   3.982
    7G       C8  207   5.483   5.171   4.062
    7G       H8  208   5.538   5.195   4.151
    7G       N7  209   5.475   5.052   4.009
    7G       C5  210   5.371   5.074   3.913
    7G       C6  211   5.299   4.983   3.827
    7G       O6  212   5.304   4.857   3.824
    7G       N1  213   5.214   5.042   3.737
    7G       H1  214   5.152   4.983   3.683
    7G       C2  215   5.206   5.176   3.720
    7G       N2  216   5.130   5.223   3.623
    7G      H21  217   5.078   5.151   3.576
    7G      H22  218   5.131   5.319   3.590
    7G       N3  219   5.280   5.266   3.786
    7G       C4  220   5.359   5.205   3.883
    7G      C3'  221   5.345   5.427   4.236
    7G      H3'  222   5.346   5.319   4.252
    7G      C2'  223   5.301   5.455   4.091
    7G      H2'  224   5.216   5.397   4.056
    7G      O2'  225   5.275   5.596   4.063
    7G     HO2'  226   5.293   5.640   4.146
    7G      O3'  227   5.279   5.499   4.329
    8G        P  228   5.152   5.418   4.386
    8G      OP1  229   5.061   5.512   4.456
    8G      OP2  230   5.211   5.299   4.457
    8G      O5'  231   5.078   5.367   4.258
    8G      C5'  232   4.970   5.435   4.202
    8G      H5'  233   5.003   5.531   4.161
    8G     H5''  234   4.898   5.467   4.277
    8G      C4'  235   4.899   5.358   4.090
    8G      H4'  236   4.844   5.433   4.033
    8G      O4'  237   4.979   5.289   3.998
    8G      C1'  238   4.919   5.176   3.962
    8G      H1'  239   4.920   5.168   3.853
    8G       N9  240   5.003   5.054   4.014
    8G       C8  241   5.105   5.059   4.104
    8G       H8  242   5.128   5.152   4.154
    8G       N7  243   5.158   4.941   4.120
    8G       C5  244   5.095   4.857   4.027
    8G       C6  245   5.105   4.714   4.001
    8G       O6  246   5.192   4.632   4.037
    8G       N1  247   4.996   4.669   3.930
    8G       H1  248   4.995   4.581   3.880
    8G       C2  249   4.903   4.746   3.881
    8G       N2  250   4.823   4.687   3.804
    8G      H21  251   4.830   4.591   3.773
    8G      H22  252   4.745   4.742   3.771
    8G       N3  253   4.888   4.875   3.899
    8G       C4  254   4.991   4.925   3.972
    8G      C3'  255   4.800   5.251   4.148
    8G      H3'  256   4.839   5.192   4.231
    8G      C2'  257   4.779   5.174   4.026
    8G      H2'  258   4.757   5.070   4.053
    8G      O2'  259   4.685   5.229   3.939
    8G     HO2'  260   4.674   5.171   3.863
    8G      O3'  261   4.675   5.308   4.184
    9G        P  262   4.588   5.233   4.297
    9G      OP1  263   4.471   5.310   4.331
    9G      OP2  264   4.683   5.213   4.410
    9G      O5'  265   4.544   5.091   4.250
    9G      C5'  266   4.423   5.065   4.190
    9G      H5'  267   4.422   5.120   4.097
    9G     H5''  268   4.339   5.095   4.254
    9G      C4'  269   4.421   4.916   4.141
    9G      H4'  270   4.334   4.908   4.075
    9G      O4'  271   4.530   4.868   4.070
    9G      C1'  272   4.542   4.725   4.095
    9G      H1'  273   4.549   4.663   4.006
    9G       N9  274   4.673   4.706   4.162
    9G       C8  275   4.734   4.778   4.262
    9G       H8  276   4.696   4.873   4.297
    9G       N7  277   4.846   4.728   4.306
    9G       C5  278   4.856   4.608   4.237
    9G       C6  279   4.942   4.501   4.251
    9G       O6  280   5.044   4.486   4.324
    9G       N1  281   4.903   4.384   4.184
    9G       H1  282   4.967   4.308   4.200
    9G       C2  283   4.794   4.375   4.100
    9G       N2  284   4.786   4.264   4.029
    9G      H21  285   4.851   4.186   4.033
    9G      H22  286   4.714   4.256   3.959
    9G       N3  287   4.708   4.476   4.083
    9G       C4  288   4.741   4.590   4.154
    9G      C3'  289   4.393   4.817   4.252
    9G      H3'  290   4.464   4.836   4.332
    9G      C2'  291   4.422   4.685   4.184
    9G      H2'  292   4.441   4.601   4.251
    9G      O2'  293   4.314   4.642   4.104
    9G     HO2'  294   4.246   4.610   4.164
    9G      O3'  295   4.259   4.826   4.309
   10U        P  296   4.245   4.830   4.469
   10U      OP1  297   4.103   4.815   4.494
   10U      OP2  298   4.319   4.951   4.517
   10U      O5'  299   4.323   4.707   4.531
   10U      C5'  300   4.282   4.580   4.496
   10U      H5'  301   4.246   4.579   4.394
   10U     H5''  302   4.187   4.550   4.541
   10U      C4'  303   4.394   4.477   4.519
   10U      H4'  304   4.362   4.387   4.467
   10U      O4'  305   4.523   4.508   4.467
   10U      C1'  306   4.609   4.426   4.537
   10U      H1'  307   4.637   4.344   4.471
   10U       N1  308   4.735   4.508   4.580
   10U       C6  309   4.717   4.633   4.632
   10U       H6  310   4.628   4.691   4.611
   10U       C5  311   4.822   4.699   4.691
   10U       H5  312   4.824   4.805   4.712
   10U       C4  313   4.949   4.639   4.696
   10U       O4  314   5.051   4.699   4.737
   10U       N3  315   4.953   4.512   4.645
   10U       H3  316   5.044   4.476   4.622
   10U       C2  317   4.861   4.448   4.572
   10U       O2  318   4.890   4.343   4.512
   10U      C3'  319   4.415   4.437   4.667
   10U      H3'  320   4.434   4.532   4.716
   10U      C2'  321   4.539   4.358   4.655
   10U      H2'  322   4.596   4.348   4.747
   10U      O2'  323   4.517   4.215   4.624
   10U     HO2'  324   4.464   4.182   4.697
   10U      O3'  325   4.308   4.360   4.724
   11U        P  326   4.304   4.323   4.878
   11U      OP1  327   4.163   4.297   4.910
   11U      OP2  328   4.382   4.418   4.956
   11U      O5'  329   4.379   4.181   4.877
   11U      C5'  330   4.310   4.059   4.846
   11U      H5'  331   4.268   4.067   4.746
   11U     H5''  332   4.223   4.039   4.909
   11U      C4'  333   4.399   3.939   4.844
   11U      H4'  334   4.345   3.846   4.828
   11U      O4'  335   4.495   3.950   4.741
   11U      C1'  336   4.612   3.877   4.770
   11U      H1'  337   4.621   3.790   4.704
   11U       N1  338   4.735   3.959   4.755
   11U       C6  339   4.741   4.089   4.794
   11U       H6  340   4.652   4.135   4.832
   11U       C5  341   4.862   4.149   4.799
   11U       H5  342   4.859   4.253   4.829
   11U       C4  343   4.980   4.086   4.754
   11U       O4  344   5.093   4.137   4.769
   11U       N3  345   4.967   3.963   4.701
   11U       H3  346   5.048   3.917   4.665
   11U       C2  347   4.846   3.896   4.694
   11U       O2  348   4.846   3.790   4.629
   11U      C3'  349   4.486   3.926   4.972
   11U      H3'  350   4.528   4.025   4.991
   11U      C2'  351   4.597   3.833   4.917
   11U      H2'  352   4.695   3.849   4.963
   11U      O2'  353   4.567   3.693   4.909
   11U     HO2'  354   4.548   3.668   5.000
   11U      O3'  355   4.423   3.877   5.089
   12A        P  356   4.454   3.939   5.231
   12A      OP1  357   4.403   3.841   5.326
   12A      OP2  358   4.405   4.080   5.242
   12A      O5'  359   4.613   3.948   5.234
   12A      C5'  360   4.700   3.844   5.251
   12A      H5'  361   4.681   3.773   5.170
   12A     H5''  362   4.675   3.798   5.346
   12A      C4'  363   4.840   3.901   5.247
   12A      H4'  364   4.915   3.824   5.261
   12A      O4'  365   4.869   3.961   5.118
   12A      C1'  366   4.947   4.077   5.143
   12A      H1'  367   5.040   4.077   5.086
   12A       N9  368   4.872   4.202   5.118
   12A       C8  369   4.735   4.232   5.124
   12A       H8  370   4.660   4.156   5.140
   12A       N7  371   4.711   4.358   5.092
   12A       C5  372   4.838   4.413   5.078
   12A       C6  373   4.882   4.545   5.068
   12A       N6  374   4.812   4.654   5.045
   12A      H61  375   4.865   4.740   5.049
   12A      H62  376   4.718   4.642   5.010
   12A       N1  377   5.013   4.574   5.073
   12A       C2  378   5.096   4.473   5.095
   12A       H2  379   5.202   4.493   5.106
   12A       N3  380   5.072   4.342   5.105
   12A       C4  381   4.936   4.321   5.096
   12A      C3'  382   4.869   4.012   5.355
   12A      H3'  383   4.789   4.086   5.358
   12A      C2'  384   4.988   4.087   5.291
   12A      H2'  385   4.988   4.192   5.321
   12A      O2'  386   5.114   4.018   5.315
   12A     HO2'  387   5.087   3.966   5.391
   12A      O3'  388   4.914   3.961   5.477
   13G        P  389   4.857   4.040   5.604
   13G      OP1  390   4.914   3.973   5.722
   13G      OP2  391   4.710   4.049   5.589
   13G      O5'  392   4.916   4.188   5.601
   13G      C5'  393   5.047   4.215   5.633
   13G      H5'  394   5.117   4.143   5.590
   13G     H5''  395   5.060   4.210   5.741
   13G      C4'  396   5.092   4.358   5.603
   13G      H4'  397   5.200   4.368   5.610
   13G      O4'  398   5.069   4.386   5.465
   13G      C1'  399   5.026   4.523   5.460
   13G      H1'  400   5.075   4.586   5.385
   13G       N9  401   4.884   4.543   5.425
   13G       C8  402   4.783   4.445   5.431
   13G       H8  403   4.810   4.343   5.457
   13G       N7  404   4.662   4.493   5.408
   13G       C5  405   4.689   4.629   5.373
   13G       C6  406   4.597   4.732   5.332
   13G       O6  407   4.479   4.726   5.304
   13G       N1  408   4.655   4.855   5.330
   13G       H1  409   4.592   4.930   5.305
   13G       C2  410   4.781   4.879   5.363
   13G       N2  411   4.821   5.004   5.366
   13G      H21  412   4.766   5.077   5.323
   13G      H22  413   4.918   5.023   5.387
   13G       N3  414   4.877   4.785   5.394
   13G       C4  415   4.821   4.660   5.393
   13G      C3'  416   5.026   4.464   5.683
   13G      H3'  417   4.919   4.444   5.678
   13G      C2'  418   5.061   4.582   5.595
   13G      H2'  419   5.006   4.672   5.620
   13G      O2'  420   5.196   4.613   5.607
   13G     HO2'  421   5.222   4.559   5.682
   13G      O3'  422   5.067   4.475   5.814
   14G        P  423   4.962   4.501   5.926
   14G      OP1  424   5.041   4.499   6.048
   14G      OP2  425   4.841   4.421   5.911
   14G      O5'  426   4.918   4.651   5.891
   14G      C5'  427   5.007   4.760   5.894
   14G      H5'  428   5.095   4.743   5.831
   14G     H5''  429   5.049   4.780   5.993
   14G      C4'  430   4.945   4.891   5.844
   14G      H4'  431   5.027   4.961   5.851
   14G      O4'  432   4.895   4.888   5.711
   14G      C1'  433   4.764   4.945   5.703
   14G      H1'  434   4.753   5.006   5.613
   14G       N9  435   4.660   4.838   5.701
   14G       C8  436   4.679   4.704   5.689
   14G       H8  437   4.772   4.650   5.694
   14G       N7  438   4.564   4.642   5.668
   14G       C5  439   4.468   4.741   5.653
   14G       C6  440   4.333   4.733   5.618
   14G       O6  441   4.271   4.634   5.582
   14G       N1  442   4.263   4.855   5.621
   14G       H1  443   4.162   4.857   5.613
   14G       C2  444   4.328   4.974   5.645
   14G       N2  445   4.260   5.089   5.630
   14G      H21  446   4.165   5.085   5.597
   14G      H22  447   4.305   5.178   5.644
   14G       N3  448   4.453   4.980   5.683
   14G       C4  449   4.528   4.863   5.688
   14G      C3'  450   4.830   4.937   5.931
   14G      H3'  451   4.769   4.849   5.955
   14G      C2'  452   4.763   5.030   5.830
   14G      H2'  453   4.659   5.047   5.860
   14G      O2'  454   4.839   5.146   5.807
   14G     HO2'  455   4.849   5.182   5.896
   14G      O3'  456   4.879   5.005   6.044
   15G        P  457   4.793   5.002   6.179
   15G      OP1  458   4.865   5.056   6.293
   15G      OP2  459   4.755   4.865   6.195
   15G      O5'  460   4.663   5.087   6.165
   15G      C5'  461   4.672   5.230   6.132
   15G      H5'  462   4.725   5.248   6.038
   15G     H5''  463   4.719   5.298   6.204
   15G      C4'  464   4.534   5.284   6.099
   15G      H4'  465   4.537   5.390   6.076
   15G      O4'  466   4.485   5.218   5.981
   15G      C1'  467   4.349   5.190   5.994
   15G      H1'  468   4.295   5.221   5.904
   15G       N9  469   4.337   5.041   5.996
   15G       C8  470   4.435   4.945   5.991
   15G       H8  471   4.535   4.971   6.019
   15G       N7  472   4.389   4.818   5.981
   15G       C5  473   4.253   4.846   5.968
   15G       C6  474   4.147   4.755   5.933
   15G       O6  475   4.158   4.629   5.928
   15G       N1  476   4.031   4.809   5.900
   15G       H1  477   3.954   4.750   5.870
   15G       C2  478   4.004   4.940   5.910
   15G       N2  479   3.887   4.982   5.878
   15G      H21  480   3.822   4.921   5.830
   15G      H22  481   3.862   5.072   5.915
   15G       N3  482   4.091   5.027   5.962
   15G       C4  483   4.215   4.975   5.975
   15G      C3'  484   4.420   5.266   6.203
   15G      H3'  485   4.421   5.167   6.247
   15G      C2'  486   4.296   5.265   6.112
   15G      H2'  487   4.212   5.214   6.159
   15G      O2'  488   4.253   5.393   6.077
   15G     HO2'  489   4.273   5.466   6.137
   15G      O3'  490   4.414   5.376   6.298
   16U        P  491   4.350   5.349   6.440
   16U      OP1  492   4.336   5.486   6.495
   16U      OP2  493   4.438   5.256   6.513
   16U      O5'  494   4.211   5.286   6.424
   16U      C5'  495   4.101   5.358   6.394
   16U      H5'  496   4.119   5.417   6.304
   16U     H5''  497   4.074   5.426   6.475
   16U      C4'  498   3.971   5.275   6.360
   16U      H4'  499   3.900   5.349   6.323
   16U      O4'  500   3.994   5.184   6.257
   16U      C1'  501   3.912   5.071   6.272
   16U      H1'  502   3.844   5.062   6.187
   16U       N1  503   3.983   4.939   6.276
   16U       C6  504   4.111   4.930   6.314
   16U       H6  505   4.162   5.016   6.354
   16U       C5  506   4.175   4.810   6.316
   16U       H5  507   4.271   4.803   6.365
   16U       C4  508   4.116   4.690   6.272
   16U       O4  509   4.168   4.577   6.252
   16U       N3  510   3.989   4.709   6.217
   16U       H3  511   3.939   4.628   6.184
   16U       C2  512   3.922   4.829   6.212
   16U       O2  513   3.808   4.830   6.174
   16U      C3'  514   3.917   5.192   6.482
   16U      H3'  515   3.996   5.137   6.533
   16U      C2'  516   3.832   5.092   6.402
   16U      H2'  517   3.809   5.000   6.457
   16U      O2'  518   3.707   5.145   6.362
   16U     HO2'  519   3.711   5.234   6.399
   16U      O3'  520   3.829   5.271   6.564
   17U        P  521   3.881   5.346   6.685
   17U      OP1  522   3.900   5.485   6.637
   17U      OP2  523   3.995   5.280   6.748
   17U      O5'  524   3.772   5.349   6.797
   17U      C5'  525   3.651   5.422   6.782
   17U      H5'  526   3.579   5.358   6.730
   17U     H5''  527   3.661   5.516   6.729
   17U      C4'  528   3.595   5.446   6.921
   17U      H4'  529   3.507   5.511   6.916
   17U      O4'  530   3.565   5.320   6.981
   17U      C1'  531   3.617   5.315   7.113
   17U      H1'  532   3.540   5.363   7.174
   17U       N1  533   3.661   5.180   7.163
   17U       C6  534   3.758   5.104   7.096
   17U       H6  535   3.790   5.127   6.995
   17U       C5  536   3.819   4.997   7.156
   17U       H5  537   3.893   4.935   7.107
   17U       C4  538   3.792   4.962   7.293
   17U       O4  539   3.851   4.866   7.347
   17U       N3  540   3.696   5.039   7.358
   17U       H3  541   3.679   5.018   7.455
   17U       C2  542   3.636   5.147   7.296
   17U       O2  543   3.564   5.215   7.368
   17U      C3'  544   3.696   5.520   7.012
   17U      H3'  545   3.785   5.542   6.953
   17U      C2'  546   3.742   5.410   7.116
   17U      H2'  547   3.828   5.359   7.073
   17U      O2'  548   3.774   5.472   7.234
   17U     HO2'  549   3.732   5.557   7.228
   17U      O3'  550   3.647   5.634   7.084
   18A        P  551   3.614   5.769   7.004
   18A      OP1  552   3.485   5.812   7.061
   18A      OP2  553   3.628   5.751   6.853
   18A      O5'  554   3.738   5.853   7.052
   18A      C5'  555   3.736   5.926   7.170
   18A      H5'  556   3.697   5.864   7.251
   18A     H5''  557   3.673   6.015   7.160
   18A      C4'  558   3.880   5.965   7.200
   18A      H4'  559   3.880   6.042   7.277
   18A      O4'  560   3.969   5.864   7.259
   18A      C1'  561   4.091   5.855   7.187
   18A      H1'  562   4.181   5.849   7.248
   18A       N9  563   4.086   5.730   7.110
   18A       C8  564   4.033   5.713   6.982
   18A       H8  565   4.002   5.791   6.913
   18A       N7  566   4.025   5.584   6.954
   18A       C5  567   4.078   5.526   7.076
   18A       C6  568   4.105   5.392   7.116
   18A       N6  569   4.085   5.292   7.051
   18A      H61  570   4.113   5.203   7.089
   18A      H62  571   4.061   5.298   6.954
   18A       N1  572   4.159   5.364   7.239
   18A       C2  573   4.193   5.469   7.309
   18A       H2  574   4.235   5.453   7.407
   18A       N3  575   4.181   5.593   7.284
   18A       C4  576   4.120   5.616   7.166
   18A      C3'  577   3.958   6.020   7.080
   18A      H3'  578   3.927   5.969   6.989
   18A      C2'  579   4.098   5.981   7.105
   18A      H2'  580   4.154   5.965   7.013
   18A      O2'  581   4.169   6.080   7.177
   18A     HO2'  582   4.176   6.152   7.113
   18A      O3'  583   3.938   6.162   7.054
   19G        P  584   3.979   6.220   6.916
   19G      OP1  585   3.921   6.353   6.914
   19G      OP2  586   3.927   6.133   6.809
   19G      O5'  587   4.138   6.228   6.910
   19G      C5'  588   4.214   6.346   6.940
   19G      H5'  589   4.205   6.379   7.043
   19G     H5''  590   4.180   6.421   6.868
   19G      C4'  591   4.360   6.306   6.905
   19G      H4'  592   4.435   6.381   6.930
   19G      O4'  593   4.394   6.188   6.984
   19G      C1'  594   4.472   6.101   6.904
   19G      H1'  595   4.570   6.089   6.949
   19G       N9  596   4.410   5.973   6.898
   19G       C8  597   4.310   5.921   6.819
   19G       H8  598   4.238   5.976   6.761
   19G       N7  599   4.300   5.793   6.833
   19G       C5  600   4.383   5.749   6.934
   19G       C6  601   4.406   5.621   6.993
   19G       O6  602   4.356   5.512   6.963
   19G       N1  603   4.495   5.629   7.096
   19G       H1  604   4.497   5.558   7.168
   19G       C2  605   4.565   5.741   7.128
   19G       N2  606   4.643   5.735   7.224
   19G      H21  607   4.674   5.643   7.250
   19G      H22  608   4.668   5.823   7.267
   19G       N3  609   4.551   5.866   7.069
   19G       C4  610   4.450   5.861   6.977
   19G      C3'  611   4.382   6.274   6.753
   19G      H3'  612   4.289   6.230   6.718
   19G      C2'  613   4.489   6.164   6.762
   19G      H2'  614   4.468   6.091   6.684
   19G      O2'  615   4.616   6.213   6.751
   19G     HO2'  616   4.622   6.267   6.673
   19G      O3'  617   4.412   6.388   6.676
   20G        P  618   4.424   6.386   6.517
   20G      OP1  619   4.416   6.526   6.460
   20G      OP2  620   4.318   6.284   6.473
   20G      O5'  621   4.566   6.324   6.488
   20G      C5'  622   4.683   6.404   6.471
   20G      H5'  623   4.692   6.454   6.568
   20G     H5''  624   4.665   6.473   6.388
   20G      C4'  625   4.812   6.323   6.441
   20G      H4'  626   4.898   6.390   6.430
   20G      O4'  627   4.836   6.233   6.549
   20G      C1'  628   4.869   6.110   6.499
   20G      H1'  629   4.969   6.082   6.531
   20G       N9  630   4.767   6.010   6.535
   20G       C8  631   4.646   5.985   6.473
   20G       H8  632   4.608   6.043   6.390
   20G       N7  633   4.572   5.893   6.522
   20G       C5  634   4.658   5.836   6.620
   20G       C6  635   4.648   5.720   6.711
   20G       O6  636   4.556   5.642   6.722
   20G       N1  637   4.752   5.711   6.806
   20G       H1  638   4.743   5.637   6.874
   20G       C2  639   4.855   5.794   6.815
   20G       N2  640   4.939   5.779   6.914
   20G      H21  641   4.918   5.719   6.993
   20G      H22  642   5.022   5.835   6.926
   20G       N3  643   4.877   5.898   6.727
   20G       C4  644   4.774   5.910   6.637
   20G      C3'  645   4.791   6.245   6.315
   20G      H3'  646   4.688   6.210   6.310
   20G      C2'  647   4.886   6.129   6.347
   20G      H2'  648   4.867   6.037   6.291
   20G      O2'  649   5.032   6.160   6.330
   20G     HO2'  650   5.050   6.187   6.239
   20G      O3'  651   4.837   6.315   6.202
   21G3       P  652   4.752   6.327   6.072
   21G3     OP1  653   4.820   6.421   5.987
   21G3     OP2  654   4.608   6.353   6.104
   21G3     O5'  655   4.765   6.193   5.992
   21G3     C5'  656   4.883   6.171   5.910
   21G3     H5'  657   4.973   6.185   5.970
   21G3    H5''  658   4.885   6.232   5.820
   21G3     C4'  659   4.894   6.024   5.855
   21G3     H4'  660   4.978   6.014   5.786
   21G3     O4'  661   4.938   5.933   5.954
   21G3     C1'  662   4.889   5.802   5.916
   21G3     H1'  663   4.981   5.746   5.900
   21G3      N9  664   4.809   5.746   6.029
   21G3      C8  665   4.677   5.709   6.041
   21G3      H8  666   4.616   5.748   5.961
   21G3      N7  667   4.643   5.640   6.147
   21G3      C5  668   4.763   5.644   6.219
   21G3      C6  669   4.796   5.593   6.349
   21G3      O6  670   4.722   5.547   6.440
   21G3      N1  671   4.921   5.620   6.386
   21G3      H1  672   4.955   5.590   6.477
   21G3      C2  673   5.013   5.688   6.314
   21G3      N2  674   5.130   5.699   6.367
   21G3     H21  675   5.145   5.638   6.447
   21G3     H22  676   5.213   5.743   6.331
   21G3      N3  677   4.995   5.717   6.184
   21G3      C4  678   4.864   5.701   6.144
   21G3     C3'  679   4.780   5.967   5.782
   21G3     H3'  680   4.692   5.976   5.846
   21G3     C2'  681   4.817   5.819   5.779
   21G3     H2'  682   4.730   5.753   5.777
   21G3     O2'  683   4.912   5.782   5.680
   21G3    HO2'  684   4.865   5.743   5.606
   21G3     O3'  685   4.756   6.028   5.666
   21G3    HO3'  686   4.827   6.004   5.607
   22Cl-    Cl-  687   0.051   6.135   9.036
   23Cl-    Cl-  688   6.506   7.261   4.816
   24Cl-    Cl-  689   3.937   3.428   9.539
   25Cl-    Cl-  690   5.305   9.118   5.103
   26Cl-    Cl-  691   4.113   7.845   4.629
   27Cl-    Cl-  692   5.767   6.231   0.866
   28Cl-    Cl-  693   5.545   8.439   1.672
   29Cl-    Cl-  694   7.725   2.779   7.989
   30Cl-    Cl-  695   3.544   1.880   9.139
   31Cl-    Cl-  696   7.718   7.542   4.666
   32Cl-    Cl-  697   0.502   1.594   2.418
   33Cl-    Cl-  698   2.529   7.298   2.873
   34Cl-    Cl-  699   4.647   1.270   9.095
   35Cl-    Cl-  700   5.037   6.186   9.389
   36Cl-    Cl-  701   8.390   6.467   0.007
   37Cl-    Cl-  702   6.237   0.596   3.404
   38Cl-    Cl-  703   8.249   6.446   3.280
   39Cl-    Cl-  704   8.057   5.382   0.834
   40Cl-    Cl-  705   9.681   2.663   2.248
   41Cl-    Cl-  706   9.321   4.854   0.775
   42Cl-    Cl-  707   9.419   4.120   2.840
   43Cl-    Cl-  708   6.605   1.082   6.750
   44Cl-    Cl-  709   7.884   8.392   3.507
   45Cl-    Cl-  710   7.552   7.385   9.155
   46Cl-    Cl-  711   4.324   0.401   0.789
   47Cl-    Cl-  712   1.768   3.613   2.331
   48Cl-    Cl-  713   9.261   6.959   3.022
   49Cl-    Cl-  714   7.132   4.813   5.965
   50Cl-    Cl-  715   3.113   5.496   4.242
   51Cl-    Cl-  716   7.607   0.278   7.510
   52Cl-    Cl-  717   0.194   8.661   2.748
   53Cl-    Cl-  718   1.689   2.646   5.480
   54Cl-    Cl-  719   0.179   3.561   5.541
   55Cl-    Cl-  720   1.794   4.481   9.394
   56Cl-    Cl-  721   4.498   5.807   5.320
   57Cl-    Cl-  722   1.021   7.647   6.046
   58Cl-    Cl-  723   6.445   0.193   8.723
   59Cl-    Cl-  724   4.914   0.799   2.925
   60Cl-    Cl-  725   3.278   1.839   8.162
   61Cl-    Cl-  726   8.669   9.262   2.309
   62Cl-    Cl-  727   5.468   0.597   3.242
   63Cl-    Cl-  728   1.869   1.679   0.266
   64Cl-    Cl-  729   6.961   5.934   8.201
   65Cl-    Cl-  730   2.200   2.232   4.680
   66Cl-    Cl-  731   7.296   4.818   4.907
   67Cl-    Cl-  732   7.775   5.423   9.866
   68Cl-    Cl-  733   4.335   4.599   0.576
   69Cl-    Cl-  734   2.929   5.467   1.763
   70Cl-    Cl-  735   4.436   1.656   4.873
   71Cl-    Cl-  736   9.846   2.376   7.192
   72Cl-    Cl-  737   0.982   4.774   6.367
   73Cl-    Cl-  738   0.302   2.748   0.956
   74Cl-    Cl-  739   3.048   6.296   0.104
   75Cl-    Cl-  740   0.153   0.319   9.877
   76Cl-    Cl-  741   9.676   8.569   1.383
   77Cl-    Cl-  742   6.734   1.629   5.028
   78Cl-    Cl-  743   1.945   0.148   9.850
   79Cl-    Cl-  744   2.871   8.212   2.791
   80Cl-    Cl-  745   9.538   9.111   4.849
   81Cl-    Cl-  746   5.836   3.226   6.665
   82Cl-    Cl-  747   2.448   0.342   4.365
   83Cl-    Cl-  748   8.738   5.729   3.754
   84Cl-    Cl-  749   0.853   2.029   3.404
   85Cl-    Cl-  750   6.500   3.229   2.301
   86Cl-    Cl-  751   8.887   2.800   0.934
   87Cl-    Cl-  752   3.255   4.203   3.742
   88Cl-    Cl-  753   3.992   5.010   2.567
   89Cl-    Cl-  754   3.934   8.724   8.960
   90Cl-    Cl-  755   3.205   5.078   8.362
   91Cl-    Cl-  756   8.881   5.165   4.373
   92Cl-    Cl-  757   0.737   4.682   0.556
   93Cl-    Cl-  758   1.733   3.445   6.159
   94Cl-    Cl-  759   5.676   0.844   1.436
   95Cl-    Cl-  760   2.940   6.782   6.378
   96Cl-    Cl-  761   9.160   7.122   2.128
   97Cl-    Cl-  762   6.279   6.744   6.558
   98Cl-    Cl-  763   7.017   9.051   3.127
   99Cl-    Cl-  764   7.872   1.226   5.175
  100Cl-    Cl-  765   8.223   3.457   9.449
  101Cl-    Cl-  766   0.100   6.196   8.545
  102Cl-    Cl-  767   2.901   9.604   0.553
  103Cl-    Cl-  768   7.691   9.313   5.037
  104Cl-    Cl-  769   3.902   5.309   1.258
  105Cl-    Cl-  770   8.806   3.324   6.342
  106Cl-    Cl-  771   5.530   8.137   6.079
  107K+      K+  772   4.489   5.369   6.732
  108K+      K+  773   0.604   7.194   6.635
  109K+      K+  774   4.407   4.577   6.131
  110K+      K+  775   3.470   9.832   8.044
  111K+      K+  776   5.195   4.759   4.962
  112K+      K+  777   7.091   4.216   2.205
  113K+      K+  778   6.896   7.368   6.491
  114K+      K+  779   7.880   9.685   4.708
  115K+      K+  780   3.442   8.622   3.531
  116K+      K+  781   4.677   7.396   6.094
  117K+      K+  782   5.962   8.249   2.141
  118K+      K+  783   7.278   8.853   1.974
  119K+      K+  784   3.502   7.574   2.624
  120K+      K+  785   4.423   5.220   5.075
  121K+      K+  786   7.496   8.327   4.172
  122K+      K+  787   5.892   4.670   9.567
  123K+      K+  788   5.852   8.535   5.903
  124K+      K+  789   0.837   5.327   9.018
  125K+      K+  790   3.221   1.488   0.263
  126K+      K+  791   8.919   3.172   6.558
  127K+      K+  792   4.438   5.696   6.352
  128K+      K+  793   5.397   4.799   4.137
  129K+      K+  794   6.097   1.337   5.013
  130K+      K+  795   6.069   6.703   6.322
  131K+      K+  796   7.426   6.019   7.340
  132K+      K+  797   1.943   3.239   0.866
  133K+      K+  798   7.142   5.584   8.804
  134K+      K+  799   8.840   2.759   1.332
  135K+      K+  800   6.848   4.323   4.798
  136K+      K+  801   8.985   7.623   2.153
  137K+      K+  802   2.621   6.242   6.736
  138K+      K+  803   3.605   2.633   7.750
  139K+      K+  804   8.662   8.090   5.520
  140K+      K+  805   4.422   8.269   6.652
  141K+      K+  806   9.097   1.712   5.411
  142K+      K+  807   5.318   0.853   3.655
  143K+      K+  808   2.921   6.898   3.062
  144K+      K+  809   9.340   5.285   2.524
  145K+      K+  810   7.950   2.508   9.573
  146K+      K+  811   4.730   2.425   2.061
  147K+      K+  812   6.231   3.940   6.629
  148K+      K+  813   8.783   5.875   2.798
  149K+      K+  814   7.074   0.800   8.644
  150K+      K+  815   6.050   2.944   4.146
  151K+      K+  816   1.461   1.956   2.050
  152K+      K+  817   5.114   5.214   2.070
  153K+      K+  818   5.996   5.510   4.925
  154K+      K+  819   3.447   2.194   5.759
  155K+      K+  820   1.256   2.850   2.168
  156K+      K+  821   6.997   1.759   7.498
  157K+      K+  822   4.484   5.389   4.000
  158K+      K+  823   6.836   9.518   4.681
  159K+      K+  824   5.770   0.391   3.136
  160K+      K+  825   3.241   1.211   4.460
  161K+      K+  826   3.891   4.985   8.023
  162K+      K+  827   9.264   9.510   2.377
  163K+      K+  828   1.735   2.016   9.547
  164K+      K+  829   9.089   5.995   0.127
  165K+      K+  830   5.683   4.726   4.417
  166K+      K+  831   4.182   6.280   6.022
  167K+      K+  832   7.423   5.516   8.597
  168K+      K+  833   8.973   0.472   8.597
  169K+      K+  834   3.962   1.941   9.144
  170K+      K+  835   6.127   7.933   9.391
  171K+      K+  836   2.209   3.748   6.659
  172K+      K+  837   1.241   2.803   5.308
  173K+      K+  838   5.504   3.041   6.338
  174K+      K+  839   4.449   4.397   5.610
  175K+      K+  840   5.610   3.786   1.356
  176K+      K+  841   1.138   4.821   1.651
  177K+      K+  842   1.315   1.335   5.664
  178K+      K+  843   4.380   5.689   9.489
  179K+      K+  844   7.294   7.565   3.759
  180K+      K+  845   9.127   8.748   8.901
  181K+      K+  846   3.740   0.008   9.563
  182K+      K+  847   5.631   3.017   5.728
  183K+      K+  848   5.423   7.280   4.367
  184K+      K+  849   8.035   5.549   3.980
  185K+      K+  850   2.432   3.827   1.603
  186K+      K+  851   2.107   0.534   8.369
  187K+      K+  852   5.139   3.755   6.369
  188K+      K+  853   8.030   5.561   1.793
  189K+      K+  854   9.632   6.710   3.158
  190K+      K+  855   7.960   7.859   3.372
  191K+      K+  856   8.447   4.604   1.821
  192K+      K+  857   9.307   4.477   0.529
  193K+      K+  858   4.457   4.453   5.200
  194K+      K+  859   8.106   4.810   6.495
  195K+      K+  860   9.006   6.788   2.776
  196K+      K+  861   4.157   5.583   6.701
  197K+      K+  862   9.232   3.580   5.779
  198K+      K+  863   9.123   2.462   1.218
  199K+      K+  864   1.196   3.700   1.217
  200K+      K+  865   5.424   4.369   2.897
  201K+      K+  866   4.671   8.372   3.407
  202K+      K+  867   5.392   7.180   7.838
  203K+      K+  868   9.029   6.359   1.531
  204K+      K+  869   2.597   1.964   8.387
  205K+      K+  870   5.024   9.460   1.016
  206K+      K+  871   2.485   5.010   4.745
  207K+      K+  872   0.878   9.538   0.069
  208K+      K+  873   1.572   9.712   0.766
  209K+      K+  874   7.967   0.960   5.813
  210K+      K+  875   9.635   1.527   1.161
  211K+      K+  876   2.035   3.079   7.123
  212WAT      O  877   3.933   1.946   2.763
  212WAT     H1  878   3.979   1.944   2.673
  212WAT     H2  879   3.922   2.041   2.792
  213WAT      O  880   3.158   4.652   5.464
  213WAT     H1  881   3.204   4.680   5.380
  213WAT     H2  882   3.065   4.622   5.443
  214WAT      O  883   1.817   2.259   6.814
  214WAT     H1  884   1.842   2.194   6.886
  214WAT     H2  885   1.836   2.352   6.846
  215WAT      O  886   8.964   4.282   2.999
  215WAT     H1  887   8.957   4.256   2.903
  215WAT     H2  888   9.058   4.268   3.031
  216WAT      O  889   0.264   1.974   5.058
  216WAT     H1  890   0.244   1.997   5.153
  216WAT     H2  891   0.182   1.987   5.002
  217WAT      O  892   6.983   7.803   9.433
  217WAT     H1  893   6.933   7.755   9.360
  217WAT     H2  894   6.949   7.773   9.522
  218WAT      O  895   5.354   0.478   6.405
  218WAT     H1  896   5.434   0.459   6.347
  218WAT     H2  897   5.296   0.397   6.409
  219WAT      O  898   6.712   8.392   2.727
  219WAT     H1  899   6.642   8.322   2.736
  219WAT     H2  900   6.685   8.473   2.779
  220WAT      O  901   1.488   6.013   1.458
  220WAT     H1  902   1.443   6.071   1.526
  220WAT     H2  903   1.428   5.936   1.436
  221WAT      O  904   0.597   4.215   9.392
  221WAT     H1  905   0.580   4.277   9.315
  221WAT     H2  906   0.623   4.268   9.473
  222WAT      O  907   6.291   9.622   1.260
  222WAT     H1  908   6.271   9.618   1.162
  222WAT     H2  909   6.248   9.703   1.299
  223WAT      O  910   8.613   4.786   2.890
  223WAT     H1  911   8.712   4.799   2.890
  223WAT     H2  912   8.589   4.708   2.948
  224WAT      O  913   1.885   3.425   2.055
  224WAT     H1  914   1.787   3.417   2.073
  224WAT     H2  915   1.934   3.353   2.105
  225WAT      O  916   1.896   8.761   2.094
  225WAT     H1  917   1.933   8.846   2.056
  225WAT     H2  918   1.966   8.715   2.148
  226WAT      O  919   0.872   6.701   8.950
  226WAT     H1  920   0.965   6.680   8.981
  226WAT     H2  921   0.816   6.618   8.956
  227WAT      O  922   6.184   0.677   1.257
  227WAT     H1  923   6.207   0.755   1.315
  227WAT     H2  924   6.249   0.603   1.272
  228WAT      O  925   7.121   9.348   1.732
  228WAT     H1  926   7.148   9.409   1.806
  228WAT     H2  927   7.075   9.268   1.770
  229WAT      O  928   9.499   2.203   1.192
  229WAT     H1  929   9.406   2.225   1.222
  229WAT     H2  930   9.528   2.118   1.235
  230WAT      O  931   6.389   8.578   2.461
  230WAT     H1  932   6.355   8.495   2.504
  230WAT     H2  933   6.385   8.569   2.362
  231WAT      O  934   0.822   3.468   4.648
  231WAT     H1  935   0.853   3.424   4.732
  231WAT     H2  936   0.779   3.399   4.588
  232WAT      O  937   1.260   1.267   0.705
  232WAT     H1  938   1.263   1.223   0.615
  232WAT     H2  939   1.214   1.355   0.698
  233WAT      O  940   5.942   0.542   8.618
  233WAT     H1  941   5.965   0.628   8.664
  233WAT     H2  942   5.885   0.562   8.538
  234WAT      O  943   0.659   2.235   8.161
  234WAT     H1  944   0.650   2.230   8.261
  234WAT     H2  945   0.606   2.162   8.119
  235WAT      O  946   3.741   8.371   2.631
  235WAT     H1  947   3.816   8.306   2.637
  235WAT     H2  948   3.686   8.352   2.550
  236WAT      O  949   0.230   2.700   3.102
  236WAT     H1  950   0.150   2.651   3.067
  236WAT     H2  951   0.312   2.668   3.055
  237WAT      O  952   8.299   0.141   5.416
  237WAT     H1  953   8.258   0.067   5.469
  237WAT     H2  954   8.227   0.198   5.378
  238WAT      O  955   2.388   6.665   4.598
  238WAT     H1  956   2.307   6.685   4.653
  238WAT     H2  957   2.444   6.747   4.591
  239WAT      O  958   8.478   0.399   0.374
  239WAT     H1  959   8.566   0.358   0.399
  239WAT     H2  960   8.465   0.390   0.275
  240WAT      O  961   5.866   9.645   7.263
  240WAT     H1  962   5.934   9.662   7.334
  240WAT     H2  963   5.881   9.708   7.187
  241WAT      O  964   0.194   5.043   9.830
  241WAT     H1  965   0.138   5.072   9.907
  241WAT     H2  966   0.135   5.007   9.758
  242WAT      O  967   4.406   8.587   7.949
  242WAT     H1  968   4.440   8.655   8.014
  242WAT     H2  969   4.319   8.617   7.911
  243WAT      O  970   4.932   4.202   0.835
  243WAT     H1  971   4.936   4.103   0.837
  243WAT     H2  972   4.846   4.233   0.876
  244WAT      O  973   2.860   7.832   8.901
  244WAT     H1  974   2.959   7.823   8.908
  244WAT     H2  975   2.820   7.744   8.874
  245WAT      O  976   9.675   1.628   9.597
  245WAT     H1  977   9.728   1.622   9.513
  245WAT     H2  978   9.642   1.721   9.609
  246WAT      O  979   7.899   3.770   3.928
  246WAT     H1  980   7.841   3.695   3.959
  246WAT     H2  981   7.892   3.778   3.828
  247WAT      O  982   2.812   4.905   3.636
  247WAT     H1  983   2.800   5.004   3.641
  247WAT     H2  984   2.885   4.884   3.570
  248WAT      O  985   5.340   8.879   0.824
  248WAT     H1  986   5.395   8.828   0.759
  248WAT     H2  987   5.347   8.977   0.804
  249WAT      O  988   7.642   7.180   6.692
  249WAT     H1  989   7.548   7.212   6.705
  249WAT     H2  990   7.658   7.161   6.595
  250WAT      O  991   4.732   2.700   5.620
  250WAT     H1  992   4.649   2.697   5.676
  250WAT     H2  993   4.781   2.612   5.628
  251WAT      O  994   5.037   6.021   8.987
  251WAT     H1  995   4.970   6.084   8.947
  251WAT     H2  996   4.990   5.936   9.011
  252WAT      O  997   2.148   6.901   4.086
  252WAT     H1  998   2.222   6.833   4.079
  252WAT     H2  999   2.183   6.983   4.130
  253WAT      O 1000   1.184   5.230   3.839
  253WAT     H1 1001   1.126   5.149   3.833
  253WAT     H2 1002   1.280   5.202   3.831
  254WAT      O 1003   2.426   5.306   6.994
  254WAT     H1 1004   2.507   5.365   7.006
  254WAT     H2 1005   2.372   5.307   7.078
  255WAT      O 1006   8.062   8.527   0.482
  255WAT     H1 1007   7.968   8.518   0.449
  255WAT     H2 1008   8.076   8.619   0.520
  256WAT      O 1009   5.609   2.439   1.067
  256WAT     H1 1010   5.529   2.489   1.033
  256WAT     H2 1011   5.609   2.441   1.167
  257WAT      O 1012   4.704   7.353   2.232
  257WAT     H1 1013   4.710   7.265   2.280
  257WAT     H2 1014   4.796   7.390   2.219
  258WAT      O 1015   8.523   5.535   4.610
  258WAT     H1 1016   8.602   5.473   4.607
  258WAT     H2 1017   8.553   5.624   4.645
  259WAT      O 1018   7.170   1.410   5.084
  259WAT     H1 1019   7.077   1.402   5.119
  259WAT     H2 1020   7.224   1.331   5.112
  260WAT      O 1021   6.327   1.732   7.514
  260WAT     H1 1022   6.377   1.646   7.513
  260WAT     H2 1023   6.327   1.770   7.606
  261WAT      O 1024   1.341   4.084   4.724
  261WAT     H1 1025   1.401   4.146   4.674
  261WAT     H2 1026   1.397   4.023   4.782
  262WAT      O 1027   8.150   4.916   1.427
  262WAT     H1 1028   8.233   4.951   1.470
  262WAT     H2 1029   8.160   4.818   1.411
  263WAT      O 1030   0.491   5.374   3.149
  263WAT     H1 1031   0.591   5.374   3.159
  263WAT     H2 1032   0.459   5.280   3.142
  264WAT      O 1033   1.669   2.673   6.849
  264WAT     H1 1034   1.672   2.740   6.922
  264WAT     H2 1035   1.728   2.595   6.873
  265WAT      O 1036   1.015   3.294   1.306
  265WAT     H1 1037   0.964   3.341   1.378
  265WAT     H2 1038   0.972   3.206   1.286
  266WAT      O 1039   0.440   1.067   1.176
  266WAT     H1 1040   0.474   0.982   1.136
  266WAT     H2 1041   0.413   1.051   1.271
  267WAT      O 1042   1.651   4.806   3.606
  267WAT     H1 1043   1.579   4.866   3.641
  267WAT     H2 1044   1.613   4.740   3.542
  268WAT      O 1045   0.270   0.820   0.852
  268WAT     H1 1046   0.239   0.734   0.810
  268WAT     H2 1047   0.362   0.807   0.890
  269WAT      O 1048   6.753   0.443   5.700
  269WAT     H1 1049   6.661   0.407   5.688
  269WAT     H2 1050   6.752   0.543   5.688
  270WAT      O 1051   5.157   1.894   8.766
  270WAT     H1 1052   5.086   1.955   8.729
  270WAT     H2 1053   5.136   1.873   8.861
  271WAT      O 1054   9.360   8.887   5.022
  271WAT     H1 1055   9.427   8.936   4.967
  271WAT     H2 1056   9.271   8.930   5.013
  272WAT      O 1057   5.033   8.615   9.750
  272WAT     H1 1058   4.954   8.559   9.779
  272WAT     H2 1059   5.017   8.650   9.658
  273WAT      O 1060   5.323   2.513   0.319
  273WAT     H1 1061   5.277   2.512   0.408
  273WAT     H2 1062   5.263   2.473   0.250
  274WAT      O 1063   5.370   1.752   3.996
  274WAT     H1 1064   5.315   1.835   3.985
  274WAT     H2 1065   5.349   1.687   3.923
  275WAT      O 1066   9.158   6.287   5.874
  275WAT     H1 1067   9.101   6.210   5.846
  275WAT     H2 1068   9.254   6.260   5.877
  276WAT      O 1069   2.480   1.382   9.203
  276WAT     H1 1070   2.402   1.443   9.214
  276WAT     H2 1071   2.480   1.315   9.276
  277WAT      O 1072   0.510   5.243   9.383
  277WAT     H1 1073   0.469   5.243   9.474
  277WAT     H2 1074   0.580   5.172   9.378
  278WAT      O 1075   7.862   4.781   1.742
  278WAT     H1 1076   7.933   4.767   1.811
  278WAT     H2 1077   7.781   4.820   1.785
  279WAT      O 1078   8.979   5.651   6.290
  279WAT     H1 1079   8.974   5.626   6.387
  279WAT     H2 1080   9.031   5.581   6.241
  280WAT      O 1081   0.465   6.283   4.734
  280WAT     H1 1082   0.483   6.381   4.730
  280WAT     H2 1083   0.457   6.247   4.641
  281WAT      O 1084   6.795   9.048   0.320
  281WAT     H1 1085   6.696   9.054   0.305
  281WAT     H2 1086   6.830   8.963   0.280
  282WAT      O 1087   8.679   9.585   1.340
  282WAT     H1 1088   8.772   9.617   1.320
  282WAT     H2 1089   8.633   9.652   1.398
  283WAT      O 1090   3.876   4.254   6.731
  283WAT     H1 1091   3.918   4.253   6.641
  283WAT     H2 1092   3.851   4.161   6.758
  284WAT      O 1093   9.292   2.870   1.257
  284WAT     H1 1094   9.250   2.891   1.169
  284WAT     H2 1095   9.313   2.955   1.305
  285WAT      O 1096   4.467   8.347   5.319
  285WAT     H1 1097   4.430   8.409   5.251
  285WAT     H2 1098   4.430   8.255   5.304
  286WAT      O 1099   4.062   3.766   5.483
  286WAT     H1 1100   4.056   3.705   5.405
  286WAT     H2 1101   4.064   3.861   5.452
  287WAT      O 1102   0.551   3.967   4.520
  287WAT     H1 1103   0.571   4.065   4.517
  287WAT     H2 1104   0.633   3.917   4.549
  288WAT      O 1105   1.136   8.697   2.178
  288WAT     H1 1106   1.189   8.719   2.259
  288WAT     H2 1107   1.064   8.631   2.202
  289WAT      O 1108   7.746   2.002   0.162
  289WAT     H1 1109   7.841   1.982   0.137
  289WAT     H2 1110   7.727   2.099   0.146
  290WAT      O 1111   3.386   5.262   0.045
  290WAT     H1 1112   3.295   5.252   0.084
  290WAT     H2 1113   3.397   5.356   0.011
  291WAT      O 1114   2.561   1.645   3.573
  291WAT     H1 1115   2.553   1.648   3.473
  291WAT     H2 1116   2.490   1.703   3.614
  292WAT      O 1117   6.257   9.445   5.427
  292WAT     H1 1118   6.270   9.357   5.473
  292WAT     H2 1119   6.167   9.482   5.450
  293WAT      O 1120   2.336   3.397   3.121
  293WAT     H1 1121   2.427   3.414   3.158
  293WAT     H2 1122   2.337   3.409   3.021
  294WAT      O 1123   1.530   8.217   5.963
  294WAT     H1 1124   1.453   8.162   5.995
  294WAT     H2 1125   1.573   8.171   5.885
  295WAT      O 1126   0.071   8.226   4.901
  295WAT     H1 1127   0.077   8.222   4.802
  295WAT     H2 1128   0.164   8.227   4.940
  296WAT      O 1129   8.349   8.984   5.732
  296WAT     H1 1130   8.414   9.016   5.801
  296WAT     H2 1131   8.322   9.062   5.674
  297WAT      O 1132   5.729   5.413   8.423
  297WAT     H1 1133   5.703   5.317   8.424
  297WAT     H2 1134   5.661   5.465   8.372
  298WAT      O 1135   6.209   3.406   7.795
  298WAT     H1 1136   6.260   3.425   7.879
  298WAT     H2 1137   6.152   3.486   7.773
  299WAT      O 1138   7.246   6.029   3.942
  299WAT     H1 1139   7.147   6.013   3.940
  299WAT     H2 1140   7.273   6.058   4.034
  300WAT      O 1141   9.747   8.947   0.194
  300WAT     H1 1142   9.745   9.047   0.192
  300WAT     H2 1143   9.758   8.916   0.289
  301WAT      O 1144   2.772   8.483   8.567
  301WAT     H1 1145   2.703   8.419   8.532
  301WAT     H2 1146   2.727   8.569   8.591
  302WAT      O 1147   2.305   3.190   4.315
  302WAT     H1 1148   2.258   3.203   4.228
  302WAT     H2 1149   2.303   3.093   4.339
  303WAT      O 1150   3.740   1.769   6.273
  303WAT     H1 1151   3.806   1.728   6.337
  303WAT     H2 1152   3.692   1.844   6.317
  304WAT      O 1153   3.539   1.238   4.075
  304WAT     H1 1154   3.613   1.239   4.008
  304WAT     H2 1155   3.577   1.218   4.166
  305WAT      O 1156   6.697   8.367   4.083
  305WAT     H1 1157   6.785   8.359   4.131
  305WAT     H2 1158   6.682   8.463   4.058
  306WAT      O 1159   7.865   3.214   4.226
  306WAT     H1 1160   7.873   3.295   4.284
  306WAT     H2 1161   7.898   3.237   4.134
  307WAT      O 1162   1.934   5.824   0.820
  307WAT     H1 1163   1.957   5.895   0.754
  307WAT     H2 1164   2.003   5.821   0.892
  308WAT      O 1165   2.158   1.070   4.986
  308WAT     H1 1166   2.241   1.013   4.986
  308WAT     H2 1167   2.089   1.027   4.928
  309WAT      O 1168   1.775   6.385   2.705
  309WAT     H1 1169   1.679   6.412   2.713
  309WAT     H2 1170   1.815   6.427   2.624
  310WAT      O 1171   5.038   7.442   6.761
  310WAT     H1 1172   4.987   7.375   6.816
  310WAT     H2 1173   5.031   7.532   6.803
  311WAT      O 1174   1.672   6.075   7.784
  311WAT     H1 1175   1.632   5.986   7.803
  311WAT     H2 1176   1.722   6.072   7.697
  312WAT      O 1177   2.448   7.743   1.678
  312WAT     H1 1178   2.385   7.681   1.632
  312WAT     H2 1179   2.524   7.691   1.717
  313WAT      O 1180   7.549   7.056   5.696
  313WAT     H1 1181   7.527   7.022   5.605
  313WAT     H2 1182   7.641   7.026   5.722
  314WAT      O 1183   3.459   1.559   3.800
  314WAT     H1 1184   3.509   1.482   3.760
  314WAT     H2 1185   3.483   1.567   3.897
  315WAT      O 1186   8.473   2.632   5.574
  315WAT     H1 1187   8.487   2.716   5.627
  315WAT     H2 1188   8.375   2.617   5.562
  316WAT      O 1189   0.103   6.430   9.482
  316WAT     H1 1190   0.178   6.466   9.538
  316WAT     H2 1191   0.085   6.335   9.508
  317WAT      O 1192   2.429   3.363   6.818
  317WAT     H1 1193   2.498   3.302   6.779
  317WAT     H2 1194   2.358   3.381   6.750
  318WAT      O 1195   6.500   2.971   8.919
  318WAT     H1 1196   6.535   2.920   8.998
  318WAT     H2 1197   6.444   3.048   8.951
  319WAT      O 1198   8.124   5.732   1.062
  319WAT     H1 1199   8.156   5.741   1.156
  319WAT     H2 1200   8.203   5.734   1.000
  320WAT      O 1201   4.460   0.048   4.588
  320WAT     H1 1202   4.542   0.050   4.531
  320WAT     H2 1203   4.466  -0.029   4.652
  321WAT      O 1204   4.855   4.028   3.615
  321WAT     H1 1205   4.797   4.074   3.683
  321WAT     H2 1206   4.797   3.972   3.556
  322WAT      O 1207   6.023   0.163   5.609
  322WAT     H1 1208   6.020   0.255   5.647
  322WAT     H2 1209   5.948   0.151   5.545
  323WAT      O 1210   9.870   7.626   8.922
  323WAT     H1 1211   9.783   7.579   8.906
  323WAT     H2 1212   9.882   7.639   9.020
  324WAT      O 1213   3.033   6.485   8.056
  324WAT     H1 1214   3.069   6.468   7.964
  324WAT     H2 1215   2.949   6.434   8.069
  325WAT      O 1216   1.148   6.185   3.665
  325WAT     H1 1217   1.158   6.237   3.750
  325WAT     H2 1218   1.207   6.224   3.595
  326WAT      O 1219   5.818   6.121   6.832
  326WAT     H1 1220   5.908   6.150   6.864
  326WAT     H2 1221   5.747   6.179   6.872
  327WAT      O 1222   3.051   4.555   0.195
  327WAT     H1 1223   3.095   4.640   0.166
  327WAT     H2 1224   3.009   4.510   0.116
  328WAT      O 1225   4.166   4.292   2.959
  328WAT     H1 1226   4.091   4.350   2.928
  328WAT     H2 1227   4.216   4.338   3.033
  329WAT      O 1228   5.150   9.143   8.646
  329WAT     H1 1229   5.086   9.182   8.711
  329WAT     H2 1230   5.193   9.217   8.593
  330WAT      O 1231   4.233   0.941   8.908
  330WAT     H1 1232   4.274   1.031   8.926
  330WAT     H2 1233   4.134   0.951   8.897
  331WAT      O 1234   5.643   5.184   3.029
  331WAT     H1 1235   5.702   5.120   2.980
  331WAT     H2 1236   5.547   5.160   3.012
  332WAT      O 1237   3.060   3.846   8.014
  332WAT     H1 1238   3.099   3.786   8.083
  332WAT     H2 1239   3.009   3.919   8.058
  333WAT      O 1240   2.922   5.079   2.893
  333WAT     H1 1241   2.905   5.116   2.984
  333WAT     H2 1242   2.846   5.020   2.866
  334WAT      O 1243   4.406   9.043   9.552
  334WAT     H1 1244   4.404   8.945   9.530
  334WAT     H2 1245   4.501   9.072   9.565
  335WAT      O 1246   4.683   7.158   6.703
  335WAT     H1 1247   4.607   7.106   6.664
  335WAT     H2 1248   4.675   7.254   6.675
  336WAT      O 1249   2.438   4.218   5.803
  336WAT     H1 1250   2.427   4.309   5.761
  336WAT     H2 1251   2.505   4.223   5.876
  337WAT      O 1252   0.115   5.396   0.488
  337WAT     H1 1253   0.062   5.481   0.491
  337WAT     H2 1254   0.211   5.415   0.512
  338WAT      O 1255   2.301   8.543   0.879
  338WAT     H1 1256   2.273   8.633   0.848
  338WAT     H2 1257   2.382   8.551   0.938
  339WAT      O 1258   1.533   2.719   0.999
  339WAT     H1 1259   1.607   2.658   0.971
  339WAT     H2 1260   1.553   2.812   0.970
  340WAT      O 1261   3.816   8.302   9.616
  340WAT     H1 1262   3.842   8.304   9.519
  340WAT     H2 1263   3.871   8.233   9.663
  341WAT      O 1264   8.943   0.483   9.107
  341WAT     H1 1265   8.904   0.575   9.100
  341WAT     H2 1266   8.901   0.424   9.038
  342WAT      O 1267   9.449   7.910   4.350
  342WAT     H1 1268   9.509   7.909   4.270
  342WAT     H2 1269   9.468   7.830   4.407
  343WAT      O 1270   7.752   0.104   9.442
  343WAT     H1 1271   7.813   0.162   9.388
  343WAT     H2 1272   7.786   0.095   9.535
  344WAT      O 1273   0.436   7.452   9.455
  344WAT     H1 1274   0.393   7.362   9.462
  344WAT     H2 1275   0.369   7.523   9.474
  345WAT      O 1276   7.218   2.910   4.918
  345WAT     H1 1277   7.192   2.823   4.877
  345WAT     H2 1278   7.212   2.983   4.850
  346WAT      O 1279   0.451   7.319   3.585
  346WAT     H1 1280   0.367   7.296   3.534
  346WAT     H2 1281   0.517   7.245   3.575
  347WAT      O 1282   5.749   1.706   9.434
  347WAT     H1 1283   5.672   1.769   9.421
  347WAT     H2 1284   5.803   1.702   9.350
  348WAT      O 1285   7.493   8.224   8.904
  348WAT     H1 1286   7.540   8.313   8.904
  348WAT     H2 1287   7.453   8.207   8.815
  349WAT      O 1288   1.597   6.467   6.047
  349WAT     H1 1289   1.610   6.541   6.113
  349WAT     H2 1290   1.601   6.379   6.094
  350WAT      O 1291   8.702   6.934   9.087
  350WAT     H1 1292   8.785   6.939   9.144
  350WAT     H2 1293   8.666   7.027   9.074
  351WAT      O 1294   1.301   1.248   0.227
  351WAT     H1 1295   1.301   1.199   0.140
  351WAT     H2 1296   1.330   1.185   0.300
  352WAT      O 1297   9.302   8.805   9.728
  352WAT     H1 1298   9.255   8.723   9.760
  352WAT     H2 1299   9.253   8.844   9.650
  353WAT      O 1300   6.931   1.014   0.970
  353WAT     H1 1301   6.884   0.949   0.909
  353WAT     H2 1302   7.007   0.967   1.016
  354WAT      O 1303   8.491   6.854   2.999
  354WAT     H1 1304   8.480   6.916   2.920
  354WAT     H2 1305   8.410   6.796   3.007
  355WAT      O 1306   8.807   4.934   0.716
  355WAT     H1 1307   8.772   5.001   0.651
  355WAT     H2 1308   8.732   4.903   0.775
  356WAT      O 1309   3.858   6.880   1.302
  356WAT     H1 1310   3.948   6.878   1.346
  356WAT     H2 1311   3.815   6.790   1.310
  357WAT      O 1312   3.034   5.894   7.798
  357WAT     H1 1313   3.031   5.916   7.701
  357WAT     H2 1314   2.970   5.820   7.818
  358WAT      O 1315   2.368   9.648   0.709
  358WAT     H1 1316   2.292   9.587   0.727
  358WAT     H2 1317   2.431   9.605   0.644
  359WAT      O 1318   2.185   0.020   0.696
  359WAT     H1 1319   2.112  -0.029   0.742
  359WAT     H2 1320   2.268  -0.037   0.694
  360WAT      O 1321   1.187   0.308   0.204
  360WAT     H1 1322   1.131   0.225   0.218
  360WAT     H2 1323   1.264   0.286   0.144
  361WAT      O 1324   2.133   2.853   5.382
  361WAT     H1 1325   2.157   2.859   5.285
  361WAT     H2 1326   2.208   2.809   5.432
  362WAT      O 1327   4.702   7.198   8.942
  362WAT     H1 1328   4.797   7.197   8.972
  362WAT     H2 1329   4.698   7.214   8.843
  363WAT      O 1330   7.972   8.522   6.278
  363WAT     H1 1331   8.050   8.568   6.320
  363WAT     H2 1332   7.971   8.426   6.306
  364WAT      O 1333   6.156   7.148   0.627
  364WAT     H1 1334   6.084   7.093   0.585
  364WAT     H2 1335   6.116   7.230   0.667
  365WAT      O 1336   4.885   2.213   7.553
  365WAT     H1 1337   4.822   2.289   7.573
  365WAT     H2 1338   4.838   2.126   7.571
  366WAT      O 1339   6.792   7.625   8.650
  366WAT     H1 1340   6.768   7.714   8.613
  366WAT     H2 1341   6.742   7.609   8.735
  367WAT      O 1342   9.237   3.898   7.368
  367WAT     H1 1343   9.268   3.980   7.416
  367WAT     H2 1344   9.152   3.865   7.410
  368WAT      O 1345   7.654   1.783   5.105
  368WAT     H1 1346   7.728   1.847   5.127
  368WAT     H2 1347   7.622   1.800   5.012
  369WAT      O 1348   9.455   9.143   3.395
  369WAT     H1 1349   9.437   9.241   3.389
  369WAT     H2 1350   9.544   9.123   3.355
  370WAT      O 1351   3.956   2.288   7.356
  370WAT     H1 1352   4.031   2.311   7.293
  370WAT     H2 1353   3.993   2.245   7.438
  371WAT      O 1354   9.544   8.794   7.533
  371WAT     H1 1355   9.525   8.705   7.574
  371WAT     H2 1356   9.524   8.866   7.600
  372WAT      O 1357   6.697   4.221   3.405
  372WAT     H1 1358   6.687   4.261   3.314
  372WAT     H2 1359   6.788   4.183   3.415
  373WAT      O 1360   0.799   0.228   3.256
  373WAT     H1 1361   0.734   0.305   3.255
  373WAT     H2 1362   0.759   0.152   3.308
  374WAT      O 1363   4.257   9.815   3.105
  374WAT     H1 1364   4.204   9.744   3.059
  374WAT     H2 1365   4.260   9.898   3.048
  375WAT      O 1366   5.374   4.896   5.943
  375WAT     H1 1367   5.300   4.872   5.879
  375WAT     H2 1368   5.374   4.831   6.019
  376WAT      O 1369   8.694   4.174   2.364
  376WAT     H1 1370   8.602   4.179   2.325
  376WAT     H2 1371   8.727   4.267   2.383
  377WAT      O 1372   4.296   3.916   1.301
  377WAT     H1 1373   4.325   3.830   1.343
  377WAT     H2 1374   4.223   3.956   1.356
  378WAT      O 1375   2.757   6.535   9.342
  378WAT     H1 1376   2.827   6.506   9.277
  378WAT     H2 1377   2.752   6.635   9.343
  379WAT      O 1378   5.683   1.056   7.402
  379WAT     H1 1379   5.754   1.115   7.438
  379WAT     H2 1380   5.677   0.973   7.457
  380WAT      O 1381   8.713   6.106   5.294
  380WAT     H1 1382   8.769   6.116   5.376
  380WAT     H2 1383   8.766   6.129   5.213
  381WAT      O 1384   6.543   9.508   1.368
  381WAT     H1 1385   6.575   9.586   1.421
  381WAT     H2 1386   6.453   9.528   1.329
  382WAT      O 1387   0.695   7.739   8.865
  382WAT     H1 1388   0.625   7.693   8.920
  382WAT     H2 1389   0.752   7.671   8.819
  383WAT      O 1390   5.922   0.600   1.153
  383WAT     H1 1391   5.989   0.649   1.208
  383WAT     H2 1392   5.832   0.606   1.197
  384WAT      O 1393   4.308   7.972   0.645
  384WAT     H1 1394   4.391   7.964   0.590
  384WAT     H2 1395   4.230   7.990   0.585
  385WAT      O 1396   2.780   4.536   2.475
  385WAT     H1 1397   2.878   4.519   2.471
  385WAT     H2 1398   2.730   4.451   2.464
  386WAT      O 1399   3.135   7.941   7.155
  386WAT     H1 1400   3.161   7.852   7.116
  386WAT     H2 1401   3.091   7.996   7.085
  387WAT      O 1402   7.754   9.572   9.020
  387WAT     H1 1403   7.727   9.595   9.114
  387WAT     H2 1404   7.847   9.603   9.003
  388WAT      O 1405   6.961   3.744   2.181
  388WAT     H1 1406   7.045   3.797   2.172
  388WAT     H2 1407   6.893   3.777   2.116
  389WAT      O 1408   6.988   6.235   7.198
  389WAT     H1 1409   6.899   6.189   7.194
  389WAT     H2 1410   7.023   6.248   7.105
  390WAT      O 1411   5.543   4.130   7.840
  390WAT     H1 1412   5.622   4.190   7.843
  390WAT     H2 1413   5.463   4.177   7.878
  391WAT      O 1414   4.207   1.367   7.206
  391WAT     H1 1415   4.226   1.317   7.121
  391WAT     H2 1416   4.275   1.343   7.274
  392WAT      O 1417   9.027   2.316   8.570
  392WAT     H1 1418   9.115   2.331   8.524
  392WAT     H2 1419   8.980   2.239   8.528
  393WAT      O 1420   2.256   1.560   9.262
  393WAT     H1 1421   2.217   1.566   9.170
  393WAT     H2 1422   2.183   1.538   9.327
  394WAT      O 1423   5.225   1.018   5.036
  394WAT     H1 1424   5.267   1.109   5.035
  394WAT     H2 1425   5.127   1.027   5.054
  395WAT      O 1426   8.305   3.558   9.732
  395WAT     H1 1427   8.273   3.652   9.741
  395WAT     H2 1428   8.260   3.515   9.654
  396WAT      O 1429   5.626   3.940   9.080
  396WAT     H1 1430   5.633   4.034   9.114
  396WAT     H2 1431   5.552   3.894   9.128
  397WAT      O 1432   0.570   7.172   7.516
  397WAT     H1 1433   0.609   7.219   7.437
  397WAT     H2 1434   0.471   7.168   7.507
  398WAT      O 1435   4.233   3.761   0.165
  398WAT     H1 1436   4.315   3.808   0.132
  398WAT     H2 1437   4.194   3.706   0.090
  399WAT      O 1438   0.344   7.527   3.306
  399WAT     H1 1439   0.437   7.532   3.344
  399WAT     H2 1440   0.346   7.553   3.210
  400WAT      O 1441   1.962   8.703   0.368
  400WAT     H1 1442   2.042   8.717   0.309
  400WAT     H2 1443   1.927   8.610   0.354
  401WAT      O 1444   3.152   2.365   2.043
  401WAT     H1 1445   3.087   2.421   2.093
  401WAT     H2 1446   3.205   2.310   2.107
  402WAT      O 1447   8.613   2.407   3.777
  402WAT     H1 1448   8.549   2.330   3.783
  402WAT     H2 1449   8.651   2.411   3.685
  403WAT      O 1450   1.976   7.230   6.437
  403WAT     H1 1451   1.886   7.246   6.395
  403WAT     H2 1452   1.979   7.274   6.527
  404WAT      O 1453   6.421   8.263   5.846
  404WAT     H1 1454   6.404   8.352   5.805
  404WAT     H2 1455   6.343   8.237   5.904
  405WAT      O 1456   3.478   3.939   4.188
  405WAT     H1 1457   3.398   3.881   4.173
  405WAT     H2 1458   3.556   3.902   4.138
  406WAT      O 1459   0.769   2.295   0.100
  406WAT     H1 1460   0.728   2.206   0.083
  406WAT     H2 1461   0.864   2.295   0.068
  407WAT      O 1462   1.770   2.749   1.831
  407WAT     H1 1463   1.745   2.694   1.751
  407WAT     H2 1464   1.687   2.774   1.880
  408WAT      O 1465   9.092   6.426   2.381
  408WAT     H1 1466   9.131   6.338   2.353
  408WAT     H2 1467   9.160   6.498   2.368
  409WAT      O 1468   5.702   5.462   7.053
  409WAT     H1 1469   5.737   5.550   7.084
  409WAT     H2 1470   5.611   5.446   7.092
  410WAT      O 1471   2.855   7.153   1.239
  410WAT     H1 1472   2.843   7.227   1.173
  410WAT     H2 1473   2.886   7.191   1.326
  411WAT      O 1474   4.740   9.190   6.129
  411WAT     H1 1475   4.822   9.156   6.175
  411WAT     H2 1476   4.664   9.193   6.194
  412WAT      O 1477   2.850   4.311   2.935
  412WAT     H1 1478   2.899   4.368   3.001
  412WAT     H2 1479   2.841   4.218   2.972
  413WAT      O 1480   3.237   0.562   5.463
  413WAT     H1 1481   3.201   0.640   5.412
  413WAT     H2 1482   3.217   0.478   5.413
  414WAT      O 1483   0.078   2.930   3.062
  414WAT     H1 1484   0.150   2.863   3.080
  414WAT     H2 1485   0.006   2.922   3.131
  415WAT      O 1486   5.685   5.299   2.701
  415WAT     H1 1487   5.738   5.383   2.694
  415WAT     H2 1488   5.746   5.220   2.706
  416WAT      O 1489   0.567   6.086   5.516
  416WAT     H1 1490   0.623   6.021   5.567
  416WAT     H2 1491   0.539   6.046   5.429
  417WAT      O 1492   5.234   3.824   0.037
  417WAT     H1 1493   5.165   3.752   0.026
  417WAT     H2 1494   5.293   3.826  -0.043
  418WAT      O 1495   5.324   3.016   0.932
  418WAT     H1 1496   5.362   3.094   0.983
  418WAT     H2 1497   5.332   3.034   0.834
  419WAT      O 1498   5.335   3.189   7.223
  419WAT     H1 1499   5.405   3.259   7.236
  419WAT     H2 1500   5.314   3.180   7.126
  420WAT      O 1501   5.073   2.218   3.005
  420WAT     H1 1502   5.162   2.171   3.010
  420WAT     H2 1503   5.000   2.154   3.029
  421WAT      O 1504   3.362   3.501   8.830
  421WAT     H1 1505   3.400   3.409   8.821
  421WAT     H2 1506   3.264   3.495   8.849
  422WAT      O 1507   6.795   4.876   8.325
  422WAT     H1 1508   6.888   4.855   8.354
  422WAT     H2 1509   6.794   4.901   8.228
  423WAT      O 1510   5.178   3.142   9.348
  423WAT     H1 1511   5.107   3.073   9.334
  423WAT     H2 1512   5.140   3.218   9.401
  424WAT      O 1513   4.402   8.694   4.748
  424WAT     H1 1514   4.428   8.791   4.746
  424WAT     H2 1515   4.314   8.682   4.702
  425WAT      O 1516   0.990   9.058   2.766
  425WAT     H1 1517   0.994   9.097   2.858
  425WAT     H2 1518   1.026   9.124   2.700
  426WAT      O 1519   6.767   0.695   3.297
  426WAT     H1 1520   6.800   0.679   3.390
  426WAT     H2 1521   6.750   0.608   3.251
  427WAT      O 1522   1.942   5.085   1.905
  427WAT     H1 1523   2.030   5.045   1.929
  427WAT     H2 1524   1.894   5.025   1.842
  428WAT      O 1525   2.826   1.503   2.244
  428WAT     H1 1526   2.809   1.406   2.225
  428WAT     H2 1527   2.878   1.512   2.329
  429WAT      O 1528   9.060   3.210   1.820
  429WAT     H1 1529   9.091   3.253   1.735
  429WAT     H2 1530   9.099   3.259   1.898
  430WAT      O 1531   3.563   3.736   1.858
  430WAT     H1 1532   3.602   3.731   1.951
  430WAT     H2 1533   3.618   3.797   1.802
  431WAT      O 1534   0.660   9.589   2.445
  431WAT     H1 1535   0.748   9.629   2.471
  431WAT     H2 1536   0.586   9.646   2.481
  432WAT      O 1537   8.089   1.687   9.418
  432WAT     H1 1538   8.162   1.630   9.457
  432WAT     H2 1539   8.001   1.641   9.430
  433WAT      O 1540   5.199   5.794   8.900
  433WAT     H1 1541   5.170   5.873   8.954
  433WAT     H2 1542   5.122   5.764   8.842
  434WAT      O 1543   0.929   8.835   0.800
  434WAT     H1 1544   0.875   8.819   0.883
  434WAT     H2 1545   1.015   8.785   0.807
  435WAT      O 1546   8.086   9.527   6.416
  435WAT     H1 1547   8.148   9.548   6.492
  435WAT     H2 1548   8.139   9.488   6.340
  436WAT      O 1549   5.322   3.031   8.584
  436WAT     H1 1550   5.225   3.041   8.610
  436WAT     H2 1551   5.367   3.120   8.592
  437WAT      O 1552   5.398   0.137   8.749
  437WAT     H1 1553   5.441   0.192   8.820
  437WAT     H2 1554   5.358   0.196   8.680
  438WAT      O 1555   8.784   3.403   4.301
  438WAT     H1 1556   8.754   3.498   4.292
  438WAT     H2 1557   8.716   3.351   4.352
  439WAT      O 1558   9.460   5.746   6.617
  439WAT     H1 1559   9.505   5.708   6.536
  439WAT     H2 1560   9.383   5.689   6.643
  440WAT      O 1561   1.232   5.637   6.663
  440WAT     H1 1562   1.276   5.547   6.662
  440WAT     H2 1563   1.156   5.637   6.598
  441WAT      O 1564   9.190   7.362   5.676
  441WAT     H1 1565   9.157   7.455   5.693
  441WAT     H2 1566   9.171   7.337   5.581
  442WAT      O 1567   7.687   7.812   3.353
  442WAT     H1 1568   7.628   7.766   3.287
  442WAT     H2 1569   7.652   7.905   3.368
  443WAT      O 1570   4.299   7.550   8.468
  443WAT     H1 1571   4.308   7.460   8.426
  443WAT     H2 1572   4.202   7.574   8.475
  444WAT      O 1573   4.212   0.344   3.739
  444WAT     H1 1574   4.144   0.291   3.690
  444WAT     H2 1575   4.167   0.419   3.788
  445WAT      O 1576   0.377   1.263   1.439
  445WAT     H1 1577   0.286   1.296   1.413
  445WAT     H2 1578   0.379   1.163   1.436
  446WAT      O 1579   6.206   2.047   7.854
  446WAT     H1 1580   6.230   2.123   7.916
  446WAT     H2 1581   6.186   2.083   7.763
  447WAT      O 1582   3.711   8.833   8.193
  447WAT     H1 1583   3.626   8.798   8.232
  447WAT     H2 1584   3.733   8.922   8.235
  448WAT      O 1585   8.797   7.127   9.722
  448WAT     H1 1586   8.751   7.092   9.640
  448WAT     H2 1587   8.794   7.227   9.720
  449WAT      O 1588   0.902   3.930   7.422
  449WAT     H1 1589   0.975   3.902   7.359
  449WAT     H2 1590   0.817   3.944   7.371
  450WAT      O 1591   7.812   0.671   4.452
  450WAT     H1 1592   7.910   0.678   4.430
  450WAT     H2 1593   7.801   0.649   4.549
  451WAT      O 1594   2.748   8.840   5.670
  451WAT     H1 1595   2.673   8.783   5.637
  451WAT     H2 1596   2.773   8.812   5.762
  452WAT      O 1597   0.657   9.500   6.250
  452WAT     H1 1598   0.589   9.457   6.309
  452WAT     H2 1599   0.643   9.599   6.251
  453WAT      O 1600   1.376   5.255   7.249
  453WAT     H1 1601   1.363   5.325   7.179
  453WAT     H2 1602   1.328   5.282   7.332
  454WAT      O 1603   1.160   6.644   0.615
  454WAT     H1 1604   1.241   6.596   0.647
  454WAT     H2 1605   1.096   6.657   0.691
  455WAT      O 1606   0.410   2.774   9.823
  455WAT     H1 1607   0.335   2.774   9.757
  455WAT     H2 1608   0.376   2.806   9.911
  456WAT      O 1609   5.519   0.664   3.598
  456WAT     H1 1610   5.614   0.637   3.616
  456WAT     H2 1611   5.516   0.719   3.514
  457WAT      O 1612   2.769   7.060   4.444
  457WAT     H1 1613   2.762   7.101   4.353
  457WAT     H2 1614   2.856   7.010   4.452
  458WAT      O 1615   5.040   3.062   2.330
  458WAT     H1 1616   4.968   3.073   2.399
  458WAT     H2 1617   5.112   3.129   2.348
  459WAT      O 1618   3.795   5.616   9.128
  459WAT     H1 1619   3.743   5.678   9.187
  459WAT     H2 1620   3.806   5.657   9.037
  460WAT      O 1621   5.797   1.444   8.116
  460WAT     H1 1622   5.805   1.359   8.063
  460WAT     H2 1623   5.707   1.448   8.160
  461WAT      O 1624   2.474   5.843   1.810
  461WAT     H1 1625   2.467   5.943   1.815
  461WAT     H2 1626   2.571   5.816   1.814
  462WAT      O 1627   6.629   6.763   2.780
  462WAT     H1 1628   6.707   6.824   2.767
  462WAT     H2 1629   6.611   6.751   2.877
  463WAT      O 1630   2.443   8.238   6.432
  463WAT     H1 1631   2.383   8.306   6.390
  463WAT     H2 1632   2.516   8.285   6.482
  464WAT      O 1633   9.617   6.981   9.261
  464WAT     H1 1634   9.538   7.042   9.255
  464WAT     H2 1635   9.701   7.035   9.259
  465WAT      O 1636   1.611   1.199   8.461
  465WAT     H1 1637   1.651   1.118   8.419
  465WAT     H2 1638   1.558   1.173   8.541
  466WAT      O 1639   1.758   1.590   7.474
  466WAT     H1 1640   1.761   1.642   7.389
  466WAT     H2 1641   1.767   1.653   7.552
  467WAT      O 1642   1.562   0.005   7.952
  467WAT     H1 1643   1.645  -0.043   7.921
  467WAT     H2 1644   1.581   0.102   7.960
  468WAT      O 1645   3.315   0.336   4.638
  468WAT     H1 1646   3.228   0.341   4.588
  468WAT     H2 1647   3.367   0.257   4.605
  469WAT      O 1648   6.953   0.605   6.482
  469WAT     H1 1649   6.973   0.534   6.415
  469WAT     H2 1650   7.002   0.585   6.567
  470WAT      O 1651   4.445   4.869   1.278
  470WAT     H1 1652   4.478   4.847   1.369
  470WAT     H2 1653   4.359   4.920   1.284
  471WAT      O 1654   1.129   2.852   8.308
  471WAT     H1 1655   1.087   2.784   8.369
  471WAT     H2 1656   1.227   2.858   8.327
  472WAT      O 1657   9.478   6.344   6.209
  472WAT     H1 1658   9.473   6.246   6.224
  472WAT     H2 1659   9.386   6.382   6.204
  473WAT      O 1660   1.308   0.929   2.920
  473WAT     H1 1661   1.273   0.858   2.858
  473WAT     H2 1662   1.407   0.920   2.927
  474WAT      O 1663   6.895   7.707   7.737
  474WAT     H1 1664   6.900   7.647   7.817
  474WAT     H2 1665   6.800   7.734   7.722
  475WAT      O 1666   5.684   6.749   8.292
  475WAT     H1 1667   5.723   6.785   8.377
  475WAT     H2 1668   5.738   6.783   8.214
  476WAT      O 1669   8.378   2.470   2.630
  476WAT     H1 1670   8.328   2.549   2.593
  476WAT     H2 1671   8.440   2.501   2.702
  477WAT      O 1672   0.407   4.296   2.434
  477WAT     H1 1673   0.478   4.353   2.476
  477WAT     H2 1674   0.396   4.212   2.487
  478WAT      O 1675   1.782   0.013   0.828
  478WAT     H1 1676   1.847   0.023   0.753
  478WAT     H2 1677   1.832   0.007   0.915
  479WAT      O 1678   6.520   0.259   4.894
  479WAT     H1 1679   6.609   0.233   4.857
  479WAT     H2 1680   6.495   0.350   4.858
  480WAT      O 1681   5.968   2.622   6.439
  480WAT     H1 1682   5.975   2.553   6.511
  480WAT     H2 1683   5.882   2.672   6.450
  481WAT      O 1684   9.173   1.456   2.825
  481WAT     H1 1685   9.270   1.466   2.805
  481WAT     H2 1686   9.129   1.408   2.749
  482WAT      O 1687   7.047   8.572   3.021
  482WAT     H1 1688   7.079   8.652   2.971
  482WAT     H2 1689   6.947   8.566   3.013
  483WAT      O 1690   0.494   5.713   6.048
  483WAT     H1 1691   0.466   5.681   5.958
  483WAT     H2 1692   0.592   5.695   6.060
  484WAT      O 1693   3.942   0.265   9.329
  484WAT     H1 1694   3.879   0.219   9.267
  484WAT     H2 1695   3.910   0.253   9.423
  485WAT      O 1696   3.814   2.300   8.941
  485WAT     H1 1697   3.854   2.231   8.881
  485WAT     H2 1698   3.809   2.265   9.034
  486WAT      O 1699   2.332   6.945   4.766
  486WAT     H1 1700   2.284   7.031   4.747
  486WAT     H2 1701   2.267   6.869   4.761
  487WAT      O 1702   7.699   5.243   2.974
  487WAT     H1 1703   7.775   5.307   2.988
  487WAT     H2 1704   7.622   5.270   3.031
  488WAT      O 1705   6.135   3.062   6.278
  488WAT     H1 1706   6.198   3.120   6.226
  488WAT     H2 1707   6.114   2.980   6.224
  489WAT      O 1708   2.932   0.554   6.831
  489WAT     H1 1709   2.908   0.577   6.736
  489WAT     H2 1710   2.942   0.455   6.840
  490WAT      O 1711   3.302   1.509   8.388
  490WAT     H1 1712   3.355   1.585   8.424
  490WAT     H2 1713   3.205   1.522   8.411
  491WAT      O 1714   1.910   8.986   1.932
  491WAT     H1 1715   1.815   9.019   1.926
  491WAT     H2 1716   1.939   8.951   1.844
  492WAT      O 1717   6.082   3.568   6.394
  492WAT     H1 1718   6.095   3.476   6.432
  492WAT     H2 1719   6.088   3.635   6.468
  493WAT      O 1720   0.745   1.816   5.665
  493WAT     H1 1721   0.844   1.801   5.663
  493WAT     H2 1722   0.698   1.728   5.672
  494WAT      O 1723   4.807   0.188   9.054
  494WAT     H1 1724   4.759   0.156   8.973
  494WAT     H2 1725   4.855   0.112   9.098
  495WAT      O 1726   4.642   0.640   1.430
  495WAT     H1 1727   4.551   0.649   1.388
  495WAT     H2 1728   4.692   0.567   1.384
  496WAT      O 1729   0.942   6.575   7.836
  496WAT     H1 1730   0.893   6.493   7.865
  496WAT     H2 1731   1.038   6.569   7.864
  497WAT      O 1732   6.845   4.375   3.128
  497WAT     H1 1733   6.864   4.460   3.078
  497WAT     H2 1734   6.748   4.351   3.119
  498WAT      O 1735   4.549   7.637   8.437
  498WAT     H1 1736   4.550   7.737   8.434
  498WAT     H2 1737   4.455   7.605   8.439
  499WAT      O 1738   6.305   4.141   1.279
  499WAT     H1 1739   6.381   4.132   1.215
  499WAT     H2 1740   6.263   4.231   1.269
  500WAT      O 1741   1.293   9.085   1.089
  500WAT     H1 1742   1.228   9.140   1.141
  500WAT     H2 1743   1.362   9.047   1.150
  501WAT      O 1744   2.103   5.093   0.261
  501WAT     H1 1745   2.038   5.163   0.231
  501WAT     H2 1746   2.061   5.003   0.252
  502WAT      O 1747   2.461   8.245   1.604
  502WAT     H1 1748   2.414   8.159   1.624
  502WAT     H2 1749   2.536   8.258   1.668
  503WAT      O 1750   5.749   0.492   8.810
  503WAT     H1 1751   5.784   0.529   8.896
  503WAT     H2 1752   5.816   0.506   8.737
  504WAT      O 1753   0.369   6.698   6.423
  504WAT     H1 1754   0.372   6.672   6.327
  504WAT     H2 1755   0.276   6.687   6.458
  505WAT      O 1756   4.878   9.687   3.445
  505WAT     H1 1757   4.929   9.615   3.492
  505WAT     H2 1758   4.831   9.743   3.513
  506WAT      O 1759   6.944   0.906   5.831
  506WAT     H1 1760   6.873   0.935   5.767
  506WAT     H2 1761   6.996   0.986   5.862
  507WAT      O 1762   5.369   5.333   8.446
  507WAT     H1 1763   5.373   5.277   8.529
  507WAT     H2 1764   5.346   5.274   8.368
  508WAT      O 1765   4.497   2.012   6.902
  508WAT     H1 1766   4.438   2.087   6.930
  508WAT     H2 1767   4.526   1.960   6.983
  509WAT      O 1768   5.980   4.260   8.583
  509WAT     H1 1769   6.006   4.315   8.662
  509WAT     H2 1770   5.882   4.273   8.565
  510WAT      O 1771   0.195   1.227   7.706
  510WAT     H1 1772   0.112   1.196   7.660
  510WAT     H2 1773   0.249   1.147   7.735
  511WAT      O 1774   5.210   5.125   8.958
  511WAT     H1 1775   5.136   5.178   8.915
  511WAT     H2 1776   5.290   5.125   8.898
  512WAT      O 1777   3.539   2.062   7.869
  512WAT     H1 1778   3.563   2.009   7.950
  512WAT     H2 1779   3.440   2.061   7.857
  513WAT      O 1780   3.687   5.123   6.029
  513WAT     H1 1781   3.662   5.177   6.110
  513WAT     H2 1782   3.672   5.177   5.947
  514WAT      O 1783   0.385   1.526   5.407
  514WAT     H1 1784   0.363   1.570   5.320
  514WAT     H2 1785   0.308   1.536   5.470
  515WAT      O 1786   0.917   4.704   7.048
  515WAT     H1 1787   0.899   4.653   6.964
  515WAT     H2 1788   0.938   4.640   7.122
  516WAT      O 1789   9.786   4.648   2.832
  516WAT     H1 1790   9.787   4.687   2.924
  516WAT     H2 1791   9.704   4.593   2.820
  517WAT      O 1792   7.114   5.884   1.907
  517WAT     H1 1793   7.037   5.948   1.899
  517WAT     H2 1794   7.129   5.838   1.820
  518WAT      O 1795   7.709   6.125   9.760
  518WAT     H1 1796   7.672   6.032   9.761
  518WAT     H2 1797   7.694   6.166   9.670
  519WAT      O 1798   8.093   9.184   6.685
  519WAT     H1 1799   8.017   9.231   6.639
  519WAT     H2 1800   8.165   9.164   6.619
  520WAT      O 1801   2.635   2.842   3.416
  520WAT     H1 1802   2.576   2.780   3.365
  520WAT     H2 1803   2.579   2.909   3.465
  521WAT      O 1804   6.835   4.524   2.023
  521WAT     H1 1805   6.908   4.591   2.035
  521WAT     H2 1806   6.819   4.509   1.926
  522WAT      O 1807   3.833   2.822   3.735
  522WAT     H1 1808   3.841   2.817   3.835
  522WAT     H2 1809   3.887   2.899   3.701
  523WAT      O 1810   7.709   4.650   3.029
  523WAT     H1 1811   7.792   4.703   3.038
  523WAT     H2 1812   7.709   4.602   2.941
  524WAT      O 1813   7.366   2.846   2.564
  524WAT     H1 1814   7.414   2.884   2.485
  524WAT     H2 1815   7.428   2.791   2.618
  525WAT      O 1816   2.495   7.818   5.467
  525WAT     H1 1817   2.444   7.836   5.552
  525WAT     H2 1818   2.592   7.830   5.484
  526WAT      O 1819   0.995   2.242   8.552
  526WAT     H1 1820   0.967   2.151   8.521
  526WAT     H2 1821   0.990   2.306   8.475
  527WAT      O 1822   9.461   8.391   4.969
  527WAT     H1 1823   9.407   8.317   5.010
  527WAT     H2 1824   9.428   8.479   5.003
  528WAT      O 1825   2.472   1.870   5.423
  528WAT     H1 1826   2.561   1.846   5.386
  528WAT     H2 1827   2.484   1.925   5.506
  529WAT      O 1828   5.956   3.662   9.512
  529WAT     H1 1829   5.856   3.657   9.506
  529WAT     H2 1830   5.993   3.692   9.424
  530WAT      O 1831   3.070   3.316   2.527
  530WAT     H1 1832   3.029   3.268   2.605
  530WAT     H2 1833   3.045   3.269   2.442
  531WAT      O 1834   3.553   8.057   1.100
  531WAT     H1 1835   3.500   8.024   1.178
  531WAT     H2 1836   3.617   8.128   1.130
  532WAT      O 1837   7.590   5.655   5.794
  532WAT     H1 1838   7.583   5.606   5.707
  532WAT     H2 1839   7.683   5.648   5.829
  533WAT      O 1840   9.475   8.849   3.204
  533WAT     H1 1841   9.534   8.839   3.124
  533WAT     H2 1842   9.532   8.859   3.286
  534WAT      O 1843   8.433   9.160   5.368
  534WAT     H1 1844   8.350   9.212   5.353
  534WAT     H2 1845   8.510   9.222   5.379
  535WAT      O 1846   3.315   4.327   5.455
  535WAT     H1 1847   3.234   4.277   5.424
  535WAT     H2 1848   3.302   4.355   5.550
  536WAT      O 1849   4.361   1.820   4.225
  536WAT     H1 1850   4.270   1.846   4.256
  536WAT     H2 1851   4.422   1.900   4.228
  537WAT      O 1852   9.022   3.697   6.331
  537WAT     H1 1853   9.024   3.770   6.400
  537WAT     H2 1854   9.012   3.738   6.240
  538WAT      O 1855   5.353   9.362   3.770
  538WAT     H1 1856   5.396   9.310   3.844
  538WAT     H2 1857   5.378   9.459   3.779
  539WAT      O 1858   3.013   2.291   8.232
  539WAT     H1 1859   3.063   2.213   8.268
  539WAT     H2 1860   3.030   2.371   8.290
  540WAT      O 1861   3.416   0.855   6.557
  540WAT     H1 1862   3.409   0.797   6.638
  540WAT     H2 1863   3.442   0.799   6.478
  541WAT      O 1864   4.420   7.684   2.741
  541WAT     H1 1865   4.338   7.677   2.686
  541WAT     H2 1866   4.480   7.754   2.703
  542WAT      O 1867   4.037   6.364   8.671
  542WAT     H1 1868   4.077   6.369   8.762
  542WAT     H2 1869   4.068   6.441   8.616
  543WAT      O 1870   7.634   8.539   4.309
  543WAT     H1 1871   7.642   8.546   4.408
  543WAT     H2 1872   7.719   8.570   4.266
  544WAT      O 1873   3.961   6.794   8.159
  544WAT     H1 1874   3.896   6.752   8.097
  544WAT     H2 1875   3.963   6.893   8.143
  545WAT      O 1876   3.912   1.745   8.164
  545WAT     H1 1877   3.963   1.721   8.081
  545WAT     H2 1878   3.915   1.844   8.177
  546WAT      O 1879   3.300   9.657   3.230
  546WAT     H1 1880   3.326   9.654   3.327
  546WAT     H2 1881   3.279   9.752   3.205
  547WAT      O 1882   0.954   9.837   2.018
  547WAT     H1 1883   0.993   9.921   1.978
  547WAT     H2 1884   0.953   9.765   1.948
  548WAT      O 1885   5.110   0.051   5.276
  548WAT     H1 1886   5.205   0.081   5.274
  548WAT     H2 1887   5.093  -0.013   5.200
  549WAT      O 1888   6.009   7.041   3.828
  549WAT     H1 1889   6.087   7.024   3.768
  549WAT     H2 1890   5.948   7.107   3.784
  550WAT      O 1891   6.469   6.874   6.352
  550WAT     H1 1892   6.459   6.834   6.443
  550WAT     H2 1893   6.418   6.820   6.285
  551WAT      O 1894   8.844   3.300   2.028
  551WAT     H1 1895   8.819   3.222   2.085
  551WAT     H2 1896   8.874   3.267   1.938
  552WAT      O 1897   4.897   3.718   5.756
  552WAT     H1 1898   4.843   3.677   5.683
  552WAT     H2 1899   4.903   3.817   5.742
  553WAT      O 1900   3.363   1.212   6.761
  553WAT     H1 1901   3.354   1.298   6.711
  553WAT     H2 1902   3.349   1.135   6.699
  554WAT      O 1903   4.140   2.329   7.087
  554WAT     H1 1904   4.143   2.236   7.051
  554WAT     H2 1905   4.088   2.388   7.025
  555WAT      O 1906   9.645   5.745   0.158
  555WAT     H1 1907   9.607   5.655   0.179
  555WAT     H2 1908   9.745   5.740   0.158
  556WAT      O 1909   1.376   1.476   1.500
  556WAT     H1 1910   1.409   1.476   1.406
  556WAT     H2 1911   1.401   1.389   1.544
  557WAT      O 1912   1.166   4.136   9.005
  557WAT     H1 1913   1.154   4.073   8.929
  557WAT     H2 1914   1.148   4.089   9.091
  558WAT      O 1915   0.356   6.333   3.597
  558WAT     H1 1916   0.428   6.270   3.567
  558WAT     H2 1917   0.362   6.346   3.696
  559WAT      O 1918   8.348   2.365   7.336
  559WAT     H1 1919   8.443   2.381   7.362
  559WAT     H2 1920   8.335   2.268   7.316
  560WAT      O 1921   4.813   9.141   6.792
  560WAT     H1 1922   4.822   9.203   6.715
  560WAT     H2 1923   4.867   9.175   6.869
  561WAT      O 1924   1.311   4.389   3.319
  561WAT     H1 1925   1.246   4.344   3.381
  561WAT     H2 1926   1.343   4.324   3.251
  562WAT      O 1927   3.547   6.712   3.452
  562WAT     H1 1928   3.468   6.762   3.416
  562WAT     H2 1929   3.517   6.647   3.521
  563WAT      O 1930   6.974   3.586   9.598
  563WAT     H1 1931   6.952   3.548   9.508
  563WAT     H2 1932   6.889   3.598   9.651
  564WAT      O 1933   4.403   7.040   7.950
  564WAT     H1 1934   4.468   6.969   7.974
  564WAT     H2 1935   4.315   6.999   7.927
  565WAT      O 1936   2.319   2.890   3.775
  565WAT     H1 1937   2.219   2.893   3.765
  565WAT     H2 1938   2.349   2.795   3.776
  566WAT      O 1939   3.249   2.542   7.577
  566WAT     H1 1940   3.239   2.569   7.481
  566WAT     H2 1941   3.174   2.483   7.603
  567WAT      O 1942   6.288   8.729   0.998
  567WAT     H1 1943   6.352   8.658   0.968
  567WAT     H2 1944   6.207   8.687   1.036
  568WAT      O 1945   7.732   9.814   7.561
  568WAT     H1 1946   7.685   9.895   7.526
  568WAT     H2 1947   7.686   9.782   7.644
  569WAT      O 1948   7.150   1.184   6.478
  569WAT     H1 1949   7.102   1.132   6.407
  569WAT     H2 1950   7.101   1.176   6.564
  570WAT      O 1951   0.543   2.558   1.433
  570WAT     H1 1952   0.500   2.544   1.343
  570WAT     H2 1953   0.554   2.656   1.450
  571WAT      O 1954   0.096   7.523   9.721
  571WAT     H1 1955   0.088   7.487   9.814
  571WAT     H2 1956   0.099   7.447   9.656
  572WAT      O 1957   5.945   2.847   2.726
  572WAT     H1 1958   5.984   2.902   2.652
  572WAT     H2 1959   5.901   2.907   2.793
  573WAT      O 1960   2.020   5.936   0.185
  573WAT     H1 1961   1.998   6.033   0.174
  573WAT     H2 1962   2.082   5.925   0.263
  574WAT      O 1963   7.517   4.029   0.327
  574WAT     H1 1964   7.511   3.930   0.341
  574WAT     H2 1965   7.613   4.057   0.328
  575WAT      O 1966   5.247   1.231   5.249
  575WAT     H1 1967   5.168   1.223   5.189
  575WAT     H2 1968   5.251   1.323   5.286
  576WAT      O 1969   6.395   8.735   5.572
  576WAT     H1 1970   6.480   8.696   5.607
  576WAT     H2 1971   6.415   8.820   5.523
  577WAT      O 1972   6.709   3.894   9.401
  577WAT     H1 1973   6.677   3.951   9.325
  577WAT     H2 1974   6.705   3.947   9.486
  578WAT      O 1975   2.641   9.722   9.820
  578WAT     H1 1976   2.647   9.647   9.754
  578WAT     H2 1977   2.640   9.685   9.912
  579WAT      O 1978   8.030   8.015   3.161
  579WAT     H1 1979   8.013   8.109   3.189
  579WAT     H2 1980   8.090   8.014   3.082
  580WAT      O 1981   7.508   3.008   9.474
  580WAT     H1 1982   7.443   3.015   9.398
  580WAT     H2 1983   7.601   3.013   9.438
  581WAT      O 1984   1.869   8.344   4.762
  581WAT     H1 1985   1.810   8.354   4.682
  581WAT     H2 1986   1.965   8.345   4.735
  582WAT      O 1987   5.460   1.853   2.417
  582WAT     H1 1988   5.559   1.855   2.422
  582WAT     H2 1989   5.430   1.852   2.322
  583WAT      O 1990   0.739   9.132   6.182
  583WAT     H1 1991   0.785   9.196   6.121
  583WAT     H2 1992   0.758   9.038   6.153
  584WAT      O 1993   5.075   8.547   7.556
  584WAT     H1 1994   5.117   8.481   7.619
  584WAT     H2 1995   5.049   8.629   7.607
  585WAT      O 1996   3.886   0.921   5.224
  585WAT     H1 1997   3.831   0.837   5.222
  585WAT     H2 1998   3.876   0.966   5.313
  586WAT      O 1999   2.209   7.801   3.645
  586WAT     H1 2000   2.181   7.763   3.733
  586WAT     H2 2001   2.160   7.754   3.572
  587WAT      O 2002   1.540   8.815   6.171
  587WAT     H1 2003   1.519   8.845   6.078
  587WAT     H2 2004   1.461   8.766   6.208
  588WAT      O 2005   1.867   3.255   8.864
  588WAT     H1 2006   1.830   3.197   8.937
  588WAT     H2 2007   1.967   3.258   8.872
  589WAT      O 2008   2.257   1.138   7.875
  589WAT     H1 2009   2.290   1.125   7.969
  589WAT     H2 2010   2.191   1.213   7.872
  590WAT      O 2011   6.955   8.411   6.300
  590WAT     H1 2012   6.940   8.322   6.345
  590WAT     H2 2013   6.871   8.465   6.305
  591WAT      O 2014   9.723   9.016   1.587
  591WAT     H1 2015   9.822   9.017   1.596
  591WAT     H2 2016   9.698   8.970   1.502
  592WAT      O 2017   9.129   9.059   0.451
  592WAT     H1 2018   9.188   9.090   0.526
  592WAT     H2 2019   9.172   9.081   0.364
  593WAT      O 2020   4.880   1.725   3.749
  593WAT     H1 2021   4.795   1.761   3.786
  593WAT     H2 2022   4.957   1.761   3.803
  594WAT      O 2023   4.516   5.694   2.901
  594WAT     H1 2024   4.445   5.687   2.971
  594WAT     H2 2025   4.494   5.769   2.838
  595WAT      O 2026   9.191   4.385   1.461
  595WAT     H1 2027   9.243   4.436   1.393
  595WAT     H2 2028   9.176   4.291   1.429
  596WAT      O 2029   2.811   5.842   9.786
  596WAT     H1 2030   2.804   5.926   9.840
  596WAT     H2 2031   2.820   5.865   9.689
  597WAT      O 2032   7.382   9.744   5.336
  597WAT     H1 2033   7.463   9.784   5.292
  597WAT     H2 2034   7.355   9.662   5.287
  598WAT      O 2035   0.551   4.311   6.880
  598WAT     H1 2036   0.586   4.249   6.950
  598WAT     H2 2037   0.573   4.274   6.789
  599WAT      O 2038   6.385   9.266   7.708
  599WAT     H1 2039   6.478   9.249   7.677
  599WAT     H2 2040   6.349   9.348   7.663
  600WAT      O 2041   7.214   0.049   5.480
  600WAT     H1 2042   7.277  -0.001   5.420
  600WAT     H2 2043   7.267   0.097   5.550
  601WAT      O 2044   7.360   8.069   0.840
  601WAT     H1 2045   7.318   8.159   0.826
  601WAT     H2 2046   7.348   8.040   0.935
  602WAT      O 2047   6.527   3.197   2.984
  602WAT     H1 2048   6.476   3.261   2.927
  602WAT     H2 2049   6.602   3.246   3.030
  603WAT      O 2050   6.902   8.756   7.842
  603WAT     H1 2051   6.847   8.703   7.906
  603WAT     H2 2052   6.841   8.801   7.776
  604WAT      O 2053   4.846   0.991   4.551
  604WAT     H1 2054   4.751   1.001   4.579
  604WAT     H2 2055   4.883   0.905   4.585
  605WAT      O 2056   4.481   5.952   6.175
  605WAT     H1 2057   4.439   6.039   6.203
  605WAT     H2 2058   4.534   5.967   6.091
  606WAT      O 2059   5.528   1.027   1.627
  606WAT     H1 2060   5.559   0.979   1.545
  606WAT     H2 2061   5.579   0.993   1.706
  607WAT      O 2062   5.639   7.291   7.912
  607WAT     H1 2063   5.705   7.241   7.856
  607WAT     H2 2064   5.669   7.385   7.923
  608WAT      O 2065   3.140   8.187   7.303
  608WAT     H1 2066   3.154   8.100   7.255
  608WAT     H2 2067   3.178   8.261   7.247
  609WAT      O 2068   9.543   0.269   1.024
  609WAT     H1 2069   9.573   0.200   0.958
  609WAT     H2 2070   9.568   0.360   0.990
  610WAT      O 2071   5.790   2.417   1.987
  610WAT     H1 2072   5.861   2.484   1.967
  610WAT     H2 2073   5.810   2.372   2.074
  611WAT      O 2074   3.767   5.650   0.521
  611WAT     H1 2075   3.848   5.620   0.469
  611WAT     H2 2076   3.684   5.626   0.470
  612WAT      O 2077   7.027   2.600   9.854
  612WAT     H1 2078   7.039   2.502   9.870
  612WAT     H2 2079   7.040   2.650   9.940
  613WAT      O 2080   7.164   3.940   2.888
  613WAT     H1 2081   7.083   3.923   2.943
  613WAT     H2 2082   7.240   3.968   2.947
  614WAT      O 2083   3.528   5.712   7.499
  614WAT     H1 2084   3.504   5.615   7.501
  614WAT     H2 2085   3.620   5.723   7.463
  615WAT      O 2086   0.020   1.215   1.405
  615WAT     H1 2087  -0.020   1.164   1.481
  615WAT     H2 2088  -0.016   1.178   1.318
  616WAT      O 2089   1.358   0.191   0.616
  616WAT     H1 2090   1.292   0.128   0.574
  616WAT     H2 2091   1.330   0.285   0.596
  617WAT      O 2092   8.080   8.020   3.632
  617WAT     H1 2093   8.099   7.941   3.690
  617WAT     H2 2094   8.039   8.093   3.686
  618WAT      O 2095   4.830   0.066   9.529
  618WAT     H1 2096   4.823   0.133   9.456
  618WAT     H2 2097   4.916   0.081   9.579
  619WAT      O 2098   9.261   6.459   4.677
  619WAT     H1 2099   9.168   6.489   4.701
  619WAT     H2 2100   9.295   6.514   4.601
  620WAT      O 2101   0.679   0.469   8.619
  620WAT     H1 2102   0.645   0.376   8.633
  620WAT     H2 2103   0.779   0.468   8.618
  621WAT      O 2104   5.664   3.325   3.695
  621WAT     H1 2105   5.612   3.322   3.779
  621WAT     H2 2106   5.713   3.412   3.689
  622WAT      O 2107   0.406   7.752   6.758
  622WAT     H1 2108   0.460   7.834   6.776
  622WAT     H2 2109   0.337   7.742   6.830
  623WAT      O 2110   9.183   7.595   0.138
  623WAT     H1 2111   9.215   7.502   0.118
  623WAT     H2 2112   9.133   7.594   0.225
  624WAT      O 2113   1.676   0.552   3.098
  624WAT     H1 2114   1.590   0.587   3.061
  624WAT     H2 2115   1.660   0.515   3.190
  625WAT      O 2116   6.366   7.386   9.109
  625WAT     H1 2117   6.367   7.479   9.070
  625WAT     H2 2118   6.460   7.354   9.121
  626WAT      O 2119   6.653   8.712   8.123
  626WAT     H1 2120   6.667   8.803   8.161
  626WAT     H2 2121   6.605   8.720   8.036
  627WAT      O 2122   2.650   2.305   9.103
  627WAT     H1 2123   2.606   2.375   9.047
  627WAT     H2 2124   2.698   2.240   9.045
  628WAT      O 2125   1.145   2.477   0.108
  628WAT     H1 2126   1.106   2.529   0.184
  628WAT     H2 2127   1.130   2.526   0.023
  629WAT      O 2128   3.634   1.209   0.105
  629WAT     H1 2129   3.646   1.147   0.027
  629WAT     H2 2130   3.649   1.159   0.190
  630WAT      O 2131   3.492   3.514   8.325
  630WAT     H1 2132   3.549   3.597   8.326
  630WAT     H2 2133   3.551   3.434   8.336
  631WAT      O 2134   5.423   5.587   8.507
  631WAT     H1 2135   5.396   5.587   8.603
  631WAT     H2 2136   5.422   5.493   8.472
  632WAT      O 2137   0.459   1.327   3.580
  632WAT     H1 2138   0.381   1.361   3.527
  632WAT     H2 2139   0.541   1.376   3.553
  633WAT      O 2140   9.169   7.007   7.823
  633WAT     H1 2141   9.268   7.021   7.828
  633WAT     H2 2142   9.144   6.928   7.879
  634WAT      O 2143   0.323   5.269   0.779
  634WAT     H1 2144   0.385   5.247   0.854
  634WAT     H2 2145   0.273   5.188   0.751
  635WAT      O 2146   1.228   4.101   5.558
  635WAT     H1 2147   1.260   4.036   5.488
  635WAT     H2 2148   1.217   4.191   5.517
  636WAT      O 2149   1.591   2.189   9.882
  636WAT     H1 2150   1.595   2.235   9.970
  636WAT     H2 2151   1.523   2.235   9.824
  637WAT      O 2152   1.146   8.345   1.899
  637WAT     H1 2153   1.230   8.399   1.906
  637WAT     H2 2154   1.133   8.294   1.984
  638WAT      O 2155   1.984   9.214   2.096
  638WAT     H1 2156   2.069   9.264   2.078
  638WAT     H2 2157   1.981   9.132   2.039
  639WAT      O 2158   7.386   2.052   9.569
  639WAT     H1 2159   7.337   2.137   9.551
  639WAT     H2 2160   7.484   2.070   9.573
  640WAT      O 2161   7.294   7.552   5.001
  640WAT     H1 2162   7.358   7.601   4.941
  640WAT     H2 2163   7.206   7.599   5.001
  641WAT      O 2164   8.302   1.477   8.834
  641WAT     H1 2165   8.238   1.406   8.806
  641WAT     H2 2166   8.256   1.542   8.895
  642WAT      O 2167   4.401   6.647   1.001
  642WAT     H1 2168   4.402   6.678   0.906
  642WAT     H2 2169   4.470   6.697   1.053
  643WAT      O 2170   7.807   0.013   3.864
  643WAT     H1 2171   7.775   0.009   3.959
  643WAT     H2 2172   7.744  -0.040   3.806
  644WAT      O 2173   5.968   0.793   3.449
  644WAT     H1 2174   5.988   0.890   3.446
  644WAT     H2 2175   6.052   0.740   3.436
  645WAT      O 2176   7.785   6.736   5.683
  645WAT     H1 2177   7.825   6.691   5.763
  645WAT     H2 2178   7.739   6.669   5.626
  646WAT      O 2179   8.205   9.761   5.494
  646WAT     H1 2180   8.256   9.698   5.435
  646WAT     H2 2181   8.167   9.711   5.572
  647WAT      O 2182   3.978   4.559   0.006
  647WAT     H1 2183   3.907   4.617   0.045
  647WAT     H2 2184   3.976   4.469   0.049
  648WAT      O 2185   7.242   1.555   1.464
  648WAT     H1 2186   7.276   1.622   1.530
  648WAT     H2 2187   7.235   1.597   1.374
  649WAT      O 2188   6.564   3.416   4.821
  649WAT     H1 2189   6.534   3.507   4.848
  649WAT     H2 2190   6.484   3.360   4.800
  650WAT      O 2191   8.792   1.664   7.201
  650WAT     H1 2192   8.777   1.729   7.127
  650WAT     H2 2193   8.881   1.681   7.243
  651WAT      O 2194   2.971   0.580   8.539
  651WAT     H1 2195   2.921   0.564   8.454
  651WAT     H2 2196   2.999   0.492   8.578
  652WAT      O 2197   6.084   6.793   5.602
  652WAT     H1 2198   6.039   6.729   5.540
  652WAT     H2 2199   6.142   6.855   5.549
  653WAT      O 2200   2.617   6.096   2.093
  653WAT     H1 2201   2.543   6.139   2.042
  653WAT     H2 2202   2.684   6.058   2.030
  654WAT      O 2203   3.881   4.627   8.807
  654WAT     H1 2204   3.800   4.634   8.866
  654WAT     H2 2205   3.964   4.635   8.863
  655WAT      O 2206   6.298   1.823   6.805
  655WAT     H1 2207   6.295   1.784   6.713
  655WAT     H2 2208   6.379   1.879   6.815
  656WAT      O 2209   9.337   4.505   1.689
  656WAT     H1 2210   9.271   4.435   1.662
  656WAT     H2 2211   9.420   4.462   1.724
  657WAT      O 2212   0.010   6.292   7.036
  657WAT     H1 2213   0.072   6.255   6.966
  657WAT     H2 2214   0.050   6.276   7.126
  658WAT      O 2215   7.279   2.799   8.259
  658WAT     H1 2216   7.225   2.882   8.246
  658WAT     H2 2217   7.339   2.786   8.181
  659WAT      O 2218   7.615   6.787   5.353
  659WAT     H1 2219   7.712   6.809   5.345
  659WAT     H2 2220   7.603   6.718   5.424
  660WAT      O 2221   3.138   4.943   1.104
  660WAT     H1 2222   3.040   4.927   1.114
  660WAT     H2 2223   3.183   4.858   1.076
  661WAT      O 2224   8.174   6.966   9.620
  661WAT     H1 2225   8.096   6.936   9.565
  661WAT     H2 2226   8.221   7.041   9.572
  662WAT      O 2227   1.970   8.921   2.348
  662WAT     H1 2228   1.885   8.879   2.314
  662WAT     H2 2229   1.971   9.018   2.324
  663WAT      O 2230   0.953   1.404   7.332
  663WAT     H1 2231   1.033   1.449   7.292
  663WAT     H2 2232   0.911   1.345   7.263
  664WAT      O 2233   7.521   9.251   5.937
  664WAT     H1 2234   7.483   9.196   5.862
  664WAT     H2 2235   7.561   9.190   6.006
  665WAT      O 2236   1.179   8.538   6.014
  665WAT     H1 2237   1.236   8.534   5.932
  665WAT     H2 2238   1.161   8.445   6.047
  666WAT      O 2239   8.544   4.576   5.691
  666WAT     H1 2240   8.593   4.654   5.652
  666WAT     H2 2241   8.451   4.574   5.654
  667WAT      O 2242   3.695   9.778   4.135
  667WAT     H1 2243   3.706   9.728   4.050
  667WAT     H2 2244   3.713   9.716   4.212
  668WAT      O 2245   3.783   0.425   5.740
  668WAT     H1 2246   3.712   0.472   5.792
  668WAT     H2 2247   3.762   0.327   5.737
  669WAT      O 2248   2.359   0.267   0.493
  669WAT     H1 2249   2.357   0.168   0.479
  669WAT     H2 2250   2.301   0.291   0.571
  670WAT      O 2251   2.363   0.854   6.901
  670WAT     H1 2252   2.453   0.830   6.866
  670WAT     H2 2253   2.354   0.823   6.996
  671WAT      O 2254   3.043   3.957   8.970
  671WAT     H1 2255   3.049   3.867   8.926
  671WAT     H2 2256   2.976   4.013   8.921
  672WAT      O 2257   7.869   0.335   4.949
  672WAT     H1 2258   7.958   0.303   4.917
  672WAT     H2 2259   7.880   0.415   5.007
  673WAT      O 2260   9.598   9.385   3.595
  673WAT     H1 2261   9.512   9.371   3.644
  673WAT     H2 2262   9.627   9.480   3.605
  674WAT      O 2263   9.017   8.998   7.187
  674WAT     H1 2264   9.096   9.031   7.134
  674WAT     H2 2265   8.959   8.943   7.127
  675WAT      O 2266   9.686   3.089   3.854
  675WAT     H1 2267   9.730   3.109   3.941
  675WAT     H2 2268   9.756   3.088   3.781
  676WAT      O 2269   2.511   8.892   8.226
  676WAT     H1 2270   2.589   8.830   8.238
  676WAT     H2 2271   2.541   8.972   8.175
  677WAT      O 2272   5.496   0.881   2.016
  677WAT     H1 2273   5.565   0.892   1.943
  677WAT     H2 2274   5.405   0.880   1.975
  678WAT      O 2275   7.692   0.789   8.265
  678WAT     H1 2276   7.764   0.753   8.324
  678WAT     H2 2277   7.727   0.798   8.171
  679WAT      O 2278   2.929   5.369   9.225
  679WAT     H1 2279   3.014   5.332   9.188
  679WAT     H2 2280   2.943   5.393   9.322
  680WAT      O 2281   6.306   1.762   6.534
  680WAT     H1 2282   6.363   1.837   6.499
  680WAT     H2 2283   6.362   1.680   6.543
  681WAT      O 2284   8.320   3.778   3.342
  681WAT     H1 2285   8.355   3.861   3.300
  681WAT     H2 2286   8.333   3.701   3.280
  682WAT      O 2287   9.696   8.767   2.998
  682WAT     H1 2288   9.783   8.786   2.953
  682WAT     H2 2289   9.702   8.681   3.048
  683WAT      O 2290   9.361   7.918   6.168
  683WAT     H1 2291   9.416   7.910   6.251
  683WAT     H2 2292   9.282   7.857   6.174
  684WAT      O 2293   4.669   6.380   2.507
  684WAT     H1 2294   4.760   6.402   2.472
  684WAT     H2 2295   4.675   6.307   2.575
  685WAT      O 2296   6.026   1.405   2.418
  685WAT     H1 2297   6.033   1.503   2.437
  685WAT     H2 2298   5.929   1.377   2.419
  686WAT      O 2299   7.188   8.047   1.480
  686WAT     H1 2300   7.272   8.031   1.533
  686WAT     H2 2301   7.109   8.036   1.540
  687WAT      O 2302   7.357   2.904   7.799
  687WAT     H1 2303   7.380   2.829   7.737
  687WAT     H2 2304   7.261   2.930   7.785
  688WAT      O 2305   8.316   4.790   0.814
  688WAT     H1 2306   8.306   4.822   0.720
  688WAT     H2 2307   8.282   4.696   0.821
  689WAT      O 2308   8.726   5.317   7.400
  689WAT     H1 2309   8.733   5.228   7.353
  689WAT     H2 2310   8.630   5.338   7.417
  690WAT      O 2311   3.501   5.439   2.219
  690WAT     H1 2312   3.408   5.450   2.184
  690WAT     H2 2313   3.501   5.457   2.318
  691WAT      O 2314   9.776   7.348   5.105
  691WAT     H1 2315   9.862   7.354   5.054
  691WAT     H2 2316   9.785   7.398   5.191
  692WAT      O 2317   9.885   0.990   3.760
  692WAT     H1 2318   9.785   0.994   3.758
  692WAT     H2 2319   9.915   0.895   3.755
  693WAT      O 2320   1.964   2.737   0.960
  693WAT     H1 2321   1.887   2.675   0.976
  693WAT     H2 2322   2.038   2.688   0.916
  694WAT      O 2323   3.482   9.018   3.934
  694WAT     H1 2324   3.488   9.037   3.836
  694WAT     H2 2325   3.436   9.093   3.980
  695WAT      O 2326   8.088   4.334   4.586
  695WAT     H1 2327   8.082   4.248   4.536
  695WAT     H2 2328   8.132   4.403   4.528
  696WAT      O 2329   1.381   9.195   7.664
  696WAT     H1 2330   1.404   9.117   7.606
  696WAT     H2 2331   1.425   9.277   7.627
  697WAT      O 2332   6.129   9.775   5.485
  697WAT     H1 2333   6.169   9.820   5.405
  697WAT     H2 2334   6.094   9.844   5.548
  698WAT      O 2335   1.609   5.089   3.283
  698WAT     H1 2336   1.648   5.089   3.190
  698WAT     H2 2337   1.514   5.118   3.279
  699WAT      O 2338   9.616   2.607   6.518
  699WAT     H1 2339   9.586   2.532   6.460
  699WAT     H2 2340   9.541   2.672   6.530
  700WAT      O 2341   8.496   2.887   9.012
  700WAT     H1 2342   8.570   2.870   8.947
  700WAT     H2 2343   8.532   2.939   9.090
  701WAT      O 2344   2.527   8.801   6.484
  701WAT     H1 2345   2.607   8.776   6.538
  701WAT     H2 2346   2.487   8.719   6.444
  702WAT      O 2347   0.559   1.394   4.543
  702WAT     H1 2348   0.538   1.474   4.486
  702WAT     H2 2349   0.564   1.422   4.639
  703WAT      O 2350   6.088   7.487   0.385
  703WAT     H1 2351   6.087   7.404   0.442
  703WAT     H2 2352   6.165   7.482   0.321
  704WAT      O 2353   4.592   4.195   9.768
  704WAT     H1 2354   4.638   4.107   9.755
  704WAT     H2 2355   4.508   4.197   9.713
  705WAT      O 2356   0.110   9.035   8.316
  705WAT     H1 2357   0.150   8.969   8.253
  705WAT     H2 2358   0.171   9.047   8.394
  706WAT      O 2359   5.019   7.739   5.217
  706WAT     H1 2360   5.058   7.722   5.308
  706WAT     H2 2361   5.067   7.683   5.149
  707WAT      O 2362   2.182   6.715   4.760
  707WAT     H1 2363   2.094   6.763   4.757
  707WAT     H2 2364   2.178   6.641   4.826
  708WAT      O 2365   5.979   0.220   0.235
  708WAT     H1 2366   6.051   0.234   0.302
  708WAT     H2 2367   6.009   0.152   0.167
  709WAT      O 2368   6.659   3.520   3.864
  709WAT     H1 2369   6.728   3.564   3.922
  709WAT     H2 2370   6.682   3.536   3.768
  710WAT      O 2371   2.764   7.764   5.540
  710WAT     H1 2372   2.820   7.843   5.514
  710WAT     H2 2373   2.710   7.788   5.621
  711WAT      O 2374   4.234   8.960   9.307
  711WAT     H1 2375   4.146   8.931   9.346
  711WAT     H2 2376   4.223   8.976   9.209
  712WAT      O 2377   6.665   6.358   3.005
  712WAT     H1 2378   6.590   6.295   2.982
  712WAT     H2 2379   6.669   6.431   2.937
  713WAT      O 2380   6.442   9.189   2.084
  713WAT     H1 2381   6.480   9.196   1.991
  713WAT     H2 2382   6.385   9.269   2.102
  714WAT      O 2383   5.415   4.713   0.974
  714WAT     H1 2384   5.385   4.683   1.064
  714WAT     H2 2385   5.369   4.659   0.904
  715WAT      O 2386   8.257   3.612   7.706
  715WAT     H1 2387   8.314   3.593   7.627
  715WAT     H2 2388   8.229   3.526   7.749
  716WAT      O 2389   3.030   4.275   9.662
  716WAT     H1 2390   2.945   4.243   9.619
  716WAT     H2 2391   3.063   4.205   9.725
  717WAT      O 2392   2.900   6.249   8.353
  717WAT     H1 2393   2.844   6.166   8.343
  717WAT     H2 2394   2.984   6.227   8.403
  718WAT      O 2395   5.811   9.554   9.368
  718WAT     H1 2396   5.776   9.646   9.352
  718WAT     H2 2397   5.856   9.520   9.285
  719WAT      O 2398   2.603   7.828   5.746
  719WAT     H1 2399   2.643   7.909   5.790
  719WAT     H2 2400   2.517   7.806   5.790
  720WAT      O 2401   4.731   2.148   0.510
  720WAT     H1 2402   4.782   2.107   0.585
  720WAT     H2 2403   4.636   2.117   0.513
  721WAT      O 2404   8.103   5.303   4.950
  721WAT     H1 2405   8.165   5.382   4.943
  721WAT     H2 2406   8.145   5.224   4.906
  722WAT      O 2407   6.447   6.204   2.932
  722WAT     H1 2408   6.435   6.133   2.862
  722WAT     H2 2409   6.386   6.281   2.913
  723WAT      O 2410   6.566   2.183   4.653
  723WAT     H1 2411   6.636   2.112   4.650
  723WAT     H2 2412   6.556   2.223   4.562
  724WAT      O 2413   3.069   4.757   4.185
  724WAT     H1 2414   3.166   4.767   4.161
  724WAT     H2 2415   3.015   4.753   4.101
  725WAT      O 2416   4.867   4.686   6.744
  725WAT     H1 2417   4.913   4.774   6.755
  725WAT     H2 2418   4.798   4.693   6.672
  726WAT      O 2419   2.983   4.093   7.519
  726WAT     H1 2420   2.912   4.110   7.588
  726WAT     H2 2421   3.054   4.162   7.527
  727WAT      O 2422   2.932   4.875   7.083
  727WAT     H1 2423   2.953   4.941   7.156
  727WAT     H2 2424   2.915   4.925   6.998
  728WAT      O 2425   0.873   0.561   2.417
  728WAT     H1 2426   0.797   0.531   2.473
  728WAT     H2 2427   0.930   0.482   2.393
  729WAT      O 2428   6.967   0.573   9.711
  729WAT     H1 2429   6.970   0.550   9.808
  729WAT     H2 2430   6.989   0.491   9.657
  730WAT      O 2431   5.202   5.888   0.978
  730WAT     H1 2432   5.146   5.951   1.032
  730WAT     H2 2433   5.253   5.827   1.039
  731WAT      O 2434   4.562   7.859   4.745
  731WAT     H1 2435   4.511   7.898   4.822
  731WAT     H2 2436   4.501   7.805   4.688
  732WAT      O 2437   7.214   5.872   1.645
  732WAT     H1 2438   7.159   5.822   1.578
  732WAT     H2 2439   7.170   5.959   1.666
  733WAT      O 2440   1.241   1.879   8.611
  733WAT     H1 2441   1.293   1.795   8.626
  733WAT     H2 2442   1.165   1.883   8.677
  734WAT      O 2443   1.942   3.406   1.626
  734WAT     H1 2444   1.863   3.430   1.683
  734WAT     H2 2445   2.014   3.474   1.638
  735WAT      O 2446   1.324   9.648   2.623
  735WAT     H1 2447   1.341   9.579   2.693
  735WAT     H2 2448   1.318   9.603   2.533
  736WAT      O 2449   7.994   9.307   3.670
  736WAT     H1 2450   7.940   9.238   3.717
  736WAT     H2 2451   8.013   9.383   3.733
  737WAT      O 2452   2.981   3.291   8.593
  737WAT     H1 2453   3.074   3.255   8.582
  737WAT     H2 2454   2.959   3.296   8.690
  738WAT      O 2455   1.867   6.202   8.625
  738WAT     H1 2456   1.897   6.243   8.538
  738WAT     H2 2457   1.934   6.133   8.653
  739WAT      O 2458   8.174   9.794   2.262
  739WAT     H1 2459   8.150   9.844   2.344
  739WAT     H2 2460   8.227   9.713   2.287
  740WAT      O 2461   5.939   7.349   5.406
  740WAT     H1 2462   5.958   7.259   5.445
  740WAT     H2 2463   5.845   7.374   5.425
  741WAT      O 2464   6.727   1.517   9.122
  741WAT     H1 2465   6.790   1.489   9.050
  741WAT     H2 2466   6.688   1.606   9.099
  742WAT      O 2467   1.340   1.870   9.156
  742WAT     H1 2468   1.253   1.845   9.200
  742WAT     H2 2469   1.402   1.907   9.224
  743WAT      O 2470   4.353   1.163   9.091
  743WAT     H1 2471   4.451   1.144   9.100
  743WAT     H2 2472   4.302   1.100   9.149
  744WAT      O 2473   6.819   2.500   8.766
  744WAT     H1 2474   6.891   2.439   8.801
  744WAT     H2 2475   6.842   2.595   8.787
  745WAT      O 2476   8.646   9.472   4.274
  745WAT     H1 2477   8.614   9.554   4.228
  745WAT     H2 2478   8.585   9.396   4.253
  746WAT      O 2479   4.998   5.605   2.158
  746WAT     H1 2480   4.976   5.508   2.171
  746WAT     H2 2481   5.021   5.622   2.063
  747WAT      O 2482   2.302   1.532   6.384
  747WAT     H1 2483   2.380   1.485   6.343
  747WAT     H2 2484   2.235   1.554   6.314
  748WAT      O 2485   0.573   1.807   5.973
  748WAT     H1 2486   0.612   1.844   5.889
  748WAT     H2 2487   0.641   1.749   6.018
  749WAT      O 2488   2.624   9.767   1.920
  749WAT     H1 2489   2.680   9.788   2.001
  749WAT     H2 2490   2.571   9.847   1.895
  750WAT      O 2491   7.432   4.423   5.580
  750WAT     H1 2492   7.488   4.467   5.650
  750WAT     H2 2493   7.335   4.438   5.600
  751WAT      O 2494   7.940   6.626   6.947
  751WAT     H1 2495   7.955   6.716   6.907
  751WAT     H2 2496   7.846   6.621   6.982
  752WAT      O 2497   5.835   4.776   2.490
  752WAT     H1 2498   5.798   4.685   2.474
  752WAT     H2 2499   5.843   4.793   2.588
  753WAT      O 2500   3.514   9.223   1.506
  753WAT     H1 2501   3.580   9.148   1.504
  753WAT     H2 2502   3.453   9.212   1.585
  754WAT      O 2503   1.869   6.488   0.640
  754WAT     H1 2504   1.847   6.585   0.644
  754WAT     H2 2505   1.898   6.456   0.730
  755WAT      O 2506   6.774   4.406   4.030
  755WAT     H1 2507   6.776   4.486   3.970
  755WAT     H2 2508   6.680   4.389   4.059
  756WAT      O 2509   6.737   1.244   5.823
  756WAT     H1 2510   6.769   1.174   5.759
  756WAT     H2 2511   6.717   1.328   5.773
  757WAT      O 2512   3.049   6.988   2.259
  757WAT     H1 2513   2.956   6.978   2.294
  757WAT     H2 2514   3.046   7.012   2.162
  758WAT      O 2515   5.924   8.408   2.362
  758WAT     H1 2516   6.009   8.459   2.375
  758WAT     H2 2517   5.850   8.452   2.414
  759WAT      O 2518   2.612   8.157   0.930
  759WAT     H1 2519   2.645   8.075   0.976
  759WAT     H2 2520   2.690   8.212   0.901
  760WAT      O 2521   9.461   7.693   8.970
  760WAT     H1 2522   9.402   7.628   9.017
  760WAT     H2 2523   9.461   7.780   9.019
  761WAT      O 2524   3.780   2.986   0.971
  761WAT     H1 2525   3.690   3.016   0.937
  761WAT     H2 2526   3.807   2.902   0.923
  762WAT      O 2527   9.864   9.547   9.342
  762WAT     H1 2528   9.776   9.583   9.311
  762WAT     H2 2529   9.923   9.622   9.371
  763WAT      O 2530   5.327   5.396   7.391
  763WAT     H1 2531   5.317   5.437   7.481
  763WAT     H2 2532   5.307   5.298   7.395
  764WAT      O 2533   2.279   7.609   1.551
  764WAT     H1 2534   2.291   7.607   1.452
  764WAT     H2 2535   2.192   7.653   1.573
  765WAT      O 2536   7.404   5.006   9.690
  765WAT     H1 2537   7.412   5.099   9.653
  765WAT     H2 2538   7.482   4.988   9.751
  766WAT      O 2539   6.835   7.100   2.227
  766WAT     H1 2540   6.846   7.003   2.203
  766WAT     H2 2541   6.766   7.141   2.168
  767WAT      O 2542   0.678   9.313   7.939
  767WAT     H1 2543   0.644   9.335   8.031
  767WAT     H2 2544   0.738   9.385   7.907
  768WAT      O 2545   7.458   7.045   3.928
  768WAT     H1 2546   7.492   7.010   3.840
  768WAT     H2 2547   7.535   7.084   3.979
  769WAT      O 2548   8.169   6.960   0.598
  769WAT     H1 2549   8.210   6.875   0.567
  769WAT     H2 2550   8.234   7.011   0.654
  770WAT      O 2551   1.186   0.956   6.688
  770WAT     H1 2552   1.181   0.858   6.706
  770WAT     H2 2553   1.270   0.976   6.638
  771WAT      O 2554   4.337   6.423   7.297
  771WAT     H1 2555   4.399   6.408   7.221
  771WAT     H2 2556   4.371   6.498   7.354
  772WAT      O 2557   5.034   9.545   7.218
  772WAT     H1 2558   4.997   9.454   7.200
  772WAT     H2 2559   4.999   9.609   7.148
  773WAT      O 2560   7.274   3.595   1.419
  773WAT     H1 2561   7.196   3.598   1.357
  773WAT     H2 2562   7.280   3.504   1.460
  774WAT      O 2563   0.184   0.351   2.270
  774WAT     H1 2564   0.092   0.379   2.299
  774WAT     H2 2565   0.190   0.251   2.273
  775WAT      O 2566   5.005   3.267   2.122
  775WAT     H1 2567   5.095   3.310   2.113
  775WAT     H2 2568   5.010   3.196   2.192
  776WAT      O 2569   6.090   5.902   6.188
  776WAT     H1 2570   6.047   5.823   6.144
  776WAT     H2 2571   6.136   5.958   6.119
  777WAT      O 2572   1.497   1.162   9.626
  777WAT     H1 2573   1.569   1.134   9.689
  777WAT     H2 2574   1.520   1.251   9.586
  778WAT      O 2575   9.200   1.353   6.086
  778WAT     H1 2576   9.248   1.278   6.131
  778WAT     H2 2577   9.110   1.323   6.057
  779WAT      O 2578   5.962   9.724   3.494
  779WAT     H1 2579   5.885   9.672   3.457
  779WAT     H2 2580   6.041   9.714   3.434
  780WAT      O 2581   8.353   0.194   9.591
  780WAT     H1 2582   8.254   0.187   9.583
  780WAT     H2 2583   8.395   0.161   9.506
  781WAT      O 2584   2.500   2.194   1.694
  781WAT     H1 2585   2.579   2.134   1.694
  781WAT     H2 2586   2.516   2.270   1.758
  782WAT      O 2587   3.992   2.890   8.666
  782WAT     H1 2588   3.985   2.987   8.643
  782WAT     H2 2589   4.040   2.881   8.754
  783WAT      O 2590   7.469   6.994   5.446
  783WAT     H1 2591   7.398   7.046   5.397
  783WAT     H2 2592   7.509   6.927   5.384
  784WAT      O 2593   6.901   9.705   9.095
  784WAT     H1 2594   6.965   9.651   9.041
  784WAT     H2 2595   6.812   9.658   9.097
  785WAT      O 2596   4.536   4.206   5.436
  785WAT     H1 2597   4.500   4.162   5.354
  785WAT     H2 2598   4.598   4.142   5.483
  786WAT      O 2599   8.750   4.798   2.319
  786WAT     H1 2600   8.811   4.871   2.287
  786WAT     H2 2601   8.655   4.824   2.300
  787WAT      O 2602   3.218   0.004   2.053
  787WAT     H1 2603   3.290  -0.065   2.056
  787WAT     H2 2604   3.234   0.072   2.125
  788WAT      O 2605   8.896   3.435   5.628
  788WAT     H1 2606   8.815   3.402   5.675
  788WAT     H2 2607   8.892   3.534   5.619
  789WAT      O 2608   2.026   1.136   4.730
  789WAT     H1 2609   1.933   1.111   4.704
  789WAT     H2 2610   2.023   1.199   4.808
  790WAT      O 2611   2.631   8.560   1.516
  790WAT     H1 2612   2.543   8.602   1.492
  790WAT     H2 2613   2.662   8.504   1.439
  791WAT      O 2614   5.403   3.237   1.066
  791WAT     H1 2615   5.497   3.271   1.073
  791WAT     H2 2616   5.365   3.225   1.158
  792WAT      O 2617   4.260   6.560   4.628
  792WAT     H1 2618   4.260   6.461   4.639
  792WAT     H2 2619   4.241   6.583   4.532
  793WAT      O 2620   1.904   9.796   3.201
  793WAT     H1 2621   1.947   9.828   3.286
  793WAT     H2 2622   1.908   9.696   3.198
  794WAT      O 2623   6.710   8.669   3.289
  794WAT     H1 2624   6.646   8.745   3.298
  794WAT     H2 2625   6.723   8.626   3.379
  795WAT      O 2626   8.897   5.963   1.939
  795WAT     H1 2627   8.950   5.931   1.861
  795WAT     H2 2628   8.897   6.063   1.941
  796WAT      O 2629   3.069   8.312   6.582
  796WAT     H1 2630   3.077   8.368   6.664
  796WAT     H2 2631   3.155   8.313   6.532
  797WAT      O 2632   7.508   2.688   0.648
  797WAT     H1 2633   7.594   2.657   0.689
  797WAT     H2 2634   7.442   2.612   0.648
  798WAT      O 2635   1.693   9.013   7.179
  798WAT     H1 2636   1.602   9.021   7.219
  798WAT     H2 2637   1.750   8.955   7.238
  799WAT      O 2638   6.747   7.308   3.930
  799WAT     H1 2639   6.847   7.311   3.928
  799WAT     H2 2640   6.714   7.343   4.018
  800WAT      O 2641   8.704   6.183   4.069
  800WAT     H1 2642   8.731   6.091   4.098
  800WAT     H2 2643   8.785   6.237   4.048
  801WAT      O 2644   1.185   7.037   0.605
  801WAT     H1 2645   1.265   6.985   0.632
  801WAT     H2 2646   1.159   7.012   0.511
  802WAT      O 2647   9.390   9.427   6.007
  802WAT     H1 2648   9.310   9.388   6.054
  802WAT     H2 2649   9.388   9.401   5.911
  803WAT      O 2650   2.193   3.289   0.280
  803WAT     H1 2651   2.187   3.196   0.243
  803WAT     H2 2652   2.288   3.320   0.274
  804WAT      O 2653   9.222   6.512   0.424
  804WAT     H1 2654   9.245   6.417   0.406
  804WAT     H2 2655   9.125   6.528   0.405
  805WAT      O 2656   7.347   6.665   5.433
  805WAT     H1 2657   7.389   6.706   5.352
  805WAT     H2 2658   7.290   6.588   5.406
  806WAT      O 2659   5.701   5.827   3.986
  806WAT     H1 2660   5.693   5.801   4.082
  806WAT     H2 2661   5.744   5.752   3.935
  807WAT      O 2662   3.249   5.836   8.957
  807WAT     H1 2663   3.178   5.847   9.026
  807WAT     H2 2664   3.253   5.918   8.900
  808WAT      O 2665   1.283   0.061   9.414
  808WAT     H1 2666   1.311  -0.033   9.395
  808WAT     H2 2667   1.350   0.103   9.476
  809WAT      O 2668   0.801   7.086   8.484
  809WAT     H1 2669   0.756   7.002   8.454
  809WAT     H2 2670   0.792   7.095   8.584
  810WAT      O 2671   5.822   7.666   3.444
  810WAT     H1 2672   5.814   7.573   3.409
  810WAT     H2 2673   5.858   7.726   3.372
  811WAT      O 2674   2.917   8.676   2.681
  811WAT     H1 2675   2.841   8.635   2.630
  811WAT     H2 2676   3.001   8.666   2.627
  812WAT      O 2677   1.755   2.048   5.832
  812WAT     H1 2678   1.765   1.949   5.824
  812WAT     H2 2679   1.662   2.069   5.863
  813WAT      O 2680   3.941   6.260   3.956
  813WAT     H1 2681   3.876   6.216   3.894
  813WAT     H2 2682   4.031   6.264   3.913
  814WAT      O 2683   9.260   8.904   6.694
  814WAT     H1 2684   9.301   8.980   6.643
  814WAT     H2 2685   9.162   8.899   6.673
  815WAT      O 2686   6.324   7.501   4.216
  815WAT     H1 2687   6.409   7.449   4.207
  815WAT     H2 2688   6.291   7.526   4.125
  816WAT      O 2689   4.992   7.173   5.644
  816WAT     H1 2690   4.975   7.120   5.560
  816WAT     H2 2691   4.969   7.269   5.628
  817WAT      O 2692   5.112   5.886   9.273
  817WAT     H1 2693   5.039   5.855   9.213
  817WAT     H2 2694   5.093   5.980   9.303
  818WAT      O 2695   9.559   2.000   7.855
  818WAT     H1 2696   9.539   2.096   7.839
  818WAT     H2 2697   9.612   1.963   7.779
  819WAT      O 2698   9.339   2.772   5.569
  819WAT     H1 2699   9.322   2.810   5.660
  819WAT     H2 2700   9.307   2.837   5.500
  820WAT      O 2701   4.823   2.612   1.874
  820WAT     H1 2702   4.792   2.706   1.890
  820WAT     H2 2703   4.828   2.596   1.775
  821WAT      O 2704   1.284   5.847   2.834
  821WAT     H1 2705   1.351   5.861   2.761
  821WAT     H2 2706   1.328   5.861   2.922
  822WAT      O 2707   2.451   7.039   1.357
  822WAT     H1 2708   2.449   7.105   1.432
  822WAT     H2 2709   2.527   6.975   1.372
  823WAT      O 2710   6.080   5.935   5.776
  823WAT     H1 2711   6.001   5.888   5.816
  823WAT     H2 2712   6.162   5.879   5.788
  824WAT      O 2713   6.355   0.061   3.442
  824WAT     H1 2714   6.279   0.074   3.506
  824WAT     H2 2715   6.420   0.136   3.454
  825WAT      O 2716   3.231   6.151   7.836
  825WAT     H1 2717   3.191   6.062   7.856
  825WAT     H2 2718   3.263   6.153   7.741
  826WAT      O 2719   9.325   3.937   9.827
  826WAT     H1 2720   9.245   3.945   9.886
  826WAT     H2 2721   9.323   4.009   9.758
  827WAT      O 2722   8.391   2.818   0.167
  827WAT     H1 2723   8.303   2.778   0.194
  827WAT     H2 2724   8.393   2.914   0.193
  828WAT      O 2725   8.709   0.256   4.898
  828WAT     H1 2726   8.714   0.317   4.818
  828WAT     H2 2727   8.614   0.232   4.915
  829WAT      O 2728   4.100   2.460   4.770
  829WAT     H1 2729   4.139   2.447   4.861
  829WAT     H2 2730   4.008   2.500   4.779
  830WAT      O 2731   9.281   0.012   3.614
  830WAT     H1 2732   9.364   0.069   3.608
  830WAT     H2 2733   9.234   0.030   3.700
  831WAT      O 2734   5.588   5.795   9.077
  831WAT     H1 2735   5.588   5.781   8.978
  831WAT     H2 2736   5.498   5.829   9.106
  832WAT      O 2737   5.028   0.507   9.146
  832WAT     H1 2738   5.021   0.483   9.049
  832WAT     H2 2739   5.064   0.429   9.197
  833WAT      O 2740   8.333   3.255   0.110
  833WAT     H1 2741   8.292   3.171   0.145
  833WAT     H2 2742   8.280   3.334   0.141
  834WAT      O 2743   1.629   4.554   7.968
  834WAT     H1 2744   1.686   4.533   8.048
  834WAT     H2 2745   1.568   4.477   7.949
  835WAT      O 2746   5.800   9.392   4.931
  835WAT     H1 2747   5.769   9.315   4.987
  835WAT     H2 2748   5.722   9.439   4.891
  836WAT      O 2749   6.365   8.718   6.571
  836WAT     H1 2750   6.295   8.721   6.499
  836WAT     H2 2751   6.437   8.783   6.549
  837WAT      O 2752   7.265   8.420   2.239
  837WAT     H1 2753   7.335   8.416   2.311
  837WAT     H2 2754   7.175   8.428   2.281
  838WAT      O 2755   0.379   7.024   0.985
  838WAT     H1 2756   0.474   7.020   0.956
  838WAT     H2 2757   0.326   6.955   0.936
  839WAT      O 2758   7.120   1.558   9.147
  839WAT     H1 2759   7.097   1.628   9.215
  839WAT     H2 2760   7.164   1.602   9.068
  840WAT      O 2761   5.652   7.021   3.400
  840WAT     H1 2762   5.733   7.004   3.457
  840WAT     H2 2763   5.681   7.041   3.306
  841WAT      O 2764   0.676   8.572   2.862
  841WAT     H1 2765   0.721   8.486   2.839
  841WAT     H2 2766   0.731   8.621   2.929
  842WAT      O 2767   5.438   6.153   3.338
  842WAT     H1 2768   5.484   6.104   3.412
  842WAT     H2 2769   5.499   6.223   3.302
  843WAT      O 2770   5.185   5.432   3.021
  843WAT     H1 2771   5.241   5.355   2.991
  843WAT     H2 2772   5.204   5.511   2.963
  844WAT      O 2773   4.591   1.916   9.479
  844WAT     H1 2774   4.663   1.978   9.447
  844WAT     H2 2775   4.623   1.866   9.560
  845WAT      O 2776   2.330   1.164   0.579
  845WAT     H1 2777   2.323   1.254   0.535
  845WAT     H2 2778   2.281   1.165   0.666
  846WAT      O 2779   0.439   0.331   1.106
  846WAT     H1 2780   0.505   0.317   1.180
  846WAT     H2 2781   0.358   0.378   1.142
  847WAT      O 2782   3.471   0.365   0.332
  847WAT     H1 2783   3.482   0.267   0.316
  847WAT     H2 2784   3.523   0.392   0.413
  848WAT      O 2785   8.840   9.463   1.049
  848WAT     H1 2786   8.877   9.393   1.110
  848WAT     H2 2787   8.885   9.551   1.068
  849WAT      O 2788   7.724   1.616   6.462
  849WAT     H1 2789   7.649   1.661   6.412
  849WAT     H2 2790   7.801   1.601   6.400
  850WAT      O 2791   3.049   7.045   5.221
  850WAT     H1 2792   3.068   6.984   5.298
  850WAT     H2 2793   2.952   7.066   5.217
  851WAT      O 2794   0.435   7.388   2.770
  851WAT     H1 2795   0.416   7.395   2.868
  851WAT     H2 2796   0.440   7.291   2.743
  852WAT      O 2797   3.059   8.565   0.844
  852WAT     H1 2798   3.147   8.590   0.803
  852WAT     H2 2799   2.992   8.549   0.771
  853WAT      O 2800   6.176   3.977   7.160
  853WAT     H1 2801   6.272   3.949   7.157
  853WAT     H2 2802   6.165   4.064   7.112
  854WAT      O 2803   4.884   0.907   8.845
  854WAT     H1 2804   4.806   0.931   8.903
  854WAT     H2 2805   4.862   0.827   8.790
  855WAT      O 2806   9.741   1.310   1.067
  855WAT     H1 2807   9.672   1.294   0.996
  855WAT     H2 2808   9.793   1.226   1.082
  856WAT      O 2809   5.412   1.359   6.273
  856WAT     H1 2810   5.315   1.373   6.293
  856WAT     H2 2811   5.421   1.307   6.188
  857WAT      O 2812   5.507   5.383   6.004
  857WAT     H1 2813   5.409   5.401   6.015
  857WAT     H2 2814   5.524   5.348   5.912
  858WAT      O 2815   9.708   7.499   7.635
  858WAT     H1 2816   9.683   7.511   7.731
  858WAT     H2 2817   9.757   7.413   7.623
  859WAT      O 2818   5.404   2.620   1.004
  859WAT     H1 2819   5.414   2.650   1.099
  859WAT     H2 2820   5.307   2.607   0.983
  860WAT      O 2821   3.020   6.227   8.883
  860WAT     H1 2822   2.966   6.184   8.956
  860WAT     H2 2823   2.963   6.234   8.801
  861WAT      O 2824   9.887   0.912   8.822
  861WAT     H1 2825   9.846   0.833   8.777
  861WAT     H2 2826   9.817   0.962   8.872
  862WAT      O 2827   1.923   2.723   0.254
  862WAT     H1 2828   1.839   2.764   0.288
  862WAT     H2 2829   1.987   2.796   0.228
  863WAT      O 2830   3.964   8.238   6.191
  863WAT     H1 2831   3.952   8.331   6.157
  863WAT     H2 2832   3.936   8.233   6.287
  864WAT      O 2833   5.968   1.153   9.840
  864WAT     H1 2834   5.899   1.225   9.833
  864WAT     H2 2835   5.930   1.075   9.891
  865WAT      O 2836   4.358   3.589   0.613
  865WAT     H1 2837   4.431   3.639   0.659
  865WAT     H2 2838   4.333   3.508   0.666
  866WAT      O 2839   7.710   2.770   1.826
  866WAT     H1 2840   7.782   2.806   1.884
  866WAT     H2 2841   7.653   2.845   1.792
  867WAT      O 2842   4.371   3.140   9.875
  867WAT     H1 2843   4.309   3.210   9.910
  867WAT     H2 2844   4.409   3.089   9.952
  868WAT      O 2845   9.284   5.116   6.913
  868WAT     H1 2846   9.244   5.077   6.996
  868WAT     H2 2847   9.319   5.208   6.934
  869WAT      O 2848   9.268   7.494   9.005
  869WAT     H1 2849   9.216   7.441   8.939
  869WAT     H2 2850   9.207   7.530   9.075
  870WAT      O 2851   4.605   4.368   6.010
  870WAT     H1 2852   4.691   4.363   5.961
  870WAT     H2 2853   4.532   4.398   5.948
  871WAT      O 2854   2.578   7.811   8.709
  871WAT     H1 2855   2.640   7.806   8.631
  871WAT     H2 2856   2.555   7.719   8.740
  872WAT      O 2857   8.285   8.174   9.268
  872WAT     H1 2858   8.337   8.088   9.269
  872WAT     H2 2859   8.226   8.177   9.349
  873WAT      O 2860   4.190   1.599   0.863
  873WAT     H1 2861   4.199   1.678   0.803
  873WAT     H2 2862   4.177   1.630   0.957
  874WAT      O 2863   5.974   4.925   0.855
  874WAT     H1 2864   5.994   4.985   0.933
  874WAT     H2 2865   6.037   4.847   0.856
  875WAT      O 2866   8.558   3.819   6.635
  875WAT     H1 2867   8.650   3.780   6.635
  875WAT     H2 2868   8.522   3.818   6.541
  876WAT      O 2869   7.976   7.080   5.164
  876WAT     H1 2870   7.987   7.174   5.134
  876WAT     H2 2871   8.016   7.068   5.255
  877WAT      O 2872   8.522   9.612   2.836
  877WAT     H1 2873   8.564   9.529   2.873
  877WAT     H2 2874   8.584   9.653   2.770
  878WAT      O 2875   1.986   9.117   6.847
  878WAT     H1 2876   1.992   9.084   6.753
  878WAT     H2 2877   1.895   9.099   6.883
  879WAT      O 2878   9.779   3.488   3.286
  879WAT     H1 2879   9.773   3.427   3.208
  879WAT     H2 2880   9.735   3.446   3.365
  880WAT      O 2881   5.836   9.788   3.732
  880WAT     H1 2882   5.836   9.887   3.748
  880WAT     H2 2883   5.889   9.767   3.650
  881WAT      O 2884   3.368   6.344   0.691
  881WAT     H1 2885   3.313   6.418   0.653
  881WAT     H2 2886   3.310   6.286   0.749
  882WAT      O 2887   2.104   6.362   6.523
  882WAT     H1 2888   2.142   6.391   6.435
  882WAT     H2 2889   2.046   6.435   6.560
  883WAT      O 2890   7.130   2.163   5.647
  883WAT     H1 2891   7.175   2.206   5.726
  883WAT     H2 2892   7.184   2.179   5.565
  884WAT      O 2893   8.968   4.039   9.063
  884WAT     H1 2894   8.993   4.087   9.147
  884WAT     H2 2895   9.006   3.946   9.065
  885WAT      O 2896   7.028   5.467   4.616
  885WAT     H1 2897   6.971   5.493   4.538
  885WAT     H2 2898   7.009   5.372   4.641
  886WAT      O 2899   9.511   8.348   2.172
  886WAT     H1 2900   9.597   8.343   2.121
  886WAT     H2 2901   9.468   8.436   2.156
  887WAT      O 2902   9.046   8.857   7.575
  887WAT     H1 2903   9.022   8.791   7.504
  887WAT     H2 2904   9.087   8.938   7.533
  888WAT      O 2905   7.058   7.849   6.649
  888WAT     H1 2906   7.001   7.930   6.637
  888WAT     H2 2907   7.020   7.773   6.596
  889WAT      O 2908   1.652   8.092   5.758
  889WAT     H1 2909   1.701   8.013   5.721
  889WAT     H2 2910   1.578   8.118   5.696
  890WAT      O 2911   4.231   1.616   7.565
  890WAT     H1 2912   4.242   1.711   7.595
  890WAT     H2 2913   4.137   1.587   7.581
  891WAT      O 2914   6.438   8.050   1.667
  891WAT     H1 2915   6.344   8.058   1.701
  891WAT     H2 2916   6.439   8.068   1.568
  892WAT      O 2917   1.554   2.170   7.732
  892WAT     H1 2918   1.553   2.216   7.821
  892WAT     H2 2919   1.637   2.195   7.682
  893WAT      O 2920   4.311   3.418   5.892
  893WAT     H1 2921   4.225   3.371   5.910
  893WAT     H2 2922   4.300   3.480   5.815
  894WAT      O 2923   3.282   8.710   5.911
  894WAT     H1 2924   3.289   8.674   6.004
  894WAT     H2 2925   3.186   8.725   5.889
  895WAT      O 2926   0.582   6.990   1.305
  895WAT     H1 2927   0.637   7.008   1.387
  895WAT     H2 2928   0.599   6.897   1.273
  896WAT      O 2929   1.964   2.653   3.942
  896WAT     H1 2930   1.957   2.563   3.899
  896WAT     H2 2931   2.041   2.655   4.005
  897WAT      O 2932   4.541   2.471   8.115
  897WAT     H1 2933   4.592   2.550   8.081
  897WAT     H2 2934   4.452   2.501   8.149
  898WAT      O 2935   2.166   1.607   0.184
  898WAT     H1 2936   2.155   1.635   0.089
  898WAT     H2 2937   2.080   1.622   0.233
  899WAT      O 2938   3.115   1.040   3.418
  899WAT     H1 2939   3.079   1.133   3.420
  899WAT     H2 2940   3.159   1.019   3.506
  900WAT      O 2941   4.302   1.413   0.378
  900WAT     H1 2942   4.368   1.434   0.450
  900WAT     H2 2943   4.350   1.407   0.290
  901WAT      O 2944   3.079   1.820   4.802
  901WAT     H1 2945   3.033   1.880   4.867
  901WAT     H2 2946   3.174   1.847   4.793
  902WAT      O 2947   6.699   8.389   8.233
  902WAT     H1 2948   6.773   8.434   8.182
  902WAT     H2 2949   6.621   8.375   8.172
  903WAT      O 2950   0.691   8.050   8.052
  903WAT     H1 2951   0.625   8.123   8.064
  903WAT     H2 2952   0.768   8.083   7.997
  904WAT      O 2953   8.866   2.573   0.418
  904WAT     H1 2954   8.936   2.616   0.476
  904WAT     H2 2955   8.874   2.609   0.325
  905WAT      O 2956   0.864   8.228   8.369
  905WAT     H1 2957   0.789   8.162   8.381
  905WAT     H2 2958   0.832   8.303   8.310
  906WAT      O 2959   5.004   1.072   3.395
  906WAT     H1 2960   5.002   1.029   3.485
  906WAT     H2 2961   5.031   1.006   3.326
  907WAT      O 2962   4.677   7.575   7.596
  907WAT     H1 2963   4.583   7.558   7.567
  907WAT     H2 2964   4.730   7.491   7.588
  908WAT      O 2965   4.857   7.174   3.675
  908WAT     H1 2966   4.812   7.169   3.764
  908WAT     H2 2967   4.825   7.255   3.626
  909WAT      O 2968   7.702   7.379   6.447
  909WAT     H1 2969   7.716   7.436   6.528
  909WAT     H2 2970   7.785   7.326   6.429
  910WAT      O 2971   5.761   1.323   2.406
  910WAT     H1 2972   5.788   1.226   2.410
  910WAT     H2 2973   5.732   1.353   2.497
  911WAT      O 2974   3.708   9.121   5.007
  911WAT     H1 2975   3.808   9.128   5.011
  911WAT     H2 2976   3.682   9.035   4.964
  912WAT      O 2977   3.594   5.465   2.928
  912WAT     H1 2978   3.529   5.467   3.004
  912WAT     H2 2979   3.683   5.496   2.960
  913WAT      O 2980   8.065   0.685   5.934
  913WAT     H1 2981   7.975   0.645   5.915
  913WAT     H2 2982   8.136   0.620   5.908
  914WAT      O 2983   6.262   1.622   2.894
  914WAT     H1 2984   6.211   1.584   2.972
  914WAT     H2 2985   6.360   1.621   2.915
  915WAT      O 2986   1.037   9.598   8.818
  915WAT     H1 2987   1.074   9.536   8.887
  915WAT     H2 2988   1.057   9.562   8.727
  916WAT      O 2989   3.542   3.893   4.619
  916WAT     H1 2990   3.451   3.875   4.657
  916WAT     H2 2991   3.597   3.810   4.623
  917WAT      O 2992   3.621   2.461   7.140
  917WAT     H1 2993   3.560   2.501   7.209
  917WAT     H2 2994   3.674   2.535   7.097
  918WAT      O 2995   5.858   6.951   3.579
  918WAT     H1 2996   5.848   6.855   3.605
  918WAT     H2 2997   5.905   7.001   3.652
  919WAT      O 2998   6.149   3.288   6.888
  919WAT     H1 2999   6.084   3.217   6.861
  919WAT     H2 3000   6.150   3.360   6.818
  920WAT      O 3001   0.579   6.866   9.794
  920WAT     H1 3002   0.589   6.876   9.893
  920WAT     H2 3003   0.663   6.897   9.748
  921WAT      O 3004   2.216   9.781   6.744
  921WAT     H1 3005   2.171   9.771   6.833
  921WAT     H2 3006   2.158   9.743   6.672
  922WAT      O 3007   2.864   1.002   1.289
  922WAT     H1 3008   2.768   0.990   1.261
  922WAT     H2 3009   2.869   1.073   1.360
  923WAT      O 3010   2.152   0.299   4.498
  923WAT     H1 3011   2.240   0.308   4.450
  923WAT     H2 3012   2.104   0.386   4.498
  924WAT      O 3013   8.440   2.318   5.234
  924WAT     H1 3014   8.460   2.260   5.155
  924WAT     H2 3015   8.513   2.385   5.246
  925WAT      O 3016   6.804   7.103   8.566
  925WAT     H1 3017   6.878   7.170   8.559
  925WAT     H2 3018   6.774   7.077   8.474
  926WAT      O 3019   6.338   8.033   8.448
  926WAT     H1 3020   6.247   8.046   8.407
  926WAT     H2 3021   6.349   8.098   8.523
  927WAT      O 3022   2.026   3.123   6.191
  927WAT     H1 3023   1.937   3.159   6.164
  927WAT     H2 3024   2.031   3.026   6.169
  928WAT      O 3025   2.813   5.594   6.775
  928WAT     H1 3026   2.745   5.566   6.843
  928WAT     H2 3027   2.846   5.686   6.796
  929WAT      O 3028   9.812   7.790   4.431
  929WAT     H1 3029   9.810   7.804   4.530
  929WAT     H2 3030   9.747   7.718   4.406
  930WAT      O 3031   2.218   4.359   3.640
  930WAT     H1 3032   2.118   4.357   3.646
  930WAT     H2 3033   2.251   4.272   3.602
  931WAT      O 3034   5.135   6.459   2.541
  931WAT     H1 3035   5.096   6.523   2.608
  931WAT     H2 3036   5.133   6.366   2.579
  932WAT      O 3037   3.818   5.743   6.661
  932WAT     H1 3038   3.871   5.659   6.656
  932WAT     H2 3039   3.740   5.729   6.722
  933WAT      O 3040   2.981   2.902   3.803
  933WAT     H1 3041   2.917   2.845   3.751
  933WAT     H2 3042   2.964   2.892   3.901
  934WAT      O 3043   4.012   0.554   9.641
  934WAT     H1 3044   3.988   0.468   9.687
  934WAT     H2 3045   4.108   0.575   9.656
  935WAT      O 3046   3.475   8.556   0.019
  935WAT     H1 3047   3.484   8.634  -0.042
  935WAT     H2 3048   3.384   8.516   0.010
  936WAT      O 3049   7.898   2.402   6.035
  936WAT     H1 3050   7.909   2.453   6.120
  936WAT     H2 3051   7.862   2.463   5.964
  937WAT      O 3052   6.945   5.362   0.317
  937WAT     H1 3053   6.962   5.384   0.222
  937WAT     H2 3054   7.014   5.296   0.349
  938WAT      O 3055   7.562   4.858   9.465
  938WAT     H1 3056   7.488   4.859   9.532
  938WAT     H2 3057   7.650   4.873   9.512
  939WAT      O 3058   6.825   6.922   8.764
  939WAT     H1 3059   6.918   6.901   8.792
  939WAT     H2 3060   6.826   6.998   8.699
  940WAT      O 3061   4.043   9.462   0.157
  940WAT     H1 3062   3.985   9.381   0.166
  940WAT     H2 3063   3.989   9.544   0.179
  941WAT      O 3064   7.862   4.296   6.395
  941WAT     H1 3065   7.901   4.333   6.480
  941WAT     H2 3066   7.914   4.216   6.366
  942WAT      O 3067   2.378   5.240   9.418
  942WAT     H1 3068   2.416   5.148   9.409
  942WAT     H2 3069   2.445   5.307   9.383
  943WAT      O 3070   3.711   6.322   7.748
  943WAT     H1 3071   3.790   6.316   7.687
  943WAT     H2 3072   3.670   6.413   7.741
  944WAT      O 3073   5.975   8.993   4.010
  944WAT     H1 3074   5.995   8.979   3.913
  944WAT     H2 3075   5.952   9.089   4.026
  945WAT      O 3076   2.808   8.411   6.514
  945WAT     H1 3077   2.766   8.376   6.430
  945WAT     H2 3078   2.885   8.353   6.539
  946WAT      O 3079   9.756   2.923   5.903
  946WAT     H1 3080   9.684   2.865   5.941
  946WAT     H2 3081   9.768   3.003   5.961
  947WAT      O 3082   6.408   6.995   1.452
  947WAT     H1 3083   6.346   7.060   1.495
  947WAT     H2 3084   6.403   6.907   1.500
  948WAT      O 3085   3.068   8.758   0.044
  948WAT     H1 3086   3.147   8.699   0.030
  948WAT     H2 3087   3.079   8.841  -0.010
  949WAT      O 3088   6.337   2.278   7.984
  949WAT     H1 3089   6.350   2.376   7.997
  949WAT     H2 3090   6.398   2.228   8.045
  950WAT      O 3091   8.562   1.368   7.400
  950WAT     H1 3092   8.476   1.400   7.361
  950WAT     H2 3093   8.542   1.312   7.481
  951WAT      O 3094   5.724   7.554   7.975
  951WAT     H1 3095   5.777   7.578   8.056
  951WAT     H2 3096   5.681   7.635   7.938
  952WAT      O 3097   0.656   5.875   3.312
  952WAT     H1 3098   0.601   5.793   3.327
  952WAT     H2 3099   0.695   5.906   3.400
  953WAT      O 3100   8.538   0.333   6.932
  953WAT     H1 3101   8.635   0.354   6.918
  953WAT     H2 3102   8.529   0.252   6.990
  954WAT      O 3103   0.024   5.451   7.881
  954WAT     H1 3104   0.092   5.492   7.942
  954WAT     H2 3105  -0.058   5.509   7.878
  955WAT      O 3106   8.329   2.012   5.055
  955WAT     H1 3107   8.286   2.015   4.965
  955WAT     H2 3108   8.367   1.921   5.071
  956WAT      O 3109   4.534   7.428   2.686
  956WAT     H1 3110   4.497   7.489   2.755
  956WAT     H2 3111   4.524   7.470   2.595
  957WAT      O 3112   3.895   5.269   4.596
  957WAT     H1 3113   3.911   5.175   4.627
  957WAT     H2 3114   3.982   5.310   4.567
  958WAT      O 3115   5.649   5.249   2.014
  958WAT     H1 3116   5.626   5.156   1.984
  958WAT     H2 3117   5.576   5.312   1.987
  959WAT      O 3118   1.217   9.725   3.692
  959WAT     H1 3119   1.143   9.663   3.718
  959WAT     H2 3120   1.280   9.677   3.631
  960WAT      O 3121   3.512   6.725   0.722
  960WAT     H1 3122   3.561   6.641   0.744
  960WAT     H2 3123   3.485   6.724   0.626
  961WAT      O 3124   2.142   3.902   9.454
  961WAT     H1 3125   2.153   4.001   9.443
  961WAT     H2 3126   2.073   3.869   9.389
  962WAT      O 3127   2.706   9.358   7.887
  962WAT     H1 3128   2.802   9.360   7.917
  962WAT     H2 3129   2.693   9.281   7.824
  963WAT      O 3130   9.679   4.444   7.357
  963WAT     H1 3131   9.742   4.522   7.354
  963WAT     H2 3132   9.659   4.414   7.264
  964WAT      O 3133   0.098   3.277   8.697
  964WAT     H1 3134   0.044   3.196   8.673
  964WAT     H2 3135   0.083   3.300   8.793
  965WAT      O 3136   0.624   1.957   4.804
  965WAT     H1 3137   0.661   2.049   4.807
  965WAT     H2 3138   0.644   1.916   4.715
  966WAT      O 3139   6.949   5.880   9.853
  966WAT     H1 3140   6.983   5.919   9.938
  966WAT     H2 3141   6.859   5.840   9.867
  967WAT      O 3142   2.003   1.395   5.398
  967WAT     H1 3143   2.076   1.464   5.408
  967WAT     H2 3144   1.916   1.441   5.382
  968WAT      O 3145   1.746   2.586   1.613
  968WAT     H1 3146   1.693   2.620   1.535
  968WAT     H2 3147   1.729   2.488   1.625
  969WAT      O 3148   5.919   1.672   5.961
  969WAT     H1 3149   5.865   1.588   5.955
  969WAT     H2 3150   5.957   1.694   5.871
  970WAT      O 3151   0.062   5.005   4.311
  970WAT     H1 3152  -0.012   4.942   4.289
  970WAT     H2 3153   0.079   5.065   4.232
  971WAT      O 3154   3.250   7.792   7.628
  971WAT     H1 3155   3.318   7.846   7.580
  971WAT     H2 3156   3.295   7.721   7.683
  972WAT      O 3157   3.296   6.956   8.650
  972WAT     H1 3158   3.342   6.947   8.738
  972WAT     H2 3159   3.344   7.024   8.594
  973WAT      O 3160   6.638   6.267   5.564
  973WAT     H1 3161   6.626   6.366   5.571
  973WAT     H2 3162   6.734   6.246   5.546
  974WAT      O 3163   4.241   0.939   9.227
  974WAT     H1 3164   4.302   0.895   9.162
  974WAT     H2 3165   4.149   0.901   9.216
  975WAT      O 3166   9.054   6.929   0.212
  975WAT     H1 3167   9.133   6.901   0.267
  975WAT     H2 3168   8.981   6.861   0.221
  976WAT      O 3169   3.297   7.105   0.455
  976WAT     H1 3170   3.330   7.039   0.387
  976WAT     H2 3171   3.349   7.190   0.446
  977WAT      O 3172   1.506   2.250   2.389
  977WAT     H1 3173   1.423   2.258   2.444
  977WAT     H2 3174   1.586   2.259   2.449
  978WAT      O 3175   0.870   5.669   5.807
  978WAT     H1 3176   0.961   5.695   5.777
  978WAT     H2 3177   0.811   5.750   5.808
  979WAT      O 3178   0.909   4.830   1.198
  979WAT     H1 3179   0.923   4.915   1.147
  979WAT     H2 3180   0.912   4.752   1.134
  980WAT      O 3181   2.023   5.806   5.243
  980WAT     H1 3182   1.985   5.894   5.273
  980WAT     H2 3183   1.960   5.732   5.267
  981WAT      O 3184   9.158   0.859   4.353
  981WAT     H1 3185   9.114   0.921   4.288
  981WAT     H2 3186   9.156   0.900   4.444
  982WAT      O 3187   5.065   3.016   5.905
  982WAT     H1 3188   5.121   3.000   5.824
  982WAT     H2 3189   4.974   2.977   5.891
  983WAT      O 3190   8.431   9.471   7.873
  983WAT     H1 3191   8.417   9.537   7.798
  983WAT     H2 3192   8.469   9.519   7.952
  984WAT      O 3193   1.548   6.057   5.955
  984WAT     H1 3194   1.563   6.132   6.020
  984WAT     H2 3195   1.593   5.974   5.988
  985WAT      O 3196   3.919   6.040   4.438
  985WAT     H1 3197   3.959   5.950   4.455
  985WAT     H2 3198   3.824   6.029   4.407
  986WAT      O 3199   7.917   2.874   0.222
  986WAT     H1 3200   7.836   2.817   0.238
  986WAT     H2 3201   7.999   2.819   0.238
  987WAT      O 3202   2.168   3.376   0.710
  987WAT     H1 3203   2.252   3.366   0.657
  987WAT     H2 3204   2.190   3.387   0.807
  988WAT      O 3205   2.967   1.394   7.235
  988WAT     H1 3206   2.991   1.297   7.241
  988WAT     H2 3207   2.885   1.411   7.289
  989WAT      O 3208   9.821   8.168   5.249
  989WAT     H1 3209   9.857   8.241   5.307
  989WAT     H2 3210   9.789   8.207   5.163
  990WAT      O 3211   5.916   7.671   7.573
  990WAT     H1 3212   5.948   7.638   7.662
  990WAT     H2 3213   5.964   7.756   7.549
  991WAT      O 3214   3.396   8.259   0.211
  991WAT     H1 3215   3.484   8.245   0.167
  991WAT     H2 3216   3.322   8.229   0.151
  992WAT      O 3217   4.763   6.875   2.443
  992WAT     H1 3218   4.676   6.825   2.442
  992WAT     H2 3219   4.815   6.850   2.525
  993WAT      O 3220   2.998   7.084   0.046
  993WAT     H1 3221   2.906   7.124   0.042
  993WAT     H2 3222   2.997   7.006   0.110
  994WAT      O 3223   9.830   2.090   6.707
  994WAT     H1 3224   9.819   2.144   6.790
  994WAT     H2 3225   9.913   2.034   6.714
  995WAT      O 3226   9.892   8.879   4.591
  995WAT     H1 3227   9.856   8.969   4.616
  995WAT     H2 3228   9.818   8.812   4.591
  996WAT      O 3229   3.369   1.574   6.244
  996WAT     H1 3230   3.434   1.553   6.318
  996WAT     H2 3231   3.420   1.588   6.159
  997WAT      O 3232   3.165   4.543   1.235
  997WAT     H1 3233   3.091   4.600   1.269
  997WAT     H2 3234   3.128   4.456   1.201
  998WAT      O 3235   9.069   3.613   3.119
  998WAT     H1 3236   9.147   3.553   3.141
  998WAT     H2 3237   8.984   3.569   3.146
  999WAT      O 3238   5.410   8.476   7.892
  999WAT     H1 3239   5.362   8.562   7.874
  999WAT     H2 3240   5.509   8.491   7.883
 1000WAT      O 3241   2.644   2.392   6.245
 1000WAT     H1 3242   2.736   2.423   6.219
 1000WAT     H2 3243   2.652   2.309   6.301
 1001WAT      O 3244   2.405   2.959   6.466
 1001WAT     H1 3245   2.495   2.963   6.422
 1001WAT     H2 3246   2.372   3.052   6.481
 1002WAT      O 3247   7.103   0.301   4.413
 1002WAT     H1 3248   7.093   0.282   4.511
 1002WAT     H2 3249   7.017   0.284   4.367
 1003WAT      O 3250   6.465   8.582   1.462
 1003WAT     H1 3251   6.381   8.577   1.517
 1003WAT     H2 3252   6.443   8.618   1.371
 1004WAT      O 3253   9.184   2.725   8.685
 1004WAT     H1 3254   9.178   2.761   8.778
 1004WAT     H2 3255   9.280   2.712   8.661
 1005WAT      O 3256   1.046   7.552   1.216
 1005WAT     H1 3257   0.963   7.531   1.268
 1005WAT     H2 3258   1.035   7.641   1.171
 1006WAT      O 3259   8.739   6.517   7.610
 1006WAT     H1 3260   8.719   6.453   7.684
 1006WAT     H2 3261   8.654   6.541   7.562
 1007WAT      O 3262   4.675   0.105   8.838
 1007WAT     H1 3263   4.576   0.089   8.849
 1007WAT     H2 3264   4.711   0.041   8.771
 1008WAT      O 3265   8.933   0.171   3.740
 1008WAT     H1 3266   8.948   0.268   3.720
 1008WAT     H2 3267   8.976   0.148   3.827
 1009WAT      O 3268   5.851   6.406   7.420
 1009WAT     H1 3269   5.828   6.479   7.356
 1009WAT     H2 3270   5.819   6.431   7.511
 1010WAT      O 3271   7.522   8.869   5.528
 1010WAT     H1 3272   7.506   8.879   5.430
 1010WAT     H2 3273   7.446   8.818   5.569
 1011WAT      O 3274   0.768   8.564   8.782
 1011WAT     H1 3275   0.706   8.558   8.703
 1011WAT     H2 3276   0.838   8.492   8.774
 1012WAT      O 3277   8.974   4.866   3.856
 1012WAT     H1 3278   8.990   4.923   3.936
 1012WAT     H2 3279   9.045   4.796   3.850
 1013WAT      O 3280   1.836   9.607   4.271
 1013WAT     H1 3281   1.906   9.652   4.326
 1013WAT     H2 3282   1.749   9.656   4.280
 1014WAT      O 3283   3.705   8.731   6.566
 1014WAT     H1 3284   3.610   8.749   6.591
 1014WAT     H2 3285   3.767   8.777   6.630
 1015WAT      O 3286   0.131   8.880   8.050
 1015WAT     H1 3287   0.158   8.817   8.123
 1015WAT     H2 3288   0.201   8.951   8.040
 1016WAT      O 3289   9.540   3.966   2.613
 1016WAT     H1 3290   9.634   3.935   2.623
 1016WAT     H2 3291   9.508   4.005   2.700
 1017WAT      O 3292   7.176   8.725   4.556
 1017WAT     H1 3293   7.257   8.784   4.560
 1017WAT     H2 3294   7.143   8.709   4.648
 1018WAT      O 3295   6.266   9.530   4.127
 1018WAT     H1 3296   6.329   9.579   4.067
 1018WAT     H2 3297   6.199   9.481   4.072
 1019WAT      O 3298   0.862   6.261   8.680
 1019WAT     H1 3299   0.895   6.227   8.769
 1019WAT     H2 3300   0.776   6.310   8.694
 1020WAT      O 3301   6.107   4.545   7.250
 1020WAT     H1 3302   6.063   4.466   7.207
 1020WAT     H2 3303   6.156   4.598   7.180
 1021WAT      O 3304   1.370   3.650   8.478
 1021WAT     H1 3305   1.383   3.553   8.499
 1021WAT     H2 3306   1.445   3.681   8.419
 1022WAT      O 3307   9.363   5.486   8.503
 1022WAT     H1 3308   9.395   5.393   8.524
 1022WAT     H2 3309   9.439   5.540   8.467
 1023WAT      O 3310   3.902   0.933   3.622
 1023WAT     H1 3311   3.819   0.947   3.568
 1023WAT     H2 3312   3.918   1.012   3.680
 1024WAT      O 3313   6.989   6.171   9.642
 1024WAT     H1 3314   6.918   6.187   9.711
 1024WAT     H2 3315   7.047   6.094   9.671
 1025WAT      O 3316   2.667   7.263   6.651
 1025WAT     H1 3317   2.728   7.261   6.730
 1025WAT     H2 3318   2.684   7.183   6.594
 1026WAT      O 3319   7.678   3.181   8.529
 1026WAT     H1 3320   7.711   3.167   8.622
 1026WAT     H2 3321   7.584   3.148   8.521
 1027WAT      O 3322   4.324   8.097   5.256
 1027WAT     H1 3323   4.253   8.124   5.191
 1027WAT     H2 3324   4.345   8.000   5.243
 1028WAT      O 3325   9.319   6.426   0.953
 1028WAT     H1 3326   9.368   6.511   0.934
 1028WAT     H2 3327   9.283   6.389   0.867
 1029WAT      O 3328   2.053   5.050   9.103
 1029WAT     H1 3329   2.060   5.031   9.006
 1029WAT     H2 3330   1.959   5.034   9.133
 1030WAT      O 3331   1.125   9.305   6.463
 1030WAT     H1 3332   1.039   9.294   6.413
 1030WAT     H2 3333   1.138   9.227   6.525
 1031WAT      O 3334   3.142   9.368   3.441
 1031WAT     H1 3335   3.184   9.442   3.493
 1031WAT     H2 3336   3.213   9.305   3.409
 1032WAT      O 3337   8.625   4.708   4.626
 1032WAT     H1 3338   8.629   4.807   4.635
 1032WAT     H2 3339   8.605   4.667   4.715
 1033WAT      O 3340   6.373   3.726   8.100
 1033WAT     H1 3341   6.453   3.746   8.156
 1033WAT     H2 3342   6.294   3.711   8.159
 1034WAT      O 3343   7.103   9.155   2.841
 1034WAT     H1 3344   7.062   9.134   2.929
 1034WAT     H2 3345   7.189   9.105   2.830
 1035WAT      O 3346   0.868   8.864   5.511
 1035WAT     H1 3347   0.838   8.938   5.451
 1035WAT     H2 3348   0.830   8.877   5.602
 1036WAT      O 3349   0.984   4.030   3.768
 1036WAT     H1 3350   0.980   4.084   3.684
 1036WAT     H2 3351   0.892   4.011   3.800
 1037WAT      O 3352   0.958   5.796   2.218
 1037WAT     H1 3353   0.875   5.743   2.198
 1037WAT     H2 3354   0.932   5.881   2.264
 1038WAT      O 3355   4.301   2.436   9.511
 1038WAT     H1 3356   4.294   2.535   9.501
 1038WAT     H2 3357   4.366   2.414   9.584
 1039WAT      O 3358   6.196   7.461   9.849
 1039WAT     H1 3359   6.253   7.387   9.814
 1039WAT     H2 3360   6.100   7.445   9.824
 1040WAT      O 3361   2.833   0.453   5.953
 1040WAT     H1 3362   2.925   0.491   5.942
 1040WAT     H2 3363   2.839   0.353   5.954
 1041WAT      O 3364   1.363   8.117   2.565
 1041WAT     H1 3365   1.397   8.203   2.604
 1041WAT     H2 3366   1.293   8.079   2.626
 1042WAT      O 3367   6.053   7.377   3.149
 1042WAT     H1 3368   6.054   7.344   3.244
 1042WAT     H2 3369   6.133   7.341   3.101
 1043WAT      O 3370   6.677   7.309   3.255
 1043WAT     H1 3371   6.577   7.313   3.258
 1043WAT     H2 3372   6.715   7.371   3.324
 1044WAT      O 3373   5.724   4.820   8.805
 1044WAT     H1 3374   5.788   4.859   8.740
 1044WAT     H2 3375   5.768   4.745   8.854
 1045WAT      O 3376   5.100   6.433   5.645
 1045WAT     H1 3377   5.048   6.433   5.560
 1045WAT     H2 3378   5.171   6.504   5.641
 1046WAT      O 3379   1.049   1.546   6.737
 1046WAT     H1 3380   1.120   1.571   6.803
 1046WAT     H2 3381   1.001   1.629   6.707
 1047WAT      O 3382   7.575   3.521   6.906
 1047WAT     H1 3383   7.593   3.539   7.003
 1047WAT     H2 3384   7.515   3.441   6.897
 1048WAT      O 3385   0.739   0.310   8.944
 1048WAT     H1 3386   0.644   0.285   8.928
 1048WAT     H2 3387   0.799   0.252   8.889
 1049WAT      O 3388   3.252   4.362   2.058
 1049WAT     H1 3389   3.300   4.399   2.137
 1049WAT     H2 3390   3.163   4.406   2.048
 1050WAT      O 3391   0.688   8.119   9.358
 1050WAT     H1 3392   0.687   8.020   9.375
 1050WAT     H2 3393   0.593   8.153   9.356
 1051WAT      O 3394   6.073   1.890   2.829
 1051WAT     H1 3395   6.015   1.967   2.854
 1051WAT     H2 3396   6.026   1.805   2.852
 1052WAT      O 3397   5.904   2.003   6.172
 1052WAT     H1 3398   5.940   1.983   6.081
 1052WAT     H2 3399   5.825   1.943   6.190
 1053WAT      O 3400   2.890   5.756   0.956
 1053WAT     H1 3401   2.910   5.674   0.902
 1053WAT     H2 3402   2.839   5.730   1.038
 1054WAT      O 3403   5.590   5.901   2.931
 1054WAT     H1 3404   5.583   5.975   2.864
 1054WAT     H2 3405   5.521   5.915   3.002
 1055WAT      O 3406   0.527   2.414   0.005
 1055WAT     H1 3407   0.443   2.439   0.053
 1055WAT     H2 3408   0.592   2.373   0.069
 1056WAT      O 3409   3.204   7.607   6.413
 1056WAT     H1 3410   3.216   7.631   6.510
 1056WAT     H2 3411   3.211   7.508   6.403
 1057WAT      O 3412   8.833   7.730   1.206
 1057WAT     H1 3413   8.897   7.666   1.162
 1057WAT     H2 3414   8.840   7.819   1.161
 1058WAT      O 3415   0.243   6.092   6.231
 1058WAT     H1 3416   0.193   6.102   6.317
 1058WAT     H2 3417   0.255   5.995   6.211
 1059WAT      O 3418   3.532   2.662   9.640
 1059WAT     H1 3419   3.610   2.717   9.613
 1059WAT     H2 3420   3.555   2.608   9.721
 1060WAT      O 3421   4.068   8.006   0.351
 1060WAT     H1 3422   3.993   7.996   0.286
 1060WAT     H2 3423   4.031   8.022   0.443
 1061WAT      O 3424   6.453   1.541   6.564
 1061WAT     H1 3425   6.467   1.469   6.633
 1061WAT     H2 3426   6.512   1.522   6.485
 1062WAT      O 3427   6.886   5.061   8.998
 1062WAT     H1 3428   6.889   5.016   9.087
 1062WAT     H2 3429   6.800   5.110   8.988
 1063WAT      O 3430   2.236   8.704   4.101
 1063WAT     H1 3431   2.202   8.680   4.010
 1063WAT     H2 3432   2.240   8.622   4.158
 1064WAT      O 3433   0.967   6.129   4.356
 1064WAT     H1 3434   0.876   6.149   4.320
 1064WAT     H2 3435   1.025   6.211   4.348
 1065WAT      O 3436   0.375   3.746   2.563
 1065WAT     H1 3437   0.447   3.777   2.626
 1065WAT     H2 3438   0.288   3.744   2.611
 1066WAT      O 3439   3.872   6.724   4.621
 1066WAT     H1 3440   3.857   6.625   4.617
 1066WAT     H2 3441   3.852   6.764   4.531
 1067WAT      O 3442   6.704   9.793   7.318
 1067WAT     H1 3443   6.772   9.805   7.245
 1067WAT     H2 3444   6.643   9.872   7.321
 1068WAT      O 3445   2.548   9.813   7.147
 1068WAT     H1 3446   2.522   9.765   7.063
 1068WAT     H2 3447   2.566   9.746   7.219
 1069WAT      O 3448   0.446   2.584   7.548
 1069WAT     H1 3449   0.383   2.643   7.496
 1069WAT     H2 3450   0.395   2.537   7.620
 1070WAT      O 3451   1.754   9.162   1.402
 1070WAT     H1 3452   1.795   9.071   1.393
 1070WAT     H2 3453   1.747   9.186   1.498
 1071WAT      O 3454   3.845   7.069   0.031
 1071WAT     H1 3455   3.857   7.040   0.126
 1071WAT     H2 3456   3.856   6.990  -0.030
 1072WAT      O 3457   7.547   9.085   8.217
 1072WAT     H1 3458   7.547   8.987   8.201
 1072WAT     H2 3459   7.533   9.133   8.131
 1073WAT      O 3460   0.391   4.909   2.479
 1073WAT     H1 3461   0.297   4.927   2.450
 1073WAT     H2 3462   0.391   4.843   2.554
 1074WAT      O 3463   4.654   8.063   2.845
 1074WAT     H1 3464   4.555   8.050   2.834
 1074WAT     H2 3465   4.670   8.130   2.918
 1075WAT      O 3466   3.514   8.544   2.522
 1075WAT     H1 3467   3.606   8.563   2.486
 1075WAT     H2 3468   3.453   8.619   2.496
 1076WAT      O 3469   8.180   3.550   8.488
 1076WAT     H1 3470   8.206   3.456   8.511
 1076WAT     H2 3471   8.157   3.599   8.572
 1077WAT      O 3472   6.116   1.241   8.634
 1077WAT     H1 3473   6.060   1.207   8.558
 1077WAT     H2 3474   6.067   1.227   8.720
 1078WAT      O 3475   0.247   1.691   4.754
 1078WAT     H1 3476   0.281   1.607   4.712
 1078WAT     H2 3477   0.275   1.694   4.850
 1079WAT      O 3478   1.022   2.093   0.494
 1079WAT     H1 3479   0.954   2.147   0.543
 1079WAT     H2 3480   1.042   2.136   0.407
 1080WAT      O 3481   4.094   7.930   9.539
 1080WAT     H1 3482   4.157   7.966   9.470
 1080WAT     H2 3483   4.146   7.884   9.611
 1081WAT      O 3484   6.719   5.175   6.317
 1081WAT     H1 3485   6.654   5.235   6.363
 1081WAT     H2 3486   6.776   5.129   6.385
 1082WAT      O 3487   2.549   3.780   0.838
 1082WAT     H1 3488   2.508   3.841   0.905
 1082WAT     H2 3489   2.489   3.702   0.821
 1083WAT      O 3490   9.797   7.496   8.019
 1083WAT     H1 3491   9.817   7.430   8.092
 1083WAT     H2 3492   9.709   7.474   7.978
 1084WAT      O 3493   1.508   4.717   2.037
 1084WAT     H1 3494   1.519   4.671   2.125
 1084WAT     H2 3495   1.479   4.652   1.967
 1085WAT      O 3496   1.472   3.704   3.436
 1085WAT     H1 3497   1.433   3.742   3.519
 1085WAT     H2 3498   1.413   3.727   3.358
 1086WAT      O 3499   1.008   0.746   2.572
 1086WAT     H1 3500   1.039   0.828   2.523
 1086WAT     H2 3501   0.981   0.676   2.507
 1087WAT      O 3502   1.839   3.658   1.261
 1087WAT     H1 3503   1.859   3.589   1.331
 1087WAT     H2 3504   1.754   3.705   1.285
 1088WAT      O 3505   0.887   0.826   0.628
 1088WAT     H1 3506   0.817   0.883   0.584
 1088WAT     H2 3507   0.845   0.741   0.660
 1089WAT      O 3508   9.051   4.919   2.027
 1089WAT     H1 3509   9.104   4.980   1.968
 1089WAT     H2 3510   9.030   4.834   1.978
 1090WAT      O 3511   4.293   2.851   0.266
 1090WAT     H1 3512   4.378   2.832   0.315
 1090WAT     H2 3513   4.289   2.797   0.183
 1091WAT      O 3514   4.087   3.462   6.163
 1091WAT     H1 3515   4.166   3.402   6.176
 1091WAT     H2 3516   4.111   3.535   6.100
 1092WAT      O 3517   3.618   7.794   0.598
 1092WAT     H1 3518   3.518   7.801   0.596
 1092WAT     H2 3519   3.649   7.786   0.693
 1093WAT      O 3520   8.825   1.574   4.708
 1093WAT     H1 3521   8.823   1.643   4.781
 1093WAT     H2 3522   8.906   1.590   4.650
 1094WAT      O 3523   7.787   7.033   2.949
 1094WAT     H1 3524   7.712   6.972   2.924
 1094WAT     H2 3525   7.823   7.076   2.866
 1095WAT      O 3526   1.546   0.371   9.626
 1095WAT     H1 3527   1.549   0.310   9.546
 1095WAT     H2 3528   1.456   0.414   9.631
 1096WAT      O 3529   3.908   2.129   8.710
 1096WAT     H1 3530   3.849   2.065   8.662
 1096WAT     H2 3531   3.975   2.078   8.765
 1097WAT      O 3532   8.620   0.767   8.007
 1097WAT     H1 3533   8.556   0.712   8.061
 1097WAT     H2 3534   8.576   0.796   7.922
 1098WAT      O 3535   5.748   5.796   4.677
 1098WAT     H1 3536   5.696   5.712   4.663
 1098WAT     H2 3537   5.726   5.835   4.767
 1099WAT      O 3538   0.297   9.712   9.191
 1099WAT     H1 3539   0.287   9.776   9.267
 1099WAT     H2 3540   0.257   9.624   9.216
 1100WAT      O 3541   8.536   5.686   3.194
 1100WAT     H1 3542   8.571   5.685   3.101
 1100WAT     H2 3543   8.456   5.746   3.199
 1101WAT      O 3544   3.410   9.763   4.407
 1101WAT     H1 3545   3.435   9.815   4.326
 1101WAT     H2 3546   3.428   9.666   4.391
 1102WAT      O 3547   7.270   3.222   1.532
 1102WAT     H1 3548   7.205   3.150   1.558
 1102WAT     H2 3549   7.295   3.276   1.612
 1103WAT      O 3550   5.541   5.945   5.260
 1103WAT     H1 3551   5.498   6.023   5.305
 1103WAT     H2 3552   5.503   5.860   5.295
 1104WAT      O 3553   2.411   6.920   1.739
 1104WAT     H1 3554   2.327   6.916   1.683
 1104WAT     H2 3555   2.387   6.947   1.832
 1105WAT      O 3556   0.520   4.935   4.677
 1105WAT     H1 3557   0.551   4.850   4.634
 1105WAT     H2 3558   0.530   5.011   4.612
 1106WAT      O 3559   0.913   2.977   4.438
 1106WAT     H1 3560   0.896   3.021   4.350
 1106WAT     H2 3561   0.827   2.967   4.487
 1107WAT      O 3562   7.030   7.089   2.972
 1107WAT     H1 3563   6.962   7.045   2.914
 1107WAT     H2 3564   7.115   7.037   2.969
 1108WAT      O 3565   4.656   7.193   4.828
 1108WAT     H1 3566   4.652   7.117   4.763
 1108WAT     H2 3567   4.567   7.202   4.873
 1109WAT      O 3568   5.568   9.603   5.542
 1109WAT     H1 3569   5.597   9.511   5.567
 1109WAT     H2 3570   5.538   9.605   5.447
 1110WAT      O 3571   5.754   8.762   3.272
 1110WAT     H1 3572   5.802   8.704   3.337
 1110WAT     H2 3573   5.812   8.778   3.192
 1111WAT      O 3574   3.617   6.746   1.068
 1111WAT     H1 3575   3.527   6.707   1.091
 1111WAT     H2 3576   3.675   6.746   1.150
 1112WAT      O 3577   0.254   0.396   6.337
 1112WAT     H1 3578   0.163   0.417   6.299
 1112WAT     H2 3579   0.323   0.407   6.266
 1113WAT      O 3580   7.560   7.851   4.613
 1113WAT     H1 3581   7.630   7.813   4.673
 1113WAT     H2 3582   7.548   7.792   4.533
 1114WAT      O 3583   1.490   4.469   4.786
 1114WAT     H1 3584   1.545   4.484   4.868
 1114WAT     H2 3585   1.395   4.495   4.805
 1115WAT      O 3586   2.939   3.125   4.411
 1115WAT     H1 3587   3.005   3.129   4.336
 1115WAT     H2 3588   2.920   3.217   4.445
 1116WAT      O 3589   8.656   6.460   4.215
 1116WAT     H1 3590   8.620   6.477   4.123
 1116WAT     H2 3591   8.730   6.525   4.234
 1117WAT      O 3592   0.628   9.190   2.400
 1117WAT     H1 3593   0.579   9.186   2.313
 1117WAT     H2 3594   0.563   9.179   2.475
 1118WAT      O 3595   9.563   9.496   2.706
 1118WAT     H1 3596   9.560   9.541   2.796
 1118WAT     H2 3597   9.559   9.397   2.718
 1119WAT      O 3598   8.558   8.023   6.204
 1119WAT     H1 3599   8.569   7.925   6.186
 1119WAT     H2 3600   8.537   8.070   6.118
 1120WAT      O 3601   9.838   1.468   1.413
 1120WAT     H1 3602   9.851   1.371   1.393
 1120WAT     H2 3603   9.920   1.505   1.456
 1121WAT      O 3604   1.265   4.238   2.773
 1121WAT     H1 3605   1.264   4.149   2.727
 1121WAT     H2 3606   1.346   4.289   2.745
 1122WAT      O 3607   9.674   5.324   7.575
 1122WAT     H1 3608   9.697   5.372   7.490
 1122WAT     H2 3609   9.597   5.369   7.619
 1123WAT      O 3610   8.435   6.726   7.208
 1123WAT     H1 3611   8.438   6.731   7.108
 1123WAT     H2 3612   8.453   6.817   7.246
 1124WAT      O 3613   2.265   1.878   8.336
 1124WAT     H1 3614   2.168   1.902   8.338
 1124WAT     H2 3615   2.280   1.804   8.270
 1125WAT      O 3616   6.040   3.760   6.561
 1125WAT     H1 3617   5.991   3.828   6.506
 1125WAT     H2 3618   6.004   3.761   6.654
 1126WAT      O 3619   0.309   5.322   1.955
 1126WAT     H1 3620   0.369   5.402   1.955
 1126WAT     H2 3621   0.232   5.338   1.893
 1127WAT      O 3622   2.986   8.090   3.838
 1127WAT     H1 3623   3.027   8.050   3.757
 1127WAT     H2 3624   3.033   8.056   3.920
 1128WAT      O 3625   6.343   0.874   3.511
 1128WAT     H1 3626   6.441   0.871   3.494
 1128WAT     H2 3627   6.301   0.788   3.481
 1129WAT      O 3628   8.941   5.778   3.008
 1129WAT     H1 3629   9.004   5.829   3.067
 1129WAT     H2 3630   8.922   5.689   3.049
 1130WAT      O 3631   8.564   8.360   8.992
 1130WAT     H1 3632   8.567   8.333   9.088
 1130WAT     H2 3633   8.472   8.341   8.956
 1131WAT      O 3634   0.858   8.148   7.849
 1131WAT     H1 3635   0.808   8.232   7.831
 1131WAT     H2 3636   0.875   8.099   7.763
 1132WAT      O 3637   9.370   1.751   9.795
 1132WAT     H1 3638   9.425   1.780   9.716
 1132WAT     H2 3639   9.292   1.813   9.805
 1133WAT      O 3640   6.312   5.131   6.317
 1133WAT     H1 3641   6.287   5.222   6.351
 1133WAT     H2 3642   6.245   5.064   6.349
 1134WAT      O 3643   4.694   5.298   1.563
 1134WAT     H1 3644   4.656   5.206   1.572
 1134WAT     H2 3645   4.775   5.295   1.504
 1135WAT      O 3646   4.451   1.544   0.877
 1135WAT     H1 3647   4.355   1.557   0.852
 1135WAT     H2 3648   4.500   1.631   0.871
 1136WAT      O 3649   4.934   2.250   0.100
 1136WAT     H1 3650   4.905   2.259   0.195
 1136WAT     H2 3651   4.870   2.192   0.051
 1137WAT      O 3652   6.859   4.634   7.969
 1137WAT     H1 3653   6.790   4.671   7.908
 1137WAT     H2 3654   6.815   4.598   8.052
 1138WAT      O 3655   2.159   8.560   4.562
 1138WAT     H1 3656   2.211   8.642   4.537
 1138WAT     H2 3657   2.081   8.550   4.499
 1139WAT      O 3658   9.888   3.540   4.513
 1139WAT     H1 3659   9.930   3.517   4.426
 1139WAT     H2 3660   9.829   3.465   4.542
 1140WAT      O 3661   7.286   2.170   3.045
 1140WAT     H1 3662   7.227   2.206   2.973
 1140WAT     H2 3663   7.292   2.236   3.120
 1141WAT      O 3664   6.371   1.605   8.612
 1141WAT     H1 3665   6.422   1.600   8.698
 1141WAT     H2 3666   6.358   1.513   8.576
 1142WAT      O 3667   4.342   4.248   9.622
 1142WAT     H1 3668   4.360   4.211   9.531
 1142WAT     H2 3669   4.339   4.348   9.619
 1143WAT      O 3670   8.428   3.613   4.148
 1143WAT     H1 3671   8.514   3.601   4.196
 1143WAT     H2 3672   8.428   3.558   4.064
 1144WAT      O 3673   9.160   7.634   0.420
 1144WAT     H1 3674   9.137   7.731   0.407
 1144WAT     H2 3675   9.079   7.578   0.406
 1145WAT      O 3676   7.277   2.142   1.698
 1145WAT     H1 3677   7.261   2.047   1.674
 1145WAT     H2 3678   7.191   2.193   1.692
 1146WAT      O 3679   5.341   5.007   4.719
 1146WAT     H1 3680   5.353   5.092   4.668
 1146WAT     H2 3681   5.321   5.028   4.814
 1147WAT      O 3682   2.848   5.705   6.014
 1147WAT     H1 3683   2.857   5.606   6.027
 1147WAT     H2 3684   2.772   5.723   5.951
 1148WAT      O 3685   1.990   1.180   9.446
 1148WAT     H1 3686   1.945   1.159   9.533
 1148WAT     H2 3687   1.962   1.113   9.377
 1149WAT      O 3688   0.554   5.570   5.084
 1149WAT     H1 3689   0.636   5.518   5.060
 1149WAT     H2 3690   0.571   5.668   5.069
 1150WAT      O 3691   5.148   1.430   7.407
 1150WAT     H1 3692   5.226   1.394   7.356
 1150WAT     H2 3693   5.174   1.446   7.502
 1151WAT      O 3694   9.273   0.518   1.922
 1151WAT     H1 3695   9.280   0.569   2.008
 1151WAT     H2 3696   9.291   0.421   1.939
 1152WAT      O 3697   7.957   7.776   6.227
 1152WAT     H1 3698   8.035   7.837   6.209
 1152WAT     H2 3699   7.878   7.807   6.174
 1153WAT      O 3700   2.901   9.732   4.415
 1153WAT     H1 3701   2.991   9.753   4.453
 1153WAT     H2 3702   2.874   9.804   4.352
 1154WAT      O 3703   4.680   5.003   4.759
 1154WAT     H1 3704   4.654   4.978   4.666
 1154WAT     H2 3705   4.638   5.090   4.784
 1155WAT      O 3706   1.278   0.321   6.173
 1155WAT     H1 3707   1.332   0.285   6.096
 1155WAT     H2 3708   1.324   0.401   6.211
 1156WAT      O 3709   8.824   3.633   9.117
 1156WAT     H1 3710   8.780   3.547   9.143
 1156WAT     H2 3711   8.791   3.662   9.027
 1157WAT      O 3712   5.306   3.576   3.279
 1157WAT     H1 3713   5.386   3.621   3.238
 1157WAT     H2 3714   5.229   3.582   3.215
 1158WAT      O 3715   1.770   3.085   2.008
 1158WAT     H1 3716   1.814   3.151   1.947
 1158WAT     H2 3717   1.841   3.035   2.059
 1159WAT      O 3718   6.202   9.603   0.284
 1159WAT     H1 3719   6.227   9.631   0.377
 1159WAT     H2 3720   6.102   9.603   0.275
 1160WAT      O 3721   9.247   2.029   4.000
 1160WAT     H1 3722   9.177   1.959   4.015
 1160WAT     H2 3723   9.240   2.063   3.907
 1161WAT      O 3724   1.846   0.927   6.583
 1161WAT     H1 3725   1.815   0.854   6.522
 1161WAT     H2 3726   1.936   0.960   6.553
 1162WAT      O 3727   1.166   9.119   8.057
 1162WAT     H1 3728   1.121   9.209   8.053
 1162WAT     H2 3729   1.265   9.132   8.064
 1163WAT      O 3730   9.221   8.729   2.771
 1163WAT     H1 3731   9.321   8.723   2.773
 1163WAT     H2 3732   9.191   8.817   2.807
 1164WAT      O 3733   2.121   2.192   8.910
 1164WAT     H1 3734   2.062   2.272   8.900
 1164WAT     H2 3735   2.087   2.118   8.853
 1165WAT      O 3736   3.860   6.729   5.935
 1165WAT     H1 3737   3.892   6.816   5.974
 1165WAT     H2 3738   3.767   6.712   5.967
 1166WAT      O 3739   1.559   4.413   6.243
 1166WAT     H1 3740   1.542   4.363   6.158
 1166WAT     H2 3741   1.650   4.454   6.239
 1167WAT      O 3742   5.125   0.054   9.418
 1167WAT     H1 3743   5.110   0.030   9.514
 1167WAT     H2 3744   5.207   0.007   9.384
 1168WAT      O 3745   8.624   7.687   2.788
 1168WAT     H1 3746   8.639   7.749   2.712
 1168WAT     H2 3747   8.574   7.735   2.861
 1169WAT      O 3748   4.690   4.558   2.570
 1169WAT     H1 3749   4.698   4.569   2.669
 1169WAT     H2 3750   4.740   4.477   2.541
 1170WAT      O 3751   1.235   8.613   6.552
 1170WAT     H1 3752   1.310   8.659   6.506
 1170WAT     H2 3753   1.253   8.515   6.556
 1171WAT      O 3754   2.205   8.832   4.506
 1171WAT     H1 3755   2.282   8.873   4.455
 1171WAT     H2 3756   2.121   8.878   4.479
 1172WAT      O 3757   6.383   1.445   6.131
 1172WAT     H1 3758   6.400   1.424   6.035
 1172WAT     H2 3759   6.414   1.369   6.188
 1173WAT      O 3760   0.040   6.172   9.552
 1173WAT     H1 3761  -0.046   6.129   9.579
 1173WAT     H2 3762   0.079   6.122   9.475
 1174WAT      O 3763   1.028   3.243   3.614
 1174WAT     H1 3764   1.105   3.217   3.673
 1174WAT     H2 3765   0.978   3.319   3.656
 1175WAT      O 3766   6.288   0.722   5.026
 1175WAT     H1 3767   6.267   0.676   4.940
 1175WAT     H2 3768   6.241   0.677   5.101
 1176WAT      O 3769   3.830   1.303   6.529
 1176WAT     H1 3770   3.800   1.396   6.553
 1176WAT     H2 3771   3.804   1.240   6.602
 1177WAT      O 3772   1.725   1.267   5.788
 1177WAT     H1 3773   1.718   1.170   5.809
 1177WAT     H2 3774   1.671   1.288   5.706
 1178WAT      O 3775   5.590   1.199   8.937
 1178WAT     H1 3776   5.511   1.141   8.914
 1178WAT     H2 3777   5.632   1.232   8.853
 1179WAT      O 3778   5.527   8.730   7.214
 1179WAT     H1 3779   5.505   8.716   7.310
 1179WAT     H2 3780   5.601   8.796   7.205
 1180WAT      O 3781   7.165   8.735   0.741
 1180WAT     H1 3782   7.218   8.699   0.665
 1180WAT     H2 3783   7.124   8.822   0.714
 1181WAT      O 3784   1.641   5.817   9.302
 1181WAT     H1 3785   1.616   5.906   9.264
 1181WAT     H2 3786   1.573   5.790   9.370
 1182WAT      O 3787   2.755   2.072   0.711
 1182WAT     H1 3788   2.753   2.049   0.808
 1182WAT     H2 3789   2.814   2.152   0.697
 1183WAT      O 3790   7.978   1.837   8.513
 1183WAT     H1 3791   7.930   1.925   8.506
 1183WAT     H2 3792   7.966   1.786   8.428
 1184WAT      O 3793   9.878   4.923   1.667
 1184WAT     H1 3794   9.824   4.848   1.704
 1184WAT     H2 3795   9.970   4.890   1.645
 1185WAT      O 3796   4.918   2.492   0.385
 1185WAT     H1 3797   4.829   2.529   0.361
 1185WAT     H2 3798   4.986   2.522   0.318
 1186WAT      O 3799   7.716   7.546   3.426
 1186WAT     H1 3800   7.729   7.623   3.364
 1186WAT     H2 3801   7.639   7.490   3.395
 1187WAT      O 3802   5.582   1.322   5.015
 1187WAT     H1 3803   5.588   1.356   4.922
 1187WAT     H2 3804   5.592   1.397   5.080
 1188WAT      O 3805   3.080   8.994   5.985
 1188WAT     H1 3806   3.019   8.986   6.064
 1188WAT     H2 3807   3.076   9.086   5.948
 1189WAT      O 3808   3.937   1.681   0.507
 1189WAT     H1 3809   3.853   1.632   0.483
 1189WAT     H2 3810   3.943   1.690   0.606
 1190WAT      O 3811   3.792   8.136   6.991
 1190WAT     H1 3812   3.785   8.200   6.914
 1190WAT     H2 3813   3.810   8.044   6.957
 1191WAT      O 3814   2.684   6.970   0.220
 1191WAT     H1 3815   2.688   7.063   0.184
 1191WAT     H2 3816   2.752   6.959   0.292
 1192WAT      O 3817   3.787   5.234   2.952
 1192WAT     H1 3818   3.857   5.179   2.906
 1192WAT     H2 3819   3.722   5.268   2.883
 1193WAT      O 3820   5.920   5.349   7.308
 1193WAT     H1 3821   5.939   5.323   7.213
 1193WAT     H2 3822   6.006   5.355   7.359
 1194WAT      O 3823   8.790   2.955   8.432
 1194WAT     H1 3824   8.823   3.003   8.351
 1194WAT     H2 3825   8.690   2.950   8.429
 1195WAT      O 3826   9.426   2.670   9.504
 1195WAT     H1 3827   9.462   2.595   9.449
 1195WAT     H2 3828   9.368   2.729   9.447
 1196WAT      O 3829   3.968   4.997   4.652
 1196WAT     H1 3830   4.012   4.992   4.742
 1196WAT     H2 3831   4.012   4.932   4.590
 1197WAT      O 3832   4.146   7.274   7.223
 1197WAT     H1 3833   4.092   7.258   7.306
 1197WAT     H2 3834   4.242   7.256   7.242
 1198WAT      O 3835   9.811   8.770   4.133
 1198WAT     H1 3836   9.841   8.675   4.137
 1198WAT     H2 3837   9.841   8.811   4.046
 1199WAT      O 3838   1.198   3.997   6.357
 1199WAT     H1 3839   1.214   4.036   6.448
 1199WAT     H2 3840   1.152   3.909   6.366
 1200WAT      O 3841   6.412   4.744   2.542
 1200WAT     H1 3842   6.424   4.658   2.492
 1200WAT     H2 3843   6.476   4.812   2.507
 1201WAT      O 3844   5.933   4.337   7.117
 1201WAT     H1 3845   5.871   4.260   7.136
 1201WAT     H2 3846   5.880   4.421   7.112
 1202WAT      O 3847   8.970   3.007   3.154
 1202WAT     H1 3848   8.886   2.999   3.101
 1202WAT     H2 3849   9.047   3.029   3.093
 1203WAT      O 3850   5.906   6.029   3.379
 1203WAT     H1 3851   5.871   5.997   3.291
 1203WAT     H2 3852   5.915   6.128   3.378
 1204WAT      O 3853   0.034   2.729   8.208
 1204WAT     H1 3854   0.024   2.828   8.218
 1204WAT     H2 3855  -0.008   2.700   8.122
 1205WAT      O 3856   7.007   4.845   4.999
 1205WAT     H1 3857   6.947   4.803   4.931
 1205WAT     H2 3858   7.101   4.844   4.965
 1206WAT      O 3859   1.303   3.775   3.232
 1206WAT     H1 3860   1.326   3.802   3.139
 1206WAT     H2 3861   1.241   3.697   3.230
 1207WAT      O 3862   2.890   1.806   1.874
 1207WAT     H1 3863   2.986   1.796   1.850
 1207WAT     H2 3864   2.876   1.780   1.969
 1208WAT      O 3865   1.965   1.100   3.534
 1208WAT     H1 3866   2.006   1.144   3.455
 1208WAT     H2 3867   1.898   1.162   3.576
 1209WAT      O 3868   2.374   2.292   2.903
 1209WAT     H1 3869   2.341   2.346   2.980
 1209WAT     H2 3870   2.296   2.267   2.845
 1210WAT      O 3871   8.643   6.885   8.573
 1210WAT     H1 3872   8.725   6.836   8.542
 1210WAT     H2 3873   8.563   6.825   8.564
 1211WAT      O 3874   8.191   2.522   2.126
 1211WAT     H1 3875   8.147   2.593   2.070
 1211WAT     H2 3876   8.135   2.503   2.207
 1212WAT      O 3877   5.792   7.396   3.417
 1212WAT     H1 3878   5.875   7.341   3.406
 1212WAT     H2 3879   5.772   7.407   3.515
 1213WAT      O 3880   0.137   3.228   1.385
 1213WAT     H1 3881   0.222   3.235   1.437
 1213WAT     H2 3882   0.099   3.319   1.371
 1214WAT      O 3883   7.728   7.779   3.792
 1214WAT     H1 3884   7.693   7.868   3.761
 1214WAT     H2 3885   7.805   7.752   3.735
 1215WAT      O 3886   6.742   0.108   2.181
 1215WAT     H1 3887   6.819   0.119   2.243
 1215WAT     H2 3888   6.755   0.165   2.100
 1216WAT      O 3889   7.278   6.586   0.405
 1216WAT     H1 3890   7.218   6.508   0.422
 1216WAT     H2 3891   7.243   6.667   0.453
 1217WAT      O 3892   8.256   1.392   9.272
 1217WAT     H1 3893   8.254   1.426   9.366
 1217WAT     H2 3894   8.326   1.321   9.264
 1218WAT      O 3895   6.528   5.626   6.413
 1218WAT     H1 3896   6.450   5.650   6.355
 1218WAT     H2 3897   6.612   5.624   6.359
 1219WAT      O 3898   6.536   8.206   5.404
 1219WAT     H1 3899   6.538   8.300   5.439
 1219WAT     H2 3900   6.550   8.207   5.305
 1220WAT      O 3901   0.043   1.273   5.293
 1220WAT     H1 3902   0.049   1.281   5.194
 1220WAT     H2 3903  -0.032   1.210   5.317
 1221WAT      O 3904   7.080   3.212   2.809
 1221WAT     H1 3905   7.143   3.193   2.734
 1221WAT     H2 3906   7.013   3.138   2.815
 1222WAT      O 3907   8.083   1.982   0.901
 1222WAT     H1 3908   8.013   2.019   0.840
 1222WAT     H2 3909   8.041   1.918   0.965
 1223WAT      O 3910   0.011   4.184   4.827
 1223WAT     H1 3911   0.002   4.116   4.901
 1223WAT     H2 3912   0.045   4.139   4.745
 1224WAT      O 3913   8.160   9.118   1.882
 1224WAT     H1 3914   8.233   9.114   1.951
 1224WAT     H2 3915   8.124   9.211   1.876
 1225WAT      O 3916   5.873   3.167   6.224
 1225WAT     H1 3917   5.857   3.262   6.253
 1225WAT     H2 3918   5.956   3.133   6.267
 1226WAT      O 3919   4.026   8.491   9.652
 1226WAT     H1 3920   3.955   8.438   9.605
 1226WAT     H2 3921   3.985   8.544   9.726
 1227WAT      O 3922   8.246   6.812   5.408
 1227WAT     H1 3923   8.272   6.756   5.487
 1227WAT     H2 3924   8.194   6.756   5.343
 1228WAT      O 3925   1.799   5.529   6.623
 1228WAT     H1 3926   1.728   5.531   6.553
 1228WAT     H2 3927   1.799   5.440   6.669
 1229WAT      O 3928   6.529   6.046   3.188
 1229WAT     H1 3929   6.593   5.986   3.140
 1229WAT     H2 3930   6.533   6.138   3.148
 1230WAT      O 3931   9.036   8.920   3.541
 1230WAT     H1 3932   8.981   8.838   3.558
 1230WAT     H2 3933   9.026   8.982   3.619
 1231WAT      O 3934   1.792   8.713   9.527
 1231WAT     H1 3935   1.840   8.692   9.442
 1231WAT     H2 3936   1.747   8.631   9.562
 1232WAT      O 3937   4.751   5.099   0.959
 1232WAT     H1 3938   4.780   5.016   1.007
 1232WAT     H2 3939   4.818   5.172   0.976
 1233WAT      O 3940   3.699   1.590   2.196
 1233WAT     H1 3941   3.797   1.603   2.209
 1233WAT     H2 3942   3.658   1.675   2.160
 1234WAT      O 3943   9.179   5.761   1.272
 1234WAT     H1 3944   9.180   5.847   1.322
 1234WAT     H2 3945   9.100   5.758   1.211
 1235WAT      O 3946   0.407   3.033   5.712
 1235WAT     H1 3947   0.484   3.036   5.776
 1235WAT     H2 3948   0.365   3.123   5.706
 1236WAT      O 3949   8.854   5.602   3.510
 1236WAT     H1 3950   8.816   5.654   3.587
 1236WAT     H2 3951   8.919   5.535   3.545
 1237WAT      O 3952   4.283   4.953   3.550
 1237WAT     H1 3953   4.213   4.961   3.480
 1237WAT     H2 3954   4.247   4.985   3.638
 1238WAT      O 3955   6.061   1.600   0.838
 1238WAT     H1 3956   6.081   1.660   0.916
 1238WAT     H2 3957   5.985   1.639   0.785
 1239WAT      O 3958   6.043   3.845   8.096
 1239WAT     H1 3959   5.975   3.778   8.127
 1239WAT     H2 3960   6.091   3.808   8.016
 1240WAT      O 3961   9.203   0.531   8.465
 1240WAT     H1 3962   9.251   0.445   8.482
 1240WAT     H2 3963   9.250   0.606   8.511
 1241WAT      O 3964   3.256   8.243   3.506
 1241WAT     H1 3965   3.161   8.228   3.480
 1241WAT     H2 3966   3.260   8.312   3.579
 1242WAT      O 3967   6.077   6.488   2.278
 1242WAT     H1 3968   6.004   6.499   2.210
 1242WAT     H2 3969   6.165   6.482   2.231
 1243WAT      O 3970   9.318   9.377   8.890
 1243WAT     H1 3971   9.359   9.454   8.938
 1243WAT     H2 3972   9.222   9.397   8.870
 1244WAT      O 3973   1.324   2.713   0.418
 1244WAT     H1 3974   1.231   2.677   0.406
 1244WAT     H2 3975   1.389   2.651   0.375
 1245WAT      O 3976   2.042   1.991   7.424
 1245WAT     H1 3977   1.948   2.003   7.391
 1245WAT     H2 3978   2.090   1.926   7.365
 1246WAT      O 3979   7.646   4.037   9.575
 1246WAT     H1 3980   7.725   3.976   9.587
 1246WAT     H2 3981   7.562   3.984   9.587
 1247WAT      O 3982   3.332   7.308   5.759
 1247WAT     H1 3983   3.392   7.378   5.795
 1247WAT     H2 3984   3.344   7.301   5.660
 1248WAT      O 3985   2.216   2.897   7.070
 1248WAT     H1 3986   2.202   2.799   7.084
 1248WAT     H2 3987   2.297   2.927   7.120
 1249WAT      O 3988   1.939   8.236   2.076
 1249WAT     H1 3989   1.867   8.185   2.029
 1249WAT     H2 3990   1.949   8.326   2.033
 1250WAT      O 3991   6.262   5.049   6.887
 1250WAT     H1 3992   6.258   5.141   6.927
 1250WAT     H2 3993   6.341   5.000   6.925
 1251WAT      O 3994   7.386   5.738   5.439
 1251WAT     H1 3995   7.342   5.704   5.521
 1251WAT     H2 3996   7.364   5.679   5.362
 1252WAT      O 3997   7.212   6.450   6.261
 1252WAT     H1 3998   7.227   6.356   6.232
 1252WAT     H2 3999   7.291   6.506   6.237
 1253WAT      O 4000   2.462   2.082   9.799
 1253WAT     H1 4001   2.559   2.060   9.811
 1253WAT     H2 4002   2.443   2.096   9.702
 1254WAT      O 4003   0.744   5.426   2.286
 1254WAT     H1 4004   0.744   5.521   2.254
 1254WAT     H2 4005   0.652   5.388   2.275
 1255WAT      O 4006   4.421   6.960   8.752
 1255WAT     H1 4007   4.488   6.889   8.773
 1255WAT     H2 4008   4.378   6.991   8.837
 1256WAT      O 4009   2.932   9.582   7.555
 1256WAT     H1 4010   2.863   9.566   7.625
 1256WAT     H2 4011   2.914   9.521   7.477
 1257WAT      O 4012   6.104   1.001   0.422
 1257WAT     H1 4013   6.116   1.056   0.339
 1257WAT     H2 4014   6.152   1.043   0.498
 1258WAT      O 4015   2.050   9.180   7.408
 1258WAT     H1 4016   2.087   9.091   7.434
 1258WAT     H2 4017   2.000   9.172   7.321
 1259WAT      O 4018   0.447   3.037   6.085
 1259WAT     H1 4019   0.491   3.059   6.172
 1259WAT     H2 4020   0.514   3.044   6.011
 1260WAT      O 4021   2.423   5.131   7.505
 1260WAT     H1 4022   2.467   5.216   7.476
 1260WAT     H2 4023   2.326   5.148   7.523
 1261WAT      O 4024   3.991   9.288   1.544
 1261WAT     H1 4025   3.981   9.215   1.611
 1261WAT     H2 4026   4.088   9.305   1.527
 1262WAT      O 4027   7.110   9.244   8.758
 1262WAT     H1 4028   7.101   9.145   8.774
 1262WAT     H2 4029   7.020   9.287   8.762
 1263WAT      O 4030   2.889   7.983   5.487
 1263WAT     H1 4031   2.814   8.011   5.427
 1263WAT     H2 4032   2.964   7.947   5.432
 1264WAT      O 4033   8.337   4.520   2.530
 1264WAT     H1 4034   8.426   4.563   2.514
 1264WAT     H2 4035   8.266   4.573   2.484
 1265WAT      O 4036   7.298   2.440   4.739
 1265WAT     H1 4037   7.370   2.509   4.732
 1265WAT     H2 4038   7.275   2.407   4.647
 1266WAT      O 4039   4.085   6.438   7.512
 1266WAT     H1 4040   4.048   6.514   7.566
 1266WAT     H2 4041   4.119   6.472   7.424
 1267WAT      O 4042   5.155   1.666   5.627
 1267WAT     H1 4043   5.122   1.658   5.533
 1267WAT     H2 4044   5.203   1.583   5.653
 1268WAT      O 4045   3.731   6.908   2.118
 1268WAT     H1 4046   3.708   6.814   2.093
 1268WAT     H2 4047   3.830   6.921   2.112
 1269WAT      O 4048   8.804   0.248   3.032
 1269WAT     H1 4049   8.833   0.333   3.076
 1269WAT     H2 4050   8.729   0.267   2.969
 1270WAT      O 4051   7.520   6.478   4.516
 1270WAT     H1 4052   7.613   6.511   4.534
 1270WAT     H2 4053   7.497   6.406   4.582
 1271WAT      O 4054   9.755   0.419   1.514
 1271WAT     H1 4055   9.746   0.362   1.595
 1271WAT     H2 4056   9.807   0.370   1.444
 1272WAT      O 4057   5.241   5.416   0.625
 1272WAT     H1 4058   5.159   5.458   0.664
 1272WAT     H2 4059   5.214   5.343   0.561
 1273WAT      O 4060   6.392   9.691   2.017
 1273WAT     H1 4061   6.456   9.768   2.018
 1273WAT     H2 4062   6.316   9.711   2.078
 1274WAT      O 4063   6.362   1.735   1.868
 1274WAT     H1 4064   6.427   1.658   1.864
 1274WAT     H2 4065   6.338   1.764   1.776
 1275WAT      O 4066   2.548   7.285   3.414
 1275WAT     H1 4067   2.638   7.327   3.401
 1275WAT     H2 4068   2.504   7.271   3.325
 1276WAT      O 4069   6.093   5.945   0.452
 1276WAT     H1 4070   6.045   5.858   0.462
 1276WAT     H2 4071   6.037   6.009   0.399
 1277WAT      O 4072   9.704   8.051   1.491
 1277WAT     H1 4073   9.750   8.140   1.490
 1277WAT     H2 4074   9.644   8.045   1.411
 1278WAT      O 4075   5.175   4.786   6.876
 1278WAT     H1 4076   5.087   4.826   6.851
 1278WAT     H2 4077   5.165   4.732   6.960
 1279WAT      O 4078   7.807   4.404   4.580
 1279WAT     H1 4079   7.756   4.411   4.666
 1279WAT     H2 4080   7.887   4.345   4.594
 1280WAT      O 4081   7.983   0.126   3.464
 1280WAT     H1 4082   7.977   0.027   3.474
 1280WAT     H2 4083   7.941   0.171   3.543
 1281WAT      O 4084   2.962   6.451   4.206
 1281WAT     H1 4085   2.914   6.495   4.130
 1281WAT     H2 4086   2.947   6.352   4.202
 1282WAT      O 4087   5.254   8.480   9.876
 1282WAT     H1 4088   5.304   8.410   9.827
 1282WAT     H2 4089   5.180   8.515   9.818
 1283WAT      O 4090   4.769   9.667   2.837
 1283WAT     H1 4091   4.690   9.606   2.829
 1283WAT     H2 4092   4.739   9.762   2.832
 1284WAT      O 4093   4.395   8.057   4.378
 1284WAT     H1 4094   4.374   7.959   4.379
 1284WAT     H2 4095   4.466   8.075   4.311
 1285WAT      O 4096   6.147   7.566   0.985
 1285WAT     H1 4097   6.047   7.561   0.985
 1285WAT     H2 4098   6.181   7.546   1.077
 1286WAT      O 4099   7.663   0.086   6.375
 1286WAT     H1 4100   7.613   0.172   6.381
 1286WAT     H2 4101   7.604   0.011   6.403
 1287WAT      O 4102   5.850   3.673   8.238
 1287WAT     H1 4103   5.904   3.723   8.305
 1287WAT     H2 4104   5.759   3.654   8.275
 1288WAT      O 4105   7.167   0.345   3.553
 1288WAT     H1 4106   7.185   0.426   3.609
 1288WAT     H2 4107   7.246   0.285   3.556
 1289WAT      O 4108   7.984   2.113   9.201
 1289WAT     H1 4109   8.071   2.150   9.235
 1289WAT     H2 4110   7.931   2.186   9.158
 1290WAT      O 4111   7.402   3.196   3.775
 1290WAT     H1 4112   7.495   3.217   3.744
 1290WAT     H2 4113   7.356   3.139   3.707
 1291WAT      O 4114   4.049   2.740   4.701
 1291WAT     H1 4115   4.016   2.661   4.650
 1291WAT     H2 4116   4.126   2.782   4.653
 1292WAT      O 4117   8.520   6.022   7.268
 1292WAT     H1 4118   8.426   6.055   7.273
 1292WAT     H2 4119   8.547   6.011   7.172
 1293WAT      O 4120   2.398   8.929   7.253
 1293WAT     H1 4121   2.413   8.894   7.161
 1293WAT     H2 4122   2.486   8.940   7.300
 1294WAT      O 4123   5.144   0.081   0.807
 1294WAT     H1 4124   5.064   0.036   0.768
 1294WAT     H2 4125   5.119   0.128   0.892
 1295WAT      O 4126   8.621   1.679   6.411
 1295WAT     H1 4127   8.585   1.769   6.387
 1295WAT     H2 4128   8.596   1.657   6.505
 1296WAT      O 4129   9.472   2.114   5.884
 1296WAT     H1 4130   9.559   2.164   5.888
 1296WAT     H2 4131   9.482   2.034   5.825
 1297WAT      O 4132   4.646   3.437   4.565
 1297WAT     H1 4133   4.653   3.463   4.469
 1297WAT     H2 4134   4.607   3.345   4.572
 1298WAT      O 4135   3.282   2.149   2.191
 1298WAT     H1 4136   3.279   2.120   2.095
 1298WAT     H2 4137   3.277   2.069   2.250
 1299WAT      O 4138   5.749   6.029   4.496
 1299WAT     H1 4139   5.842   6.064   4.512
 1299WAT     H2 4140   5.733   5.950   4.555
 1300WAT      O 4141   7.898   4.589   7.204
 1300WAT     H1 4142   7.811   4.605   7.251
 1300WAT     H2 4143   7.903   4.494   7.174
 1301WAT      O 4144   7.166   8.181   2.598
 1301WAT     H1 4145   7.211   8.268   2.580
 1301WAT     H2 4146   7.235   8.110   2.611
 1302WAT      O 4147   0.930   9.631   1.832
 1302WAT     H1 4148   0.856   9.661   1.773
 1302WAT     H2 4149   0.957   9.538   1.807
 1303WAT      O 4150   7.383   2.045   4.995
 1303WAT     H1 4151   7.363   1.947   4.989
 1303WAT     H2 4152   7.482   2.058   5.005
 1304WAT      O 4153   2.620   4.279   7.113
 1304WAT     H1 4154   2.575   4.248   7.029
 1304WAT     H2 4155   2.631   4.202   7.176
 1305WAT      O 4156   0.354   9.105   5.385
 1305WAT     H1 4157   0.338   9.167   5.308
 1305WAT     H2 4158   0.280   9.116   5.452
 1306WAT      O 4159   2.165   4.962   5.047
 1306WAT     H1 4160   2.078   4.931   5.088
 1306WAT     H2 4161   2.196   5.045   5.094
 1307WAT      O 4162   6.404   5.814   1.933
 1307WAT     H1 4163   6.462   5.814   1.851
 1307WAT     H2 4164   6.318   5.768   1.913
 1308WAT      O 4165   6.292   8.713   3.329
 1308WAT     H1 4166   6.219   8.676   3.271
 1308WAT     H2 4167   6.334   8.791   3.284
 1309WAT      O 4168   4.604   8.599   0.425
 1309WAT     H1 4169   4.681   8.542   0.453
 1309WAT     H2 4170   4.618   8.629   0.330
 1310WAT      O 4171   5.577   4.963   4.315
 1310WAT     H1 4172   5.639   5.031   4.356
 1310WAT     H2 4173   5.482   4.992   4.328
 1311WAT      O 4174   0.226   8.076   6.996
 1311WAT     H1 4175   0.155   8.088   7.065
 1311WAT     H2 4176   0.268   8.164   6.975
 1312WAT      O 4177   3.508   3.078   0.268
 1312WAT     H1 4178   3.490   3.174   0.244
 1312WAT     H2 4179   3.554   3.074   0.356
 1313WAT      O 4180   7.894   5.822   0.605
 1313WAT     H1 4181   7.886   5.915   0.567
 1313WAT     H2 4182   7.929   5.828   0.698
 1314WAT      O 4183   2.316   6.828   2.998
 1314WAT     H1 4184   2.263   6.882   2.932
 1314WAT     H2 4185   2.372   6.890   3.054
 1315WAT      O 4186   2.922   3.727   1.796
 1315WAT     H1 4187   2.980   3.805   1.776
 1315WAT     H2 4188   2.913   3.717   1.895
 1316WAT      O 4189   6.610   8.465   5.469
 1316WAT     H1 4190   6.617   8.527   5.547
 1316WAT     H2 4191   6.633   8.514   5.385
 1317WAT      O 4192   7.433   3.046   3.159
 1317WAT     H1 4193   7.458   3.065   3.254
 1317WAT     H2 4194   7.385   3.124   3.121
 1318WAT      O 4195   0.689   1.209   8.869
 1318WAT     H1 4196   0.620   1.142   8.841
 1318WAT     H2 4197   0.651   1.269   8.940
 1319WAT      O 4198   0.414   0.908   4.512
 1319WAT     H1 4199   0.441   1.004   4.500
 1319WAT     H2 4200   0.475   0.865   4.578
 1320WAT      O 4201   5.665   5.826   8.164
 1320WAT     H1 4202   5.747   5.773   8.140
 1320WAT     H2 4203   5.653   5.825   8.263
 1321WAT      O 4204   6.770   2.572   1.840
 1321WAT     H1 4205   6.812   2.573   1.749
 1321WAT     H2 4206   6.754   2.477   1.868
 1322WAT      O 4207   4.696   9.735   2.035
 1322WAT     H1 4208   4.718   9.638   2.039
 1322WAT     H2 4209   4.644   9.761   2.116
 1323WAT      O 4210   7.148   8.550   1.262
 1323WAT     H1 4211   7.218   8.611   1.226
 1323WAT     H2 4212   7.188   8.491   1.332
 1324WAT      O 4213   0.031   6.990   7.626
 1324WAT     H1 4214   0.114   6.941   7.651
 1324WAT     H2 4215  -0.047   6.954   7.677
 1325WAT      O 4216   6.819   3.185   2.251
 1325WAT     H1 4217   6.722   3.202   2.267
 1325WAT     H2 4218   6.855   3.123   2.321
 1326WAT      O 4219   3.390   1.356   0.435
 1326WAT     H1 4220   3.365   1.262   0.409
 1326WAT     H2 4221   3.477   1.381   0.392
 1327WAT      O 4222   7.071   8.868   5.756
 1327WAT     H1 4223   7.070   8.941   5.824
 1327WAT     H2 4224   7.004   8.888   5.685
 1328WAT      O 4225   1.051   0.281   0.561
 1328WAT     H1 4226   0.984   0.308   0.630
 1328WAT     H2 4227   1.054   0.351   0.489
 1329WAT      O 4228   2.177   3.243   4.874
 1329WAT     H1 4229   2.193   3.149   4.842
 1329WAT     H2 4230   2.092   3.277   4.836
 1330WAT      O 4231   3.845   6.375   6.212
 1330WAT     H1 4232   3.920   6.353   6.275
 1330WAT     H2 4233   3.883   6.419   6.131
 1331WAT      O 4234   1.598   2.446   6.480
 1331WAT     H1 4235   1.630   2.376   6.416
 1331WAT     H2 4236   1.677   2.498   6.514
 1332WAT      O 4237   8.091   5.685   7.421
 1332WAT     H1 4238   8.148   5.672   7.339
 1332WAT     H2 4239   8.118   5.770   7.466
 1333WAT      O 4240   7.278   0.110   3.002
 1333WAT     H1 4241   7.256   0.028   2.950
 1333WAT     H2 4242   7.244   0.101   3.095
 1334WAT      O 4243   1.369   1.080   5.579
 1334WAT     H1 4244   1.386   1.085   5.481
 1334WAT     H2 4245   1.428   1.010   5.619
 1335WAT      O 4246   7.723   6.147   3.862
 1335WAT     H1 4247   7.735   6.050   3.840
 1335WAT     H2 4248   7.718   6.158   3.961
 1336WAT      O 4249   5.974   0.201   2.495
 1336WAT     H1 4250   6.067   0.203   2.459
 1336WAT     H2 4251   5.909   0.198   2.419
 1337WAT      O 4252   3.847   7.177   2.634
 1337WAT     H1 4253   3.853   7.078   2.625
 1337WAT     H2 4254   3.924   7.220   2.587
 1338WAT      O 4255   5.877   6.522   2.053
 1338WAT     H1 4256   5.846   6.617   2.063
 1338WAT     H2 4257   5.913   6.508   1.961
 1339WAT      O 4258   0.087   2.254   7.462
 1339WAT     H1 4259   0.025   2.294   7.395
 1339WAT     H2 4260   0.112   2.161   7.434
 1340WAT      O 4261   3.198   1.618   5.513
 1340WAT     H1 4262   3.164   1.559   5.440
 1340WAT     H2 4263   3.272   1.675   5.478
 1341WAT      O 4264   7.456   1.346   9.420
 1341WAT     H1 4265   7.439   1.370   9.324
 1341WAT     H2 4266   7.544   1.298   9.428
 1342WAT      O 4267   2.022   1.878   0.441
 1342WAT     H1 4268   1.986   1.971   0.430
 1342WAT     H2 4269   1.967   1.815   0.388
 1343WAT      O 4270   4.894   7.964   7.360
 1343WAT     H1 4271   4.824   8.023   7.319
 1343WAT     H2 4272   4.851   7.898   7.421
 1344WAT      O 4273   8.483   5.440   5.146
 1344WAT     H1 4274   8.558   5.505   5.152
 1344WAT     H2 4275   8.512   5.359   5.094
 1345WAT      O 4276   3.009   0.323   5.695
 1345WAT     H1 4277   2.963   0.258   5.756
 1345WAT     H2 4278   2.944   0.356   5.627
 1346WAT      O 4279   1.015   7.268   3.377
 1346WAT     H1 4280   1.110   7.256   3.406
 1346WAT     H2 4281   0.999   7.217   3.293
 1347WAT      O 4282   8.577   0.551   0.779
 1347WAT     H1 4283   8.589   0.650   0.781
 1347WAT     H2 4284   8.486   0.529   0.743
 1348WAT      O 4285   9.064   5.899   9.352
 1348WAT     H1 4286   8.971   5.874   9.375
 1348WAT     H2 4287   9.119   5.907   9.436
 1349WAT      O 4288   8.160   6.157   0.683
 1349WAT     H1 4289   8.182   6.242   0.731
 1349WAT     H2 4290   8.174   6.169   0.585
 1350WAT      O 4291   9.186   4.972   0.534
 1350WAT     H1 4292   9.235   4.915   0.600
 1350WAT     H2 4293   9.158   4.916   0.456
 1351WAT      O 4294   1.703   7.558   7.063
 1351WAT     H1 4295   1.691   7.627   6.991
 1351WAT     H2 4296   1.613   7.528   7.095
 1352WAT      O 4297   3.724   3.645   6.009
 1352WAT     H1 4298   3.807   3.694   6.033
 1352WAT     H2 4299   3.727   3.553   6.047
 1353WAT      O 4300   0.751   2.690   0.884
 1353WAT     H1 4301   0.812   2.664   0.809
 1353WAT     H2 4302   0.792   2.666   0.972
 1354WAT      O 4303   4.163   9.258   4.197
 1354WAT     H1 4304   4.140   9.192   4.125
 1354WAT     H2 4305   4.262   9.274   4.197
 1355WAT      O 4306   1.846   3.828   4.250
 1355WAT     H1 4307   1.757   3.783   4.251
 1355WAT     H2 4308   1.910   3.772   4.198
 1356WAT      O 4309   8.053   1.558   3.175
 1356WAT     H1 4310   7.984   1.608   3.122
 1356WAT     H2 4311   8.013   1.526   3.260
 1357WAT      O 4312   9.615   0.081   8.877
 1357WAT     H1 4313   9.654   0.174   8.874
 1357WAT     H2 4314   9.616   0.042   8.785
 1358WAT      O 4315   8.529   0.240   6.379
 1358WAT     H1 4316   8.498   0.237   6.474
 1358WAT     H2 4317   8.496   0.158   6.331
 1359WAT      O 4318   7.062   6.220   4.111
 1359WAT     H1 4319   7.156   6.253   4.103
 1359WAT     H2 4320   7.001   6.297   4.130
 1360WAT      O 4321   8.894   9.843   5.097
 1360WAT     H1 4322   8.914   9.878   5.189
 1360WAT     H2 4323   8.942   9.756   5.084
 1361WAT      O 4324   3.296   8.586   8.213
 1361WAT     H1 4325   3.232   8.661   8.227
 1361WAT     H2 4326   3.254   8.500   8.243
 1362WAT      O 4327   7.981   4.376   1.014
 1362WAT     H1 4328   7.937   4.442   0.954
 1362WAT     H2 4329   8.015   4.299   0.959
 1363WAT      O 4330   5.612   5.665   7.608
 1363WAT     H1 4331   5.679   5.636   7.539
 1363WAT     H2 4332   5.657   5.724   7.675
 1364WAT      O 4333   7.757   8.935   7.277
 1364WAT     H1 4334   7.687   8.971   7.339
 1364WAT     H2 4335   7.713   8.885   7.203
 1365WAT      O 4336   8.766   8.081   7.361
 1365WAT     H1 4337   8.750   8.144   7.437
 1365WAT     H2 4338   8.755   7.987   7.393
 1366WAT      O 4339   4.095   4.309   6.939
 1366WAT     H1 4340   4.099   4.212   6.917
 1366WAT     H2 4341   4.005   4.345   6.916
 1367WAT      O 4342   4.806   1.572   0.085
 1367WAT     H1 4343   4.878   1.532   0.028
 1367WAT     H2 4344   4.755   1.499   0.131
 1368WAT      O 4345   5.586   9.094   8.168
 1368WAT     H1 4346   5.575   9.036   8.248
 1368WAT     H2 4347   5.509   9.081   8.106
 1369WAT      O 4348   3.974   5.672   3.751
 1369WAT     H1 4349   3.951   5.745   3.816
 1369WAT     H2 4350   3.973   5.584   3.798
 1370WAT      O 4351   8.133   6.277   9.856
 1370WAT     H1 4352   8.222   6.310   9.887
 1370WAT     H2 4353   8.116   6.187   9.895
 1371WAT      O 4354   9.169   7.908   0.386
 1371WAT     H1 4355   9.207   7.932   0.297
 1371WAT     H2 4356   9.240   7.913   0.456
 1372WAT      O 4357   8.966   4.260   6.972
 1372WAT     H1 4358   8.991   4.227   7.063
 1372WAT     H2 4359   9.021   4.340   6.949
 1373WAT      O 4360   6.868   9.401   4.027
 1373WAT     H1 4361   6.784   9.354   3.999
 1373WAT     H2 4362   6.946   9.338   4.017
 1374WAT      O 4363   3.854   9.725   7.788
 1374WAT     H1 4364   3.926   9.706   7.721
 1374WAT     H2 4365   3.796   9.799   7.755
 1375WAT      O 4366   5.365   3.089   3.965
 1375WAT     H1 4367   5.273   3.112   3.932
 1375WAT     H2 4368   5.391   2.998   3.932
 1376WAT      O 4369   6.626   3.058   4.541
 1376WAT     H1 4370   6.596   3.143   4.497
 1376WAT     H2 4371   6.588   3.054   4.634
 1377WAT      O 4372   5.355   2.260   3.750
 1377WAT     H1 4373   5.327   2.341   3.801
 1377WAT     H2 4374   5.441   2.279   3.702
 1378WAT      O 4375   6.685   1.909   8.056
 1378WAT     H1 4376   6.728   1.982   8.110
 1378WAT     H2 4377   6.596   1.887   8.096
 1379WAT      O 4378   8.571   9.135   7.139
 1379WAT     H1 4379   8.523   9.078   7.073
 1379WAT     H2 4380   8.616   9.076   7.206
 1380WAT      O 4381   3.429   8.780   9.340
 1380WAT     H1 4382   3.493   8.854   9.320
 1380WAT     H2 4383   3.353   8.783   9.275
 1381WAT      O 4384   3.633   4.049   0.411
 1381WAT     H1 4385   3.676   3.960   0.392
 1381WAT     H2 4386   3.569   4.039   0.488
 1382WAT      O 4387   1.563   5.690   3.069
 1382WAT     H1 4388   1.642   5.712   3.011
 1382WAT     H2 4389   1.501   5.769   3.072
 1383WAT      O 4390   2.515   6.470   4.440
 1383WAT     H1 4391   2.543   6.502   4.350
 1383WAT     H2 4392   2.484   6.548   4.495
 1384WAT      O 4393   9.300   1.133   6.235
 1384WAT     H1 4394   9.338   1.143   6.327
 1384WAT     H2 4395   9.221   1.071   6.237
 1385WAT      O 4396   1.934   8.648   9.300
 1385WAT     H1 4397   1.969   8.554   9.297
 1385WAT     H2 4398   2.009   8.712   9.285
 1386WAT      O 4399   4.877   9.496   5.704
 1386WAT     H1 4400   4.889   9.428   5.631
 1386WAT     H2 4401   4.794   9.549   5.687
 1387WAT      O 4402   8.185   2.650   4.160
 1387WAT     H1 4403   8.156   2.578   4.223
 1387WAT     H2 4404   8.278   2.632   4.129
 1388WAT      O 4405   3.712   9.231   2.402
 1388WAT     H1 4406   3.722   9.143   2.354
 1388WAT     H2 4407   3.794   9.248   2.456
 1389WAT      O 4408   3.693   3.647   9.667
 1389WAT     H1 4409   3.793   3.642   9.661
 1389WAT     H2 4410   3.653   3.560   9.639
 1390WAT      O 4411   9.657   8.473   8.380
 1390WAT     H1 4412   9.750   8.487   8.346
 1390WAT     H2 4413   9.660   8.453   8.478
 1391WAT      O 4414   8.257   7.197   5.002
 1391WAT     H1 4415   8.256   7.111   5.054
 1391WAT     H2 4416   8.186   7.257   5.037
 1392WAT      O 4417   4.444   9.638   5.443
 1392WAT     H1 4418   4.390   9.713   5.482
 1392WAT     H2 4419   4.476   9.663   5.352
 1393WAT      O 4420   4.749   3.613   2.988
 1393WAT     H1 4421   4.685   3.585   2.917
 1393WAT     H2 4422   4.817   3.676   2.949
 1394WAT      O 4423   0.251   4.785   1.684
 1394WAT     H1 4424   0.319   4.803   1.755
 1394WAT     H2 4425   0.254   4.688   1.659
 1395WAT      O 4426   8.617   9.733   8.373
 1395WAT     H1 4427   8.677   9.670   8.324
 1395WAT     H2 4428   8.522   9.702   8.364
 1396WAT      O 4429   1.876   4.828   0.853
 1396WAT     H1 4430   1.802   4.767   0.882
 1396WAT     H2 4431   1.904   4.804   0.760
 1397WAT      O 4432   7.896   6.077   3.512
 1397WAT     H1 4433   7.868   6.173   3.521
 1397WAT     H2 4434   7.818   6.017   3.526
 1398WAT      O 4435   0.262   4.582   1.280
 1398WAT     H1 4436   0.319   4.582   1.197
 1398WAT     H2 4437   0.309   4.632   1.352
 1399WAT      O 4438   3.273   8.146   2.223
 1399WAT     H1 4439   3.277   8.246   2.224
 1399WAT     H2 4440   3.182   8.116   2.252
 1400WAT      O 4441   0.766   0.419   7.132
 1400WAT     H1 4442   0.756   0.369   7.046
 1400WAT     H2 4443   0.800   0.358   7.203
 1401WAT      O 4444   7.883   5.078   7.671
 1401WAT     H1 4445   7.839   4.995   7.637
 1401WAT     H2 4446   7.814   5.149   7.684
 1402WAT      O 4447   6.489   3.166   0.854
 1402WAT     H1 4448   6.458   3.111   0.777
 1402WAT     H2 4449   6.469   3.263   0.836
 1403WAT      O 4450   5.525   8.119   3.334
 1403WAT     H1 4451   5.576   8.081   3.256
 1403WAT     H2 4452   5.463   8.049   3.370
 1404WAT      O 4453   3.745   0.845   3.291
 1404WAT     H1 4454   3.732   0.895   3.376
 1404WAT     H2 4455   3.671   0.779   3.279
 1405WAT      O 4456   5.169   3.421   8.312
 1405WAT     H1 4457   5.238   3.351   8.295
 1405WAT     H2 4458   5.112   3.392   8.389
 1406WAT      O 4459   2.517   4.561   7.837
 1406WAT     H1 4460   2.498   4.479   7.782
 1406WAT     H2 4461   2.533   4.639   7.776
 1407WAT      O 4462   1.527   7.321   8.062
 1407WAT     H1 4463   1.452   7.372   8.020
 1407WAT     H2 4464   1.608   7.379   8.067
 1408WAT      O 4465   4.243   7.962   9.331
 1408WAT     H1 4466   4.281   8.003   9.248
 1408WAT     H2 4467   4.311   7.902   9.373
 1409WAT      O 4468   4.771   5.701   5.020
 1409WAT     H1 4469   4.754   5.605   5.042
 1409WAT     H2 4470   4.806   5.747   5.101
 1410WAT      O 4471   8.866   3.874   0.563
 1410WAT     H1 4472   8.809   3.953   0.584
 1410WAT     H2 4473   8.877   3.865   0.464
 1411WAT      O 4474   7.766   8.241   6.946
 1411WAT     H1 4475   7.716   8.310   6.999
 1411WAT     H2 4476   7.704   8.167   6.921
 1412WAT      O 4477   7.350   0.951   3.871
 1412WAT     H1 4478   7.304   0.981   3.955
 1412WAT     H2 4479   7.384   1.030   3.821
 1413WAT      O 4480   9.829   3.649   8.706
 1413WAT     H1 4481   9.916   3.601   8.698
 1413WAT     H2 4482   9.758   3.600   8.655
 1414WAT      O 4483   2.707   7.132   3.809
 1414WAT     H1 4484   2.678   7.198   3.877
 1414WAT     H2 4485   2.792   7.087   3.840
 1415WAT      O 4486   1.613   5.813   6.041
 1415WAT     H1 4487   1.545   5.741   6.024
 1415WAT     H2 4488   1.703   5.772   6.055
 1416WAT      O 4489   0.508   8.652   7.988
 1416WAT     H1 4490   0.560   8.736   7.970
 1416WAT     H2 4491   0.455   8.627   7.907
 1417WAT      O 4492   8.655   1.611   6.140
 1417WAT     H1 4493   8.672   1.703   6.106
 1417WAT     H2 4494   8.652   1.612   6.240
 1418WAT      O 4495   6.321   0.258   3.751
 1418WAT     H1 4496   6.354   0.168   3.778
 1418WAT     H2 4497   6.356   0.327   3.815
 1419WAT      O 4498   4.115   3.376   4.399
 1419WAT     H1 4499   4.086   3.307   4.465
 1419WAT     H2 4500   4.213   3.394   4.409
 1420WAT      O 4501   6.103   8.854   1.994
 1420WAT     H1 4502   6.010   8.860   2.030
 1420WAT     H2 4503   6.147   8.944   2.002
 1421WAT      O 4504   1.991   9.831   2.801
 1421WAT     H1 4505   1.977   9.912   2.858
 1421WAT     H2 4506   2.052   9.768   2.848
 1422WAT      O 4507   9.701   1.474   8.230
 1422WAT     H1 4508   9.770   1.528   8.278
 1422WAT     H2 4509   9.626   1.453   8.293
 1423WAT      O 4510   5.268   5.617   7.038
 1423WAT     H1 4511   5.180   5.584   7.004
 1423WAT     H2 4512   5.259   5.648   7.132
 1424WAT      O 4513   3.859   9.677   0.086
 1424WAT     H1 4514   3.793   9.720   0.025
 1424WAT     H2 4515   3.935   9.640   0.032
 1425WAT      O 4516   7.153   1.606   1.185
 1425WAT     H1 4517   7.058   1.636   1.179
 1425WAT     H2 4518   7.156   1.507   1.194
 1426WAT      O 4519   9.528   6.663   7.195
 1426WAT     H1 4520   9.627   6.669   7.204
 1426WAT     H2 4521   9.505   6.582   7.141
 1427WAT      O 4522   9.832   9.233   8.722
 1427WAT     H1 4523   9.784   9.267   8.803
 1427WAT     H2 4524   9.765   9.216   8.649
 1428WAT      O 4525   1.110   8.338   6.975
 1428WAT     H1 4526   1.029   8.394   6.957
 1428WAT     H2 4527   1.192   8.392   6.958
 1429WAT      O 4528   8.636   5.873   8.863
 1429WAT     H1 4529   8.648   5.958   8.812
 1429WAT     H2 4530   8.697   5.872   8.943
 1430WAT      O 4531   5.598   7.977   1.579
 1430WAT     H1 4532   5.592   7.888   1.624
 1430WAT     H2 4533   5.530   8.039   1.619
 1431WAT      O 4534   2.382   4.946   7.306
 1431WAT     H1 4535   2.383   4.983   7.398
 1431WAT     H2 4536   2.304   4.982   7.255
 1432WAT      O 4537   6.710   6.740   4.957
 1432WAT     H1 4538   6.676   6.724   4.864
 1432WAT     H2 4539   6.796   6.690   4.970
 1433WAT      O 4540   6.585   1.977   7.135
 1433WAT     H1 4541   6.614   2.072   7.124
 1433WAT     H2 4542   6.556   1.940   7.047
 1434WAT      O 4543   3.902   6.168   1.365
 1434WAT     H1 4544   3.946   6.160   1.275
 1434WAT     H2 4545   3.811   6.128   1.361
 1435WAT      O 4546   9.691   0.803   0.846
 1435WAT     H1 4547   9.617   0.843   0.900
 1435WAT     H2 4548   9.776   0.853   0.864
 1436WAT      O 4549   9.213   8.696   6.940
 1436WAT     H1 4550   9.245   8.669   7.031
 1436WAT     H2 4551   9.196   8.795   6.939
 1437WAT      O 4552   0.017   7.314   8.651
 1437WAT     H1 4553   0.100   7.285   8.603
 1437WAT     H2 4554   0.013   7.267   8.740
 1438WAT      O 4555   9.682   5.206   4.219
 1438WAT     H1 4556   9.714   5.240   4.307
 1438WAT     H2 4557   9.714   5.266   4.146
 1439WAT      O 4558   9.020   6.708   9.653
 1439WAT     H1 4559   9.092   6.683   9.588
 1439WAT     H2 4560   9.060   6.763   9.727
 1440WAT      O 4561   3.541   9.746   8.799
 1440WAT     H1 4562   3.599   9.772   8.877
 1440WAT     H2 4563   3.488   9.665   8.823
 1441WAT      O 4564   7.321   0.814   0.590
 1441WAT     H1 4565   7.302   0.898   0.539
 1441WAT     H2 4566   7.248   0.799   0.657
 1442WAT      O 4567   4.603   1.715   6.251
 1442WAT     H1 4568   4.673   1.645   6.257
 1442WAT     H2 4569   4.514   1.672   6.234
 1443WAT      O 4570   5.561   0.635   2.145
 1443WAT     H1 4571   5.654   0.655   2.177
 1443WAT     H2 4572   5.531   0.709   2.084
 1444WAT      O 4573   0.028   1.269   6.199
 1444WAT     H1 4574   0.008   1.174   6.225
 1444WAT     H2 4575  -0.028   1.294   6.120
 1445WAT      O 4576   8.671   3.218   2.558
 1445WAT     H1 4577   8.695   3.305   2.515
 1445WAT     H2 4578   8.651   3.151   2.488
 1446WAT      O 4579   7.710   1.120   1.604
 1446WAT     H1 4580   7.659   1.046   1.560
 1446WAT     H2 4581   7.733   1.095   1.697
 1447WAT      O 4582   4.363   2.009   6.036
 1447WAT     H1 4583   4.436   2.001   6.104
 1447WAT     H2 4584   4.387   2.080   5.970
 1448WAT      O 4585   0.487   7.488   7.439
 1448WAT     H1 4586   0.427   7.411   7.463
 1448WAT     H2 4587   0.562   7.493   7.506
 1449WAT      O 4588   0.581   7.326   5.846
 1449WAT     H1 4589   0.675   7.353   5.867
 1449WAT     H2 4590   0.528   7.318   5.930
 1450WAT      O 4591   8.214   2.737   5.260
 1450WAT     H1 4592   8.271   2.795   5.202
 1450WAT     H2 4593   8.233   2.641   5.242
 1451WAT      O 4594   4.011   0.925   4.988
 1451WAT     H1 4595   3.970   0.938   5.079
 1451WAT     H2 4596   4.094   0.981   4.981
 1452WAT      O 4597   5.263   7.309   8.154
 1452WAT     H1 4598   5.363   7.305   8.159
 1452WAT     H2 4599   5.227   7.335   8.244
 1453WAT      O 4600   8.186   1.996   5.468
 1453WAT     H1 4601   8.153   2.009   5.374
 1453WAT     H2 4602   8.117   2.029   5.532
 1454WAT      O 4603   9.161   0.473   3.300
 1454WAT     H1 4604   9.165   0.421   3.385
 1454WAT     H2 4605   9.125   0.565   3.319
 1455WAT      O 4606   9.837   7.974   8.138
 1455WAT     H1 4607   9.832   8.058   8.085
 1455WAT     H2 4608   9.791   7.900   8.089
 1456WAT      O 4609   0.810   4.208   1.317
 1456WAT     H1 4610   0.755   4.291   1.331
 1456WAT     H2 4611   0.836   4.201   1.221
 1457WAT      O 4612   4.131   2.182   3.020
 1457WAT     H1 4613   4.075   2.135   3.088
 1457WAT     H2 4614   4.136   2.127   2.937
 1458WAT      O 4615   7.050   2.083   6.172
 1458WAT     H1 4616   7.147   2.062   6.165
 1458WAT     H2 4617   7.033   2.136   6.255
 1459WAT      O 4618   2.236   1.794   4.450
 1459WAT     H1 4619   2.268   1.791   4.544
 1459WAT     H2 4620   2.248   1.886   4.413
 1460WAT      O 4621   2.795   2.157   4.841
 1460WAT     H1 4622   2.765   2.252   4.855
 1460WAT     H2 4623   2.730   2.109   4.783
 1461WAT      O 4624   9.803   4.700   6.289
 1461WAT     H1 4625   9.900   4.706   6.309
 1461WAT     H2 4626   9.790   4.664   6.196
 1462WAT      O 4627   3.311   9.045   4.952
 1462WAT     H1 4628   3.361   8.964   4.982
 1462WAT     H2 4629   3.346   9.075   4.863
 1463WAT      O 4630   3.045   5.847   6.612
 1463WAT     H1 4631   2.962   5.838   6.557
 1463WAT     H2 4632   3.115   5.894   6.559
 1464WAT      O 4633   9.710   8.338   1.970
 1464WAT     H1 4634   9.684   8.388   1.887
 1464WAT     H2 4635   9.783   8.273   1.947
 1465WAT      O 4636   9.016   0.557   6.889
 1465WAT     H1 4637   8.945   0.626   6.876
 1465WAT     H2 4638   9.055   0.532   6.801
 1466WAT      O 4639   3.511   8.515   0.288
 1466WAT     H1 4640   3.462   8.512   0.201
 1466WAT     H2 4641   3.480   8.440   0.347
 1467WAT      O 4642   8.703   4.046   8.699
 1467WAT     H1 4643   8.720   4.062   8.796
 1467WAT     H2 4644   8.775   3.987   8.662
 1468WAT      O 4645   0.007   8.448   6.521
 1468WAT     H1 4646  -0.088   8.470   6.543
 1468WAT     H2 4647   0.036   8.500   6.440
 1469WAT      O 4648   7.894   1.847   0.409
 1469WAT     H1 4649   7.938   1.788   0.341
 1469WAT     H2 4650   7.869   1.934   0.367
 1470WAT      O 4651   9.517   7.231   7.743
 1470WAT     H1 4652   9.514   7.218   7.644
 1470WAT     H2 4653   9.462   7.160   7.788
 1471WAT      O 4654   0.550   3.359   1.717
 1471WAT     H1 4655   0.641   3.361   1.675
 1471WAT     H2 4656   0.480   3.367   1.646
 1472WAT      O 4657   9.860   8.527   4.273
 1472WAT     H1 4658   9.950   8.528   4.316
 1472WAT     H2 4659   9.851   8.445   4.215
 1473WAT      O 4660   1.097   5.401   1.666
 1473WAT     H1 4661   1.011   5.353   1.686
 1473WAT     H2 4662   1.089   5.449   1.579
 1474WAT      O 4663   5.232   4.995   1.212
 1474WAT     H1 4664   5.162   5.016   1.143
 1474WAT     H2 4665   5.322   4.993   1.168
 1475WAT      O 4666   3.350   8.255   8.430
 1475WAT     H1 4667   3.371   8.163   8.397
 1475WAT     H2 4668   3.275   8.293   8.377
 1476WAT      O 4669   4.749   8.856   5.077
 1476WAT     H1 4670   4.757   8.937   5.019
 1476WAT     H2 4671   4.700   8.784   5.028
 1477WAT      O 4672   8.161   7.742   4.824
 1477WAT     H1 4673   8.143   7.839   4.804
 1477WAT     H2 4674   8.199   7.735   4.917
 1478WAT      O 4675   5.001   0.872   8.076
 1478WAT     H1 4676   4.927   0.828   8.024
 1478WAT     H2 4677   5.001   0.837   8.169
 1479WAT      O 4678   9.863   8.833   9.249
 1479WAT     H1 4679   9.881   8.928   9.223
 1479WAT     H2 4680   9.816   8.786   9.174
 1480WAT      O 4681   8.189   0.747   8.057
 1480WAT     H1 4682   8.129   0.739   7.977
 1480WAT     H2 4683   8.243   0.830   8.050
 1481WAT      O 4684   1.570   7.175   0.239
 1481WAT     H1 4685   1.512   7.095   0.253
 1481WAT     H2 4686   1.623   7.164   0.155
 1482WAT      O 4687   3.778   4.746   3.178
 1482WAT     H1 4688   3.837   4.785   3.249
 1482WAT     H2 4689   3.756   4.816   3.111
 1483WAT      O 4690   2.677   0.223   5.496
 1483WAT     H1 4691   2.738   0.165   5.549
 1483WAT     H2 4692   2.679   0.195   5.400
 1484WAT      O 4693   2.730   0.691   8.185
 1484WAT     H1 4694   2.805   0.675   8.121
 1484WAT     H2 4695   2.723   0.789   8.204
 1485WAT      O 4696   2.017   7.315   0.467
 1485WAT     H1 4697   2.085   7.379   0.431
 1485WAT     H2 4698   1.972   7.356   0.546
 1486WAT      O 4699   5.996   6.154   2.167
 1486WAT     H1 4700   6.030   6.099   2.243
 1486WAT     H2 4701   6.072   6.173   2.104
 1487WAT      O 4702   2.074   4.480   6.737
 1487WAT     H1 4703   2.134   4.430   6.800
 1487WAT     H2 4704   2.062   4.573   6.771
 1488WAT      O 4705   0.819   6.275   2.693
 1488WAT     H1 4706   0.901   6.306   2.742
 1488WAT     H2 4707   0.840   6.260   2.597
 1489WAT      O 4708   2.674   8.638   8.972
 1489WAT     H1 4709   2.670   8.559   8.911
 1489WAT     H2 4710   2.763   8.640   9.017
 1490WAT      O 4711   3.525   3.151   3.187
 1490WAT     H1 4712   3.525   3.236   3.240
 1490WAT     H2 4713   3.569   3.166   3.099
 1491WAT      O 4714   4.998   4.587   0.119
 1491WAT     H1 4715   5.070   4.635   0.170
 1491WAT     H2 4716   4.909   4.612   0.155
 1492WAT      O 4717   7.248   4.495   9.295
 1492WAT     H1 4718   7.314   4.421   9.306
 1492WAT     H2 4719   7.162   4.470   9.340
 1493WAT      O 4720   7.771   4.002   7.174
 1493WAT     H1 4721   7.803   4.006   7.269
 1493WAT     H2 4722   7.684   4.051   7.166
 1494WAT      O 4723   7.296   7.132   7.885
 1494WAT     H1 4724   7.199   7.111   7.897
 1494WAT     H2 4725   7.306   7.216   7.831
 1495WAT      O 4726   3.196   1.677   9.063
 1495WAT     H1 4727   3.209   1.621   9.145
 1495WAT     H2 4728   3.201   1.774   9.088
 1496WAT      O 4729   5.501   6.728   7.542
 1496WAT     H1 4730   5.550   6.794   7.485
 1496WAT     H2 4731   5.404   6.752   7.545
 1497WAT      O 4732   4.964   1.761   1.051
 1497WAT     H1 4733   4.917   1.849   1.050
 1497WAT     H2 4734   4.906   1.693   1.097
 1498WAT      O 4735   4.084   5.064   8.209
 1498WAT     H1 4736   4.167   5.019   8.241
 1498WAT     H2 4737   4.054   5.131   8.277
 1499WAT      O 4738   5.226   3.057   5.374
 1499WAT     H1 4739   5.192   3.101   5.291
 1499WAT     H2 4740   5.256   3.127   5.440
 1500WAT      O 4741   1.301   3.976   3.647
 1500WAT     H1 4742   1.261   3.950   3.559
 1500WAT     H2 4743   1.279   3.906   3.716
 1501WAT      O 4744   1.240   6.768   0.376
 1501WAT     H1 4745   1.204   6.725   0.459
 1501WAT     H2 4746   1.181   6.844   0.350
 1502WAT      O 4747   4.429   0.809   9.069
 1502WAT     H1 4748   4.506   0.745   9.066
 1502WAT     H2 4749   4.361   0.782   9.001
 1503WAT      O 4750   3.289   7.744   7.981
 1503WAT     H1 4751   3.277   7.692   7.897
 1503WAT     H2 4752   3.366   7.807   7.970
 1504WAT      O 4753   5.031   7.985   5.082
 1504WAT     H1 4754   5.019   7.904   5.139
 1504WAT     H2 4755   4.941   8.023   5.059
 1505WAT      O 4756   2.863   3.658   4.190
 1505WAT     H1 4757   2.813   3.622   4.111
 1505WAT     H2 4758   2.824   3.746   4.217
 1506WAT      O 4759   9.500   7.793   9.695
 1506WAT     H1 4760   9.596   7.777   9.673
 1506WAT     H2 4761   9.474   7.735   9.772
 1507WAT      O 4762   8.406   1.545   5.759
 1507WAT     H1 4763   8.477   1.610   5.789
 1507WAT     H2 4764   8.368   1.499   5.840
 1508WAT      O 4765   4.855   9.692   4.476
 1508WAT     H1 4766   4.878   9.705   4.380
 1508WAT     H2 4767   4.925   9.637   4.521
 1509WAT      O 4768   6.332   4.454   7.347
 1509WAT     H1 4769   6.314   4.419   7.439
 1509WAT     H2 4770   6.249   4.493   7.309
 1510WAT      O 4771   5.663   4.351   2.029
 1510WAT     H1 4772   5.702   4.363   2.121
 1510WAT     H2 4773   5.617   4.436   2.002
 1511WAT      O 4774   6.442   6.339   3.810
 1511WAT     H1 4775   6.473   6.280   3.885
 1511WAT     H2 4776   6.505   6.415   3.798
 1512WAT      O 4777   1.414   6.777   5.166
 1512WAT     H1 4778   1.438   6.746   5.074
 1512WAT     H2 4779   1.434   6.875   5.174
 1513WAT      O 4780   2.217   2.606   7.099
 1513WAT     H1 4781   2.307   2.595   7.142
 1513WAT     H2 4782   2.225   2.586   7.001
 1514WAT      O 4783   0.302   0.856   2.513
 1514WAT     H1 4784   0.382   0.826   2.462
 1514WAT     H2 4785   0.322   0.854   2.611
 1515WAT      O 4786   8.841   5.006   2.141
 1515WAT     H1 4787   8.920   4.959   2.100
 1515WAT     H2 4788   8.873   5.071   2.210
 1516WAT      O 4789   4.589   5.154   6.864
 1516WAT     H1 4790   4.647   5.157   6.946
 1516WAT     H2 4791   4.638   5.110   6.790
 1517WAT      O 4792   4.927   7.402   0.720
 1517WAT     H1 4793   4.936   7.440   0.813
 1517WAT     H2 4794   5.012   7.418   0.670
 1518WAT      O 4795   2.418   1.812   6.387
 1518WAT     H1 4796   2.483   1.837   6.459
 1518WAT     H2 4797   2.372   1.727   6.411
 1519WAT      O 4798   9.217   1.422   2.024
 1519WAT     H1 4799   9.139   1.445   2.081
 1519WAT     H2 4800   9.215   1.478   1.941
 1520WAT      O 4801   8.433   8.387   3.044
 1520WAT     H1 4802   8.523   8.386   3.089
 1520WAT     H2 4803   8.430   8.460   2.976
 1521WAT      O 4804   0.635   0.583   3.959
 1521WAT     H1 4805   0.609   0.677   3.981
 1521WAT     H2 4806   0.585   0.553   3.878
 1522WAT      O 4807   4.797   8.902   4.701
 1522WAT     H1 4808   4.830   8.815   4.664
 1522WAT     H2 4809   4.811   8.974   4.634
 1523WAT      O 4810   8.719   7.860   7.500
 1523WAT     H1 4811   8.799   7.805   7.521
 1523WAT     H2 4812   8.638   7.820   7.544
 1524WAT      O 4813   3.761   2.736   4.917
 1524WAT     H1 4814   3.731   2.752   4.823
 1524WAT     H2 4815   3.750   2.639   4.940
 1525WAT      O 4816   9.634   2.040   4.324
 1525WAT     H1 4817   9.543   2.033   4.284
 1525WAT     H2 4818   9.641   1.980   4.403
 1526WAT      O 4819   1.340   5.874   8.984
 1526WAT     H1 4820   1.316   5.817   9.063
 1526WAT     H2 4821   1.437   5.897   8.987
 1527WAT      O 4822   9.430   6.038   5.702
 1527WAT     H1 4823   9.417   6.006   5.796
 1527WAT     H2 4824   9.446   6.136   5.701
 1528WAT      O 4825   1.130   3.952   0.475
 1528WAT     H1 4826   1.183   3.875   0.510
 1528WAT     H2 4827   1.075   3.991   0.549
 1529WAT      O 4828   8.611   1.270   7.128
 1529WAT     H1 4829   8.630   1.297   7.222
 1529WAT     H2 4830   8.696   1.257   7.078
 1530WAT      O 4831   0.622   8.249   6.389
 1530WAT     H1 4832   0.557   8.255   6.313
 1530WAT     H2 4833   0.613   8.160   6.434
 1531WAT      O 4834   4.327   1.097   2.902
 1531WAT     H1 4835   4.311   1.156   2.822
 1531WAT     H2 4836   4.410   1.126   2.949
 1532WAT      O 4837   1.871   1.094   2.555
 1532WAT     H1 4838   1.899   1.125   2.645
 1532WAT     H2 4839   1.829   1.169   2.505
 1533WAT      O 4840   9.306   2.071   2.037
 1533WAT     H1 4841   9.219   2.040   1.999
 1533WAT     H2 4842   9.344   2.000   2.096
 1534WAT      O 4843   8.723   1.102   9.617
 1534WAT     H1 4844   8.746   1.082   9.712
 1534WAT     H2 4845   8.646   1.046   9.588
 1535WAT      O 4846   0.798   4.736   6.603
 1535WAT     H1 4847   0.714   4.707   6.558
 1535WAT     H2 4848   0.863   4.771   6.535
 1536WAT      O 4849   3.750   4.839   5.662
 1536WAT     H1 4850   3.764   4.780   5.583
 1536WAT     H2 4851   3.719   4.784   5.740
 1537WAT      O 4852   8.284   4.213   9.325
 1537WAT     H1 4853   8.277   4.130   9.380
 1537WAT     H2 4854   8.380   4.240   9.318
 1538WAT      O 4855   8.180   0.065   0.854
 1538WAT     H1 4856   8.148   0.111   0.937
 1538WAT     H2 4857   8.277   0.042   0.864
 1539WAT      O 4858   4.592   8.107   8.200
 1539WAT     H1 4859   4.677   8.151   8.174
 1539WAT     H2 4860   4.538   8.087   8.118
 1540WAT      O 4861   0.079   8.840   2.979
 1540WAT     H1 4862   0.139   8.916   3.001
 1540WAT     H2 4863   0.127   8.777   2.917
 1541WAT      O 4864   6.454   5.087   8.638
 1541WAT     H1 4865   6.551   5.065   8.632
 1541WAT     H2 4866   6.411   5.074   8.549
 1542WAT      O 4867   0.712   8.934   5.745
 1542WAT     H1 4868   0.773   9.012   5.760
 1542WAT     H2 4869   0.728   8.865   5.815
 1543WAT      O 4870   0.045   3.076   2.266
 1543WAT     H1 4871  -0.034   3.066   2.206
 1543WAT     H2 4872   0.030   3.023   2.349
 1544WAT      O 4873   6.397   5.091   8.382
 1544WAT     H1 4874   6.398   5.006   8.330
 1544WAT     H2 4875   6.338   5.157   8.337
 1545WAT      O 4876   7.428   0.933   8.682
 1545WAT     H1 4877   7.364   0.931   8.759
 1545WAT     H2 4878   7.435   0.842   8.642
 1546WAT      O 4879   3.915   2.054   7.022
 1546WAT     H1 4880   3.951   1.972   7.066
 1546WAT     H2 4881   3.832   2.084   7.070
 1547WAT      O 4882   3.919   1.478   8.458
 1547WAT     H1 4883   3.985   1.548   8.484
 1547WAT     H2 4884   3.829   1.501   8.494
 1548WAT      O 4885   7.629   1.671   2.954
 1548WAT     H1 4886   7.623   1.655   2.856
 1548WAT     H2 4887   7.540   1.698   2.989
 1549WAT      O 4888   5.780   1.335   9.791
 1549WAT     H1 4889   5.770   1.432   9.769
 1549WAT     H2 4890   5.700   1.285   9.759
 1550WAT      O 4891   1.358   2.110   6.750
 1550WAT     H1 4892   1.445   2.159   6.755
 1550WAT     H2 4893   1.371   2.024   6.702
 1551WAT      O 4894   8.737   6.595   6.416
 1551WAT     H1 4895   8.722   6.675   6.358
 1551WAT     H2 4896   8.737   6.512   6.360
 1552WAT      O 4897   1.593   6.383   1.494
 1552WAT     H1 4898   1.576   6.399   1.591
 1552WAT     H2 4899   1.514   6.414   1.440
 1553WAT      O 4900   5.699   1.789   9.019
 1553WAT     H1 4901   5.617   1.740   9.047
 1553WAT     H2 4902   5.735   1.840   9.097
 1554WAT      O 4903   6.545   1.990   2.725
 1554WAT     H1 4904   6.558   1.997   2.626
 1554WAT     H2 4905   6.451   1.961   2.744
 1555WAT      O 4906   2.943   6.022   3.429
 1555WAT     H1 4907   2.851   5.982   3.430
 1555WAT     H2 4908   3.004   5.965   3.374
 1556WAT      O 4909   5.627   3.295   8.842
 1556WAT     H1 4910   5.649   3.197   8.836
 1556WAT     H2 4911   5.539   3.307   8.886
 1557WAT      O 4912   5.114   5.055   9.690
 1557WAT     H1 4913   5.066   5.125   9.744
 1557WAT     H2 4914   5.138   4.978   9.749
 1558WAT      O 4915   1.115   0.375   6.586
 1558WAT     H1 4916   1.207   0.412   6.601
 1558WAT     H2 4917   1.047   0.442   6.618
 1559WAT      O 4918   0.862   3.984   5.246
 1559WAT     H1 4919   0.773   3.959   5.209
 1559WAT     H2 4920   0.895   4.066   5.199
 1560WAT      O 4921   4.845   4.912   1.410
 1560WAT     H1 4922   4.905   4.833   1.413
 1560WAT     H2 4923   4.864   4.972   1.487
 1561WAT      O 4924   2.528   3.532   9.595
 1561WAT     H1 4925   2.470   3.608   9.567
 1561WAT     H2 4926   2.601   3.565   9.655
 1562WAT      O 4927   1.304   5.912   7.180
 1562WAT     H1 4928   1.384   5.956   7.220
 1562WAT     H2 4929   1.332   5.828   7.134
 1563WAT      O 4930   3.073   2.676   9.227
 1563WAT     H1 4931   3.045   2.665   9.323
 1563WAT     H2 4932   3.020   2.751   9.186
 1564WAT      O 4933   1.430   2.688   6.460
 1564WAT     H1 4934   1.461   2.594   6.444
 1564WAT     H2 4935   1.498   2.736   6.516
 1565WAT      O 4936   3.139   6.549   5.164
 1565WAT     H1 4937   3.230   6.514   5.183
 1565WAT     H2 4938   3.145   6.621   5.095
 1566WAT      O 4939   0.756   9.154   2.687
 1566WAT     H1 4940   0.829   9.086   2.695
 1566WAT     H2 4941   0.753   9.189   2.593
 1567WAT      O 4942   1.396   4.388   7.870
 1567WAT     H1 4943   1.414   4.382   7.772
 1567WAT     H2 4944   1.387   4.296   7.908
 1568WAT      O 4945   1.523   9.627   2.255
 1568WAT     H1 4946   1.443   9.568   2.243
 1568WAT     H2 4947   1.494   9.715   2.292
 1569WAT      O 4948   2.365   7.981   0.943
 1569WAT     H1 4949   2.354   8.026   0.854
 1569WAT     H2 4950   2.352   8.047   1.016
 1570WAT      O 4951   8.341   5.023   8.200
 1570WAT     H1 4952   8.349   4.933   8.159
 1570WAT     H2 4953   8.249   5.059   8.186
 1571WAT      O 4954   3.911   1.287   0.259
 1571WAT     H1 4955   3.953   1.364   0.210
 1571WAT     H2 4956   3.969   1.260   0.335
 1572WAT      O 4957   1.367   6.942   2.843
 1572WAT     H1 4958   1.343   6.852   2.806
 1572WAT     H2 4959   1.322   6.956   2.931
 1573WAT      O 4960   4.255   8.197   0.045
 1573WAT     H1 4961   4.181   8.160  -0.011
 1573WAT     H2 4962   4.229   8.192   0.141
 1574WAT      O 4963   1.510   0.688   6.774
 1574WAT     H1 4964   1.585   0.751   6.794
 1574WAT     H2 4965   1.541   0.594   6.789
 1575WAT      O 4966   5.660   2.523   5.548
 1575WAT     H1 4967   5.617   2.458   5.486
 1575WAT     H2 4968   5.738   2.566   5.502
 1576WAT      O 4969   2.550   3.460   5.916
 1576WAT     H1 4970   2.609   3.526   5.870
 1576WAT     H2 4971   2.575   3.368   5.887
 1577WAT      O 4972   3.735   2.836   9.592
 1577WAT     H1 4973   3.791   2.769   9.543
 1577WAT     H2 4974   3.770   2.928   9.572
 1578WAT      O 4975   5.167   9.276   0.903
 1578WAT     H1 4976   5.157   9.223   0.818
 1578WAT     H2 4977   5.258   9.261   0.940
 1579WAT      O 4978   5.442   3.549   7.033
 1579WAT     H1 4979   5.500   3.495   7.094
 1579WAT     H2 4980   5.499   3.592   6.962
 1580WAT      O 4981   1.770   5.077   9.187
 1580WAT     H1 4982   1.700   5.148   9.198
 1580WAT     H2 4983   1.728   4.995   9.149
 1581WAT      O 4984   3.541   1.575   8.222
 1581WAT     H1 4985   3.465   1.562   8.285
 1581WAT     H2 4986   3.509   1.562   8.128
 1582WAT      O 4987   0.420   9.738   0.713
 1582WAT     H1 4988   0.323   9.718   0.724
 1582WAT     H2 4989   0.469   9.653   0.693
 1583WAT      O 4990   1.189   8.860   8.808
 1583WAT     H1 4991   1.228   8.769   8.793
 1583WAT     H2 4992   1.092   8.850   8.832
 1584WAT      O 4993   1.670   5.614   7.295
 1584WAT     H1 4994   1.629   5.523   7.293
 1584WAT     H2 4995   1.701   5.639   7.204
 1585WAT      O 4996   8.206   6.337   8.903
 1585WAT     H1 4997   8.162   6.426   8.887
 1585WAT     H2 4998   8.149   6.265   8.864
 1586WAT      O 4999   7.630   4.403   4.362
 1586WAT     H1 5000   7.701   4.409   4.432
 1586WAT     H2 5001   7.662   4.344   4.288
 1587WAT      O 5002   2.949   1.430   0.665
 1587WAT     H1 5003   2.915   1.509   0.715
 1587WAT     H2 5004   2.954   1.351   0.726
 1588WAT      O 5005   3.525   3.561   2.447
 1588WAT     H1 5006   3.604   3.623   2.443
 1588WAT     H2 5007   3.555   3.467   2.430
 1589WAT      O 5008   8.894   9.289   9.045
 1589WAT     H1 5009   8.884   9.356   8.972
 1589WAT     H2 5010   8.824   9.218   9.036
 1590WAT      O 5011   7.672   9.777   5.154
 1590WAT     H1 5012   7.760   9.809   5.119
 1590WAT     H2 5013   7.685   9.693   5.206
 1591WAT      O 5014   3.528   4.243   3.275
 1591WAT     H1 5015   3.469   4.162   3.284
 1591WAT     H2 5016   3.555   4.275   3.365
 1592WAT      O 5017   1.236   7.890   8.185
 1592WAT     H1 5018   1.261   7.804   8.231
 1592WAT     H2 5019   1.136   7.901   8.188
 1593WAT      O 5020   2.570   9.217   9.643
 1593WAT     H1 5021   2.473   9.213   9.621
 1593WAT     H2 5022   2.586   9.289   9.711
 1594WAT      O 5023   9.083   8.029   4.603
 1594WAT     H1 5024   9.101   7.943   4.555
 1594WAT     H2 5025   9.140   8.102   4.563
 1595WAT      O 5026   2.722   8.328   4.415
 1595WAT     H1 5027   2.681   8.252   4.466
 1595WAT     H2 5028   2.814   8.302   4.387
 1596WAT      O 5029   2.484   4.207   4.290
 1596WAT     H1 5030   2.504   4.125   4.237
 1596WAT     H2 5031   2.565   4.235   4.341
 1597WAT      O 5032   4.605   9.543   6.720
 1597WAT     H1 5033   4.589   9.493   6.636
 1597WAT     H2 5034   4.576   9.638   6.708
 1598WAT      O 5035   7.052   3.784   7.065
 1598WAT     H1 5036   6.954   3.769   7.056
 1598WAT     H2 5037   7.101   3.714   7.012
 1599WAT      O 5038   1.585   5.189   5.615
 1599WAT     H1 5039   1.531   5.259   5.568
 1599WAT     H2 5040   1.523   5.122   5.657
 1600WAT      O 5041   4.249   4.096   4.396
 1600WAT     H1 5042   4.344   4.073   4.420
 1600WAT     H2 5043   4.217   4.033   4.326
 1601WAT      O 5044   5.171   5.827   2.183
 1601WAT     H1 5045   5.185   5.866   2.093
 1601WAT     H2 5046   5.094   5.763   2.180
 1602WAT      O 5047   5.319   1.643   6.428
 1602WAT     H1 5048   5.314   1.692   6.515
 1602WAT     H2 5049   5.396   1.678   6.374
 1603WAT      O 5050   6.157   6.811   6.084
 1603WAT     H1 5051   6.245   6.774   6.114
 1603WAT     H2 5052   6.161   6.911   6.084
 1604WAT      O 5053   3.917   7.311   0.824
 1604WAT     H1 5054   3.845   7.370   0.787
 1604WAT     H2 5055   3.876   7.247   0.889
 1605WAT      O 5056   9.470   2.549   3.833
 1605WAT     H1 5057   9.432   2.596   3.753
 1605WAT     H2 5058   9.413   2.470   3.856
 1606WAT      O 5059   7.353   8.307   8.173
 1606WAT     H1 5060   7.325   8.250   8.096
 1606WAT     H2 5061   7.271   8.339   8.221
 1607WAT      O 5062   0.092   5.663   0.439
 1607WAT     H1 5063   0.039   5.722   0.378
 1607WAT     H2 5064   0.183   5.648   0.400
 1608WAT      O 5065   0.165   4.019   4.608
 1608WAT     H1 5066   0.195   3.923   4.606
 1608WAT     H2 5067   0.082   4.029   4.554
 1609WAT      O 5068   7.639   3.453   3.380
 1609WAT     H1 5069   7.626   3.360   3.416
 1609WAT     H2 5070   7.704   3.502   3.438
 1610WAT      O 5071   4.231   8.155   2.602
 1610WAT     H1 5072   4.215   8.062   2.633
 1610WAT     H2 5073   4.306   8.156   2.535
 1611WAT      O 5074   8.207   2.775   2.842
 1611WAT     H1 5075   8.135   2.708   2.858
 1611WAT     H2 5076   8.235   2.772   2.746
 1612WAT      O 5077   7.921   5.194   7.905
 1612WAT     H1 5078   7.935   5.293   7.896
 1612WAT     H2 5079   7.937   5.150   7.817
 1613WAT      O 5080   2.905   1.793   2.633
 1613WAT     H1 5081   2.964   1.791   2.713
 1613WAT     H2 5082   2.937   1.863   2.569
 1614WAT      O 5083   9.283   6.445   6.433
 1614WAT     H1 5084   9.218   6.385   6.480
 1614WAT     H2 5085   9.256   6.457   6.338
 1615WAT      O 5086   0.520   4.621   3.263
 1615WAT     H1 5087   0.509   4.552   3.334
 1615WAT     H2 5088   0.580   4.586   3.191
 1616WAT      O 5089   1.618   3.981   8.799
 1616WAT     H1 5090   1.622   3.954   8.702
 1616WAT     H2 5091   1.708   3.968   8.841
 1617WAT      O 5092   1.974   8.259   2.501
 1617WAT     H1 5093   1.967   8.358   2.511
 1617WAT     H2 5094   2.046   8.224   2.562
 1618WAT      O 5095   8.220   8.012   7.534
 1618WAT     H1 5096   8.319   8.023   7.525
 1618WAT     H2 5097   8.188   8.061   7.615
 1619WAT      O 5098   5.155   7.053   7.387
 1619WAT     H1 5099   5.230   7.095   7.335
 1619WAT     H2 5100   5.094   7.006   7.324
 1620WAT      O 5101   0.902   2.088   2.279
 1620WAT     H1 5102   0.901   2.151   2.201
 1620WAT     H2 5103   0.912   1.994   2.246
 1621WAT      O 5104   9.160   3.766   7.703
 1621WAT     H1 5105   9.104   3.725   7.774
 1621WAT     H2 5106   9.139   3.863   7.696
 1622WAT      O 5107   0.703   7.705   3.046
 1622WAT     H1 5108   0.688   7.624   2.989
 1622WAT     H2 5109   0.645   7.780   3.013
 1623WAT      O 5110   8.118   2.767   4.862
 1623WAT     H1 5111   8.044   2.711   4.901
 1623WAT     H2 5112   8.205   2.719   4.872
 1624WAT      O 5113   5.980   5.130   5.140
 1624WAT     H1 5114   5.964   5.183   5.223
 1624WAT     H2 5115   6.021   5.042   5.164
 1625WAT      O 5116   8.924   8.535   0.288
 1625WAT     H1 5117   8.931   8.551   0.189
 1625WAT     H2 5118   8.911   8.622   0.334
 1626WAT      O 5119   5.408   4.397   2.625
 1626WAT     H1 5120   5.485   4.335   2.611
 1626WAT     H2 5121   5.325   4.344   2.638
 1627WAT      O 5122   3.114   1.597   4.335
 1627WAT     H1 5123   3.172   1.594   4.254
 1627WAT     H2 5124   3.171   1.606   4.417
 1628WAT      O 5125   9.560   0.781   4.024
 1628WAT     H1 5126   9.571   0.760   3.927
 1628WAT     H2 5127   9.616   0.718   4.078
 1629WAT      O 5128   0.390   6.263   5.619
 1629WAT     H1 5129   0.438   6.188   5.573
 1629WAT     H2 5130   0.450   6.343   5.623
 1630WAT      O 5131   9.621   3.171   5.839
 1630WAT     H1 5132   9.583   3.258   5.872
 1630WAT     H2 5133   9.576   3.146   5.753
 1631WAT      O 5134   3.948   5.645   8.876
 1631WAT     H1 5135   3.939   5.724   8.815
 1631WAT     H2 5136   3.967   5.563   8.822
 1632WAT      O 5137   9.070   3.795   5.200
 1632WAT     H1 5138   9.054   3.878   5.146
 1632WAT     H2 5139   9.089   3.821   5.295
 1633WAT      O 5140   9.016   2.911   0.660
 1633WAT     H1 5141   8.972   2.859   0.734
 1633WAT     H2 5142   8.950   2.976   0.622
 1634WAT      O 5143   0.959   4.529   7.250
 1634WAT     H1 5144   0.938   4.608   7.308
 1634WAT     H2 5145   0.888   4.460   7.263
 1635WAT      O 5146   4.369   4.508   9.589
 1635WAT     H1 5147   4.304   4.558   9.645
 1635WAT     H2 5148   4.341   4.511   9.493
 1636WAT      O 5149   1.825   9.792   7.844
 1636WAT     H1 5150   1.886   9.856   7.891
 1636WAT     H2 5151   1.774   9.841   7.773
 1637WAT      O 5152   2.549   2.698   1.924
 1637WAT     H1 5153   2.618   2.767   1.945
 1637WAT     H2 5154   2.523   2.705   1.827
 1638WAT      O 5155   8.150   6.620   2.252
 1638WAT     H1 5156   8.110   6.541   2.299
 1638WAT     H2 5157   8.128   6.614   2.155
 1639WAT      O 5158   8.383   0.903   8.720
 1639WAT     H1 5159   8.453   0.944   8.663
 1639WAT     H2 5160   8.404   0.920   8.816
 1640WAT      O 5161   8.084   6.194   9.331
 1640WAT     H1 5162   8.090   6.194   9.431
 1640WAT     H2 5163   8.003   6.142   9.303
 1641WAT      O 5164   6.405   2.710   4.598
 1641WAT     H1 5165   6.419   2.612   4.616
 1641WAT     H2 5166   6.314   2.737   4.631
 1642WAT      O 5167   7.282   8.114   6.861
 1642WAT     H1 5168   7.364   8.167   6.881
 1642WAT     H2 5169   7.224   8.165   6.797
 1643WAT      O 5170   2.091   3.770   4.957
 1643WAT     H1 5171   2.085   3.824   5.041
 1643WAT     H2 5172   2.172   3.712   4.961
 1644WAT      O 5173   8.505   4.544   1.162
 1644WAT     H1 5174   8.562   4.583   1.090
 1644WAT     H2 5175   8.470   4.455   1.133
 1645WAT      O 5176   3.949   4.984   2.103
 1645WAT     H1 5177   3.883   4.992   2.027
 1645WAT     H2 5178   3.906   5.014   2.188
 1646WAT      O 5179   6.029   9.378   5.128
 1646WAT     H1 5180   6.028   9.279   5.146
 1646WAT     H2 5181   5.969   9.398   5.050
 1647WAT      O 5182   3.160   6.166   2.912
 1647WAT     H1 5183   3.078   6.179   2.967
 1647WAT     H2 5184   3.141   6.102   2.837
 1648WAT      O 5185   2.071   8.343   6.043
 1648WAT     H1 5186   2.147   8.307   5.990
 1648WAT     H2 5187   1.985   8.322   5.997
 1649WAT      O 5188   1.855   2.592   1.334
 1649WAT     H1 5189   1.839   2.676   1.283
 1649WAT     H2 5190   1.940   2.599   1.386
 1650WAT      O 5191   7.590   4.023   2.713
 1650WAT     H1 5192   7.597   3.925   2.732
 1650WAT     H2 5193   7.681   4.061   2.696
 1651WAT      O 5194   6.550   5.978   0.423
 1651WAT     H1 5195   6.541   6.077   0.421
 1651WAT     H2 5196   6.464   5.936   0.395
 1652WAT      O 5197   7.560   2.759   9.725
 1652WAT     H1 5198   7.476   2.707   9.709
 1652WAT     H2 5199   7.608   2.772   9.639
 1653WAT      O 5200   6.055   6.865   8.782
 1653WAT     H1 5201   6.002   6.927   8.723
 1653WAT     H2 5202   6.062   6.904   8.874
 1654WAT      O 5203   5.188   3.904   4.502
 1654WAT     H1 5204   5.151   3.993   4.477
 1654WAT     H2 5205   5.117   3.834   4.491
 1655WAT      O 5206   6.323   4.534   0.303
 1655WAT     H1 5207   6.244   4.562   0.249
 1655WAT     H2 5208   6.292   4.503   0.393
 1656WAT      O 5209   2.097   0.627   6.580
 1656WAT     H1 5210   2.142   0.538   6.581
 1656WAT     H2 5211   2.095   0.663   6.487
 1657WAT      O 5212   7.734   5.692   2.906
 1657WAT     H1 5213   7.726   5.616   2.842
 1657WAT     H2 5214   7.739   5.778   2.856
 1658WAT      O 5215   1.471   1.516   6.393
 1658WAT     H1 5216   1.507   1.589   6.335
 1658WAT     H2 5217   1.546   1.455   6.420
 1659WAT      O 5218   6.393   7.908   2.998
 1659WAT     H1 5219   6.432   7.898   3.089
 1659WAT     H2 5220   6.380   8.005   2.978
 1660WAT      O 5221   4.236   6.556   0.100
 1660WAT     H1 5222   4.299   6.511   0.037
 1660WAT     H2 5223   4.168   6.608   0.048
 1661WAT      O 5224   3.623   7.381   4.838
 1661WAT     H1 5225   3.599   7.302   4.781
 1661WAT     H2 5226   3.694   7.355   4.902
 1662WAT      O 5227   8.823   6.759   0.249
 1662WAT     H1 5228   8.875   6.701   0.311
 1662WAT     H2 5229   8.752   6.704   0.204
 1663WAT      O 5230   5.313   0.407   3.437
 1663WAT     H1 5231   5.367   0.477   3.391
 1663WAT     H2 5232   5.370   0.360   3.505
 1664WAT      O 5233   5.062   2.880   7.761
 1664WAT     H1 5234   5.129   2.937   7.712
 1664WAT     H2 5235   5.039   2.801   7.705
 1665WAT      O 5236   9.380   4.167   3.318
 1665WAT     H1 5237   9.472   4.194   3.289
 1665WAT     H2 5238   9.379   4.156   3.417
 1666WAT      O 5239   1.819   5.588   4.914
 1666WAT     H1 5240   1.901   5.645   4.907
 1666WAT     H2 5241   1.824   5.514   4.847
 1667WAT      O 5242   7.174   5.816   8.954
 1667WAT     H1 5243   7.273   5.822   8.964
 1667WAT     H2 5244   7.132   5.893   9.003
 1668WAT      O 5245   5.326   6.314   3.649
 1668WAT     H1 5246   5.258   6.375   3.691
 1668WAT     H2 5247   5.374   6.363   3.577
 1669WAT      O 5248   4.033   6.197   1.150
 1669WAT     H1 5249   3.958   6.231   1.094
 1669WAT     H2 5250   4.097   6.272   1.170
 1670WAT      O 5251   0.031   8.686   9.448
 1670WAT     H1 5252  -0.004   8.732   9.367
 1670WAT     H2 5253   0.112   8.632   9.423
 1671WAT      O 5254   7.198   5.215   3.489
 1671WAT     H1 5255   7.277   5.206   3.550
 1671WAT     H2 5256   7.147   5.129   3.487
 1672WAT      O 5257   1.874   9.817   9.444
 1672WAT     H1 5258   1.840   9.803   9.537
 1672WAT     H2 5259   1.936   9.894   9.443
 1673WAT      O 5260   2.942   2.701   9.715
 1673WAT     H1 5261   2.938   2.616   9.768
 1673WAT     H2 5262   2.858   2.753   9.731
 1674WAT      O 5263   0.330   5.577   8.495
 1674WAT     H1 5264   0.321   5.566   8.594
 1674WAT     H2 5265   0.359   5.670   8.475
 1675WAT      O 5266   8.825   6.215   1.887
 1675WAT     H1 5267   8.816   6.303   1.935
 1675WAT     H2 5268   8.748   6.204   1.824
 1676WAT      O 5269   0.505   5.154   3.461
 1676WAT     H1 5270   0.482   5.144   3.364
 1676WAT     H2 5271   0.465   5.079   3.513
 1677WAT      O 5272   6.488   8.270   7.088
 1677WAT     H1 5273   6.578   8.226   7.097
 1677WAT     H2 5274   6.418   8.201   7.072
 1678WAT      O 5275   3.477   7.135   8.526
 1678WAT     H1 5276   3.521   7.071   8.462
 1678WAT     H2 5277   3.496   7.229   8.497
 1679WAT      O 5278   6.159   6.045   1.563
 1679WAT     H1 5279   6.107   6.123   1.530
 1679WAT     H2 5280   6.097   5.978   1.605
 1680WAT      O 5281   8.624   6.507   8.897
 1680WAT     H1 5282   8.718   6.481   8.875
 1680WAT     H2 5283   8.590   6.448   8.971
 1681WAT      O 5284   8.945   7.897   2.722
 1681WAT     H1 5285   8.947   7.932   2.816
 1681WAT     H2 5286   9.031   7.850   2.703
 1682WAT      O 5287   1.204   7.724   0.487
 1682WAT     H1 5288   1.265   7.646   0.479
 1682WAT     H2 5289   1.220   7.771   0.574
 1683WAT      O 5290   0.200   1.314   8.273
 1683WAT     H1 5291   0.165   1.388   8.330
 1683WAT     H2 5292   0.300   1.312   8.278
 1684WAT      O 5293   7.219   7.415   8.104
 1684WAT     H1 5294   7.316   7.407   8.127
 1684WAT     H2 5295   7.196   7.510   8.084
 1685WAT      O 5296   0.034   3.303   7.427
 1685WAT     H1 5297   0.082   3.376   7.378
 1685WAT     H2 5298  -0.060   3.296   7.392
 1686WAT      O 5299   0.131   7.668   1.897
 1686WAT     H1 5300   0.136   7.765   1.877
 1686WAT     H2 5301   0.223   7.628   1.897
 1687WAT      O 5302   1.867   7.231   7.531
 1687WAT     H1 5303   1.826   7.192   7.448
 1687WAT     H2 5304   1.856   7.331   7.528
 1688WAT      O 5305   5.747   8.220   1.542
 1688WAT     H1 5306   5.678   8.290   1.526
 1688WAT     H2 5307   5.713   8.154   1.610
 1689WAT      O 5308   6.943   8.179   6.905
 1689WAT     H1 5309   7.001   8.153   6.982
 1689WAT     H2 5310   6.998   8.181   6.822
 1690WAT      O 5311   4.291   1.115   6.015
 1690WAT     H1 5312   4.352   1.050   5.970
 1690WAT     H2 5313   4.291   1.097   6.114
 1691WAT      O 5314   7.828   5.352   6.655
 1691WAT     H1 5315   7.759   5.329   6.587
 1691WAT     H2 5316   7.791   5.338   6.747
 1692WAT      O 5317   0.362   1.841   7.667
 1692WAT     H1 5318   0.317   1.761   7.627
 1692WAT     H2 5319   0.439   1.868   7.609
 1693WAT      O 5320   0.169   7.085   7.403
 1693WAT     H1 5321   0.130   7.043   7.485
 1693WAT     H2 5322   0.145   7.030   7.323
 1694WAT      O 5323   6.083   1.142   0.185
 1694WAT     H1 5324   6.030   1.163   0.103
 1694WAT     H2 5325   6.165   1.090   0.159
 1695WAT      O 5326   3.294   9.112   9.259
 1695WAT     H1 5327   3.357   9.101   9.336
 1695WAT     H2 5328   3.203   9.137   9.293
 1696WAT      O 5329   0.503   8.713   3.197
 1696WAT     H1 5330   0.436   8.701   3.270
 1696WAT     H2 5331   0.489   8.644   3.126
 1697WAT      O 5332   1.601   0.491   4.720
 1697WAT     H1 5333   1.595   0.436   4.637
 1697WAT     H2 5334   1.666   0.450   4.783
 1698WAT      O 5335   9.875   2.092   5.236
 1698WAT     H1 5336   9.882   2.141   5.149
 1698WAT     H2 5337   9.817   2.011   5.224
 1699WAT      O 5338   9.224   7.891   5.196
 1699WAT     H1 5339   9.324   7.896   5.197
 1699WAT     H2 5340   9.196   7.805   5.154
 1700WAT      O 5341   9.096   2.007   2.433
 1700WAT     H1 5342   9.040   1.988   2.514
 1700WAT     H2 5343   9.097   1.927   2.373
 1701WAT      O 5344   1.032   0.540   4.566
 1701WAT     H1 5345   1.085   0.545   4.481
 1701WAT     H2 5346   0.939   0.509   4.546
 1702WAT      O 5347   1.970   1.651   8.884
 1702WAT     H1 5348   2.021   1.690   8.807
 1702WAT     H2 5349   1.873   1.672   8.874
 1703WAT      O 5350   7.094   0.442   0.399
 1703WAT     H1 5351   7.026   0.515   0.404
 1703WAT     H2 5352   7.091   0.400   0.308
 1704WAT      O 5353   9.812   3.316   5.052
 1704WAT     H1 5354   9.887   3.340   4.991
 1704WAT     H2 5355   9.824   3.363   5.140
 1705WAT      O 5356   4.083   6.356   3.013
 1705WAT     H1 5357   4.140   6.388   2.937
 1705WAT     H2 5358   4.114   6.266   3.042
 1706WAT      O 5359   7.284   2.798   1.713
 1706WAT     H1 5360   7.286   2.701   1.740
 1706WAT     H2 5361   7.268   2.855   1.794
 1707WAT      O 5362   8.649   8.681   7.348
 1707WAT     H1 5363   8.682   8.774   7.329
 1707WAT     H2 5364   8.568   8.663   7.292
 1708WAT      O 5365   1.605   9.333   9.115
 1708WAT     H1 5366   1.515   9.304   9.149
 1708WAT     H2 5367   1.617   9.300   9.021
 1709WAT      O 5368   1.598   8.738   8.436
 1709WAT     H1 5369   1.640   8.741   8.527
 1709WAT     H2 5370   1.604   8.828   8.393
 1710WAT      O 5371   9.867   3.975   1.872
 1710WAT     H1 5372   9.849   4.020   1.960
 1710WAT     H2 5373   9.805   3.898   1.861
 1711WAT      O 5374   7.338   2.158   3.761
 1711WAT     H1 5375   7.431   2.122   3.759
 1711WAT     H2 5376   7.280   2.099   3.816
 1712WAT      O 5377   1.464   8.570   0.136
 1712WAT     H1 5378   1.428   8.661   0.154
 1712WAT     H2 5379   1.400   8.520   0.078
 1713WAT      O 5380   0.426   6.819   7.426
 1713WAT     H1 5381   0.374   6.748   7.378
 1713WAT     H2 5382   0.499   6.853   7.367
 1714WAT      O 5383   7.392   8.814   8.525
 1714WAT     H1 5384   7.490   8.821   8.508
 1714WAT     H2 5385   7.376   8.809   8.624
 1715WAT      O 5386   8.003   2.670   8.757
 1715WAT     H1 5387   8.002   2.707   8.850
 1715WAT     H2 5388   8.093   2.632   8.737
 1716WAT      O 5389   3.350   0.280   4.304
 1716WAT     H1 5390   3.399   0.211   4.250
 1716WAT     H2 5391   3.253   0.277   4.282
 1717WAT      O 5392   0.250   7.406   7.035
 1717WAT     H1 5393   0.325   7.342   7.054
 1717WAT     H2 5394   0.168   7.376   7.084
 1718WAT      O 5395   6.723   6.762   3.570
 1718WAT     H1 5396   6.767   6.714   3.494
 1718WAT     H2 5397   6.624   6.745   3.566
 1719WAT      O 5398   9.661   4.096   5.299
 1719WAT     H1 5399   9.744   4.048   5.326
 1719WAT     H2 5400   9.592   4.030   5.269
 1720WAT      O 5401   8.577   8.218   1.436
 1720WAT     H1 5402   8.624   8.247   1.353
 1720WAT     H2 5403   8.592   8.286   1.508
 1721WAT      O 5404   9.242   3.165   8.161
 1721WAT     H1 5405   9.230   3.220   8.078
 1721WAT     H2 5406   9.314   3.205   8.218
 1722WAT      O 5407   0.548   2.039   9.740
 1722WAT     H1 5408   0.575   2.057   9.835
 1722WAT     H2 5409   0.530   2.125   9.693
 1723WAT      O 5410   2.695   2.253   4.526
 1723WAT     H1 5411   2.681   2.202   4.441
 1723WAT     H2 5412   2.641   2.211   4.599
 1724WAT      O 5413   0.326   1.373   3.885
 1724WAT     H1 5414   0.376   1.322   3.816
 1724WAT     H2 5415   0.291   1.310   3.954
 1725WAT      O 5416   5.083   2.299   4.563
 1725WAT     H1 5417   5.169   2.266   4.524
 1725WAT     H2 5418   5.086   2.289   4.662
 1726WAT      O 5419   4.200   0.130   5.874
 1726WAT     H1 5420   4.284   0.184   5.863
 1726WAT     H2 5421   4.133   0.158   5.806
 1727WAT      O 5422   2.978   3.653   0.237
 1727WAT     H1 5423   3.026   3.739   0.218
 1727WAT     H2 5424   2.892   3.672   0.283
 1728WAT      O 5425   4.083   7.436   8.726
 1728WAT     H1 5426   4.180   7.441   8.704
 1728WAT     H2 5427   4.041   7.360   8.678
 1729WAT      O 5428   8.863   3.151   2.265
 1729WAT     H1 5429   8.935   3.190   2.322
 1729WAT     H2 5430   8.785   3.125   2.323
 1730WAT      O 5431   1.336   5.477   2.625
 1730WAT     H1 5432   1.433   5.471   2.603
 1730WAT     H2 5433   1.301   5.386   2.645
 1731WAT      O 5434   4.538   9.640   4.176
 1731WAT     H1 5435   4.501   9.703   4.245
 1731WAT     H2 5436   4.466   9.617   4.111
 1732WAT      O 5437   6.447   4.797   4.575
 1732WAT     H1 5438   6.387   4.824   4.650
 1732WAT     H2 5439   6.424   4.850   4.493
 1733WAT      O 5440   8.131   6.200   0.398
 1733WAT     H1 5441   8.062   6.224   0.329
 1733WAT     H2 5442   8.167   6.109   0.377
 1734WAT      O 5443   9.343   3.524   8.746
 1734WAT     H1 5444   9.385   3.522   8.836
 1734WAT     H2 5445   9.263   3.464   8.745
 1735WAT      O 5446   2.027   2.300   0.353
 1735WAT     H1 5447   1.967   2.232   0.394
 1735WAT     H2 5448   2.042   2.278   0.257
 1736WAT      O 5449   8.658   3.990   3.088
 1736WAT     H1 5450   8.578   4.033   3.047
 1736WAT     H2 5451   8.741   4.032   3.051
 1737WAT      O 5452   7.032   1.852   5.461
 1737WAT     H1 5453   7.042   1.835   5.363
 1737WAT     H2 5454   7.122   1.863   5.502
 1738WAT      O 5455   2.747   2.688   8.719
 1738WAT     H1 5456   2.744   2.730   8.629
 1738WAT     H2 5457   2.671   2.624   8.729
 1739WAT      O 5458   0.882   5.906   5.485
 1739WAT     H1 5459   0.962   5.966   5.487
 1739WAT     H2 5460   0.913   5.811   5.479
 1740WAT      O 5461   3.169   2.692   8.952
 1740WAT     H1 5462   3.248   2.752   8.964
 1740WAT     H2 5463   3.137   2.661   9.042
 1741WAT      O 5464   2.508   5.159   2.513
 1741WAT     H1 5465   2.443   5.100   2.560
 1741WAT     H2 5466   2.575   5.194   2.578
 1742WAT      O 5467   5.812   7.107   8.079
 1742WAT     H1 5468   5.897   7.156   8.059
 1742WAT     H2 5469   5.734   7.163   8.052
 1743WAT      O 5470   9.187   8.395   3.538
 1743WAT     H1 5471   9.229   8.485   3.554
 1743WAT     H2 5472   9.105   8.406   3.481
 1744WAT      O 5473   9.640   7.003   0.425
 1744WAT     H1 5474   9.722   6.973   0.474
 1744WAT     H2 5475   9.581   6.924   0.407
 1745WAT      O 5476   2.264   7.804   6.538
 1745WAT     H1 5477   2.261   7.781   6.441
 1745WAT     H2 5478   2.247   7.722   6.592
 1746WAT      O 5479   1.026   5.393   8.476
 1746WAT     H1 5480   1.068   5.346   8.554
 1746WAT     H2 5481   0.926   5.394   8.488
 1747WAT      O 5482   6.635   0.558   0.313
 1747WAT     H1 5483   6.630   0.615   0.231
 1747WAT     H2 5484   6.548   0.561   0.361
 1748WAT      O 5485   8.201   2.211   6.764
 1748WAT     H1 5486   8.181   2.269   6.685
 1748WAT     H2 5487   8.199   2.266   6.848
 1749WAT      O 5488   1.671   8.706   2.593
 1749WAT     H1 5489   1.750   8.654   2.563
 1749WAT     H2 5490   1.672   8.713   2.693
 1750WAT      O 5491   5.747   1.598   7.905
 1750WAT     H1 5492   5.785   1.543   7.980
 1750WAT     H2 5493   5.660   1.637   7.935
 1751WAT      O 5494   7.951   6.558   9.300
 1751WAT     H1 5495   7.957   6.564   9.200
 1751WAT     H2 5496   7.965   6.649   9.339
 1752WAT      O 5497   7.893   8.023   1.691
 1752WAT     H1 5498   7.909   8.122   1.696
 1752WAT     H2 5499   7.978   7.975   1.715
 1753WAT      O 5500   9.456   7.864   7.129
 1753WAT     H1 5501   9.466   7.771   7.165
 1753WAT     H2 5502   9.416   7.861   7.037
 1754WAT      O 5503   1.394   4.196   2.454
 1754WAT     H1 5504   1.359   4.102   2.459
 1754WAT     H2 5505   1.481   4.201   2.503
 1755WAT      O 5506   6.144   6.808   2.168
 1755WAT     H1 5507   6.133   6.795   2.069
 1755WAT     H2 5508   6.169   6.902   2.187
 1756WAT      O 5509   2.297   4.371   9.071
 1756WAT     H1 5510   2.294   4.381   8.972
 1756WAT     H2 5511   2.228   4.304   9.100
 1757WAT      O 5512   7.628   8.531   1.304
 1757WAT     H1 5513   7.594   8.622   1.279
 1757WAT     H2 5514   7.705   8.508   1.244
 1758WAT      O 5515   2.620   6.137   5.543
 1758WAT     H1 5516   2.710   6.165   5.511
 1758WAT     H2 5517   2.549   6.180   5.487
 1759WAT      O 5518   7.833   0.498   8.713
 1759WAT     H1 5519   7.824   0.410   8.666
 1759WAT     H2 5520   7.927   0.531   8.705
 1760WAT      O 5521   2.171   9.223   4.385
 1760WAT     H1 5522   2.134   9.277   4.310
 1760WAT     H2 5523   2.112   9.144   4.401
 1761WAT      O 5524   4.588   5.026   0.241
 1761WAT     H1 5525   4.541   4.944   0.275
 1761WAT     H2 5526   4.614   5.012   0.146
 1762WAT      O 5527   4.768   6.621   7.757
 1762WAT     H1 5528   4.670   6.608   7.775
 1762WAT     H2 5529   4.797   6.556   7.687
 1763WAT      O 5530   3.336   0.786   4.613
 1763WAT     H1 5531   3.325   0.839   4.529
 1763WAT     H2 5532   3.397   0.709   4.596
 1764WAT      O 5533   1.969   3.086   2.988
 1764WAT     H1 5534   1.996   3.182   2.977
 1764WAT     H2 5535   2.050   3.028   2.982
 1765WAT      O 5536   3.946   9.635   5.608
 1765WAT     H1 5537   4.011   9.658   5.680
 1765WAT     H2 5538   3.857   9.614   5.648
 1766WAT      O 5539   2.554   7.520   7.455
 1766WAT     H1 5540   2.486   7.472   7.511
 1766WAT     H2 5541   2.595   7.456   7.390
 1767WAT      O 5542   0.127   0.717   9.157
 1767WAT     H1 5543   0.110   0.815   9.143
 1767WAT     H2 5544   0.221   0.704   9.190
 1768WAT      O 5545   6.120   8.023   5.229
 1768WAT     H1 5546   6.124   8.030   5.328
 1768WAT     H2 5547   6.115   8.114   5.189
 1769WAT      O 5548   5.465   8.147   7.551
 1769WAT     H1 5549   5.496   8.094   7.473
 1769WAT     H2 5550   5.506   8.238   7.549
 1770WAT      O 5551   0.386   1.360   1.839
 1770WAT     H1 5552   0.415   1.377   1.933
 1770WAT     H2 5553   0.301   1.307   1.839
 1771WAT      O 5554   5.951   8.648   9.815
 1771WAT     H1 5555   5.971   8.738   9.776
 1771WAT     H2 5556   5.901   8.660   9.901
 1772WAT      O 5557   8.487   5.980   3.794
 1772WAT     H1 5558   8.574   5.952   3.753
 1772WAT     H2 5559   8.480   6.080   3.791
 1773WAT      O 5560   8.669   3.919   5.001
 1773WAT     H1 5561   8.595   3.956   5.056
 1773WAT     H2 5562   8.756   3.935   5.047
 1774WAT      O 5563   2.669   8.224   1.794
 1774WAT     H1 5564   2.727   8.146   1.769
 1774WAT     H2 5565   2.623   8.205   1.880
 1775WAT      O 5566   7.741   5.042   1.788
 1775WAT     H1 5567   7.722   5.139   1.803
 1775WAT     H2 5568   7.681   4.986   1.846
 1776WAT      O 5569   5.245   5.370   8.778
 1776WAT     H1 5570   5.267   5.467   8.774
 1776WAT     H2 5571   5.327   5.315   8.760
 1777WAT      O 5572   6.523   0.973   7.932
 1777WAT     H1 5573   6.561   0.940   8.018
 1777WAT     H2 5574   6.547   0.909   7.859
 1778WAT      O 5575   6.245   7.898   4.338
 1778WAT     H1 5576   6.239   7.807   4.380
 1778WAT     H2 5577   6.153   7.939   4.334
 1779WAT      O 5578   8.073   1.308   9.114
 1779WAT     H1 5579   8.148   1.341   9.171
 1779WAT     H2 5580   8.061   1.210   9.128
 1780WAT      O 5581   1.056   6.614   1.382
 1780WAT     H1 5582   0.997   6.692   1.360
 1780WAT     H2 5583   1.014   6.562   1.456
 1781WAT      O 5584   2.940   9.666   0.228
 1781WAT     H1 5585   2.940   9.660   0.328
 1781WAT     H2 5586   2.945   9.762   0.200
 1782WAT      O 5587   9.434   2.212   9.745
 1782WAT     H1 5588   9.485   2.172   9.821
 1782WAT     H2 5589   9.350   2.253   9.779
 1783WAT      O 5590   2.322   3.034   9.526
 1783WAT     H1 5591   2.363   3.125   9.526
 1783WAT     H2 5592   2.273   3.020   9.441
 1784WAT      O 5593   9.009   3.798   2.280
 1784WAT     H1 5594   9.041   3.765   2.191
 1784WAT     H2 5595   9.024   3.728   2.349
 1785WAT      O 5596   1.384   5.738   4.245
 1785WAT     H1 5597   1.291   5.703   4.249
 1785WAT     H2 5598   1.433   5.695   4.169
 1786WAT      O 5599   0.524   0.063   9.692
 1786WAT     H1 5600   0.424   0.066   9.686
 1786WAT     H2 5601   0.559   0.157   9.695
 1787WAT      O 5602   8.414   6.509   8.691
 1787WAT     H1 5603   8.457   6.480   8.606
 1787WAT     H2 5604   8.479   6.501   8.766
 1788WAT      O 5605   5.331   8.563   2.217
 1788WAT     H1 5606   5.278   8.634   2.263
 1788WAT     H2 5607   5.284   8.476   2.225
 1789WAT      O 5608   0.496   9.563   6.860
 1789WAT     H1 5609   0.478   9.470   6.828
 1789WAT     H2 5610   0.510   9.562   6.959
 1790WAT      O 5611   3.668   9.126   9.064
 1790WAT     H1 5612   3.721   9.150   9.145
 1790WAT     H2 5613   3.730   9.111   8.987
 1791WAT      O 5614   6.437   9.097   9.228
 1791WAT     H1 5615   6.468   9.059   9.141
 1791WAT     H2 5616   6.380   9.030   9.275
 1792WAT      O 5617   9.027   5.422   4.028
 1792WAT     H1 5618   9.081   5.344   3.998
 1792WAT     H2 5619   9.016   5.419   4.127
 1793WAT      O 5620   3.888   4.725   0.490
 1793WAT     H1 5621   3.848   4.800   0.542
 1793WAT     H2 5622   3.877   4.640   0.540
 1794WAT      O 5623   4.193   5.887   9.453
 1794WAT     H1 5624   4.188   5.957   9.524
 1794WAT     H2 5625   4.102   5.848   9.437
 1795WAT      O 5626   5.795   1.456   8.646
 1795WAT     H1 5627   5.785   1.491   8.739
 1795WAT     H2 5628   5.883   1.486   8.609
 1796WAT      O 5629   1.710   7.255   6.531
 1796WAT     H1 5630   1.754   7.170   6.559
 1796WAT     H2 5631   1.660   7.295   6.609
 1797WAT      O 5632   7.059   1.826   3.391
 1797WAT     H1 5633   6.959   1.824   3.388
 1797WAT     H2 5634   7.092   1.914   3.357
 1798WAT      O 5635   9.036   1.152   5.783
 1798WAT     H1 5636   9.091   1.148   5.866
 1798WAT     H2 5637   9.022   1.060   5.747
 1799WAT      O 5638   3.461   1.918   6.611
 1799WAT     H1 5639   3.390   1.961   6.667
 1799WAT     H2 5640   3.509   1.987   6.558
 1800WAT      O 5641   3.733   2.419   7.862
 1800WAT     H1 5642   3.718   2.374   7.950
 1800WAT     H2 5643   3.774   2.354   7.797
 1801WAT      O 5644   2.867   8.863   7.507
 1801WAT     H1 5645   2.875   8.943   7.448
 1801WAT     H2 5646   2.940   8.799   7.486
 1802WAT      O 5647   0.433   5.868   1.000
 1802WAT     H1 5648   0.454   5.880   1.097
 1802WAT     H2 5649   0.337   5.840   0.991
 1803WAT      O 5650   3.258   8.119   7.553
 1803WAT     H1 5651   3.195   8.081   7.621
 1803WAT     H2 5652   3.209   8.132   7.466
 1804WAT      O 5653   8.889   9.454   2.475
 1804WAT     H1 5654   8.806   9.399   2.468
 1804WAT     H2 5655   8.882   9.534   2.416
 1805WAT      O 5656   1.296   1.107   0.480
 1805WAT     H1 5657   1.230   1.043   0.519
 1805WAT     H2 5658   1.389   1.080   0.506
 1806WAT      O 5659   1.459   7.432   1.129
 1806WAT     H1 5660   1.497   7.521   1.103
 1806WAT     H2 5661   1.465   7.369   1.052
 1807WAT      O 5662   7.081   8.260   7.178
 1807WAT     H1 5663   7.092   8.186   7.246
 1807WAT     H2 5664   7.014   8.326   7.212
 1808WAT      O 5665   6.712   3.277   8.587
 1808WAT     H1 5666   6.783   3.346   8.575
 1808WAT     H2 5667   6.714   3.213   8.511
 1809WAT      O 5668   7.082   3.615   0.718
 1809WAT     H1 5669   7.046   3.676   0.789
 1809WAT     H2 5670   7.144   3.549   0.759
 1810WAT      O 5671   9.479   4.961   1.714
 1810WAT     H1 5672   9.483   5.047   1.664
 1810WAT     H2 5673   9.431   4.893   1.660
 1811WAT      O 5674   7.791   8.765   0.845
 1811WAT     H1 5675   7.862   8.799   0.784
 1811WAT     H2 5676   7.791   8.818   0.930
 1812WAT      O 5677   8.423   0.766   5.244
 1812WAT     H1 5678   8.339   0.725   5.281
 1812WAT     H2 5679   8.492   0.694   5.231
 1813WAT      O 5680   8.273   5.742   2.661
 1813WAT     H1 5681   8.200   5.674   2.668
 1813WAT     H2 5682   8.349   5.705   2.608
 1814WAT      O 5683   2.482   2.312   7.263
 1814WAT     H1 5684   2.548   2.280   7.195
 1814WAT     H2 5685   2.402   2.252   7.262
 1815WAT      O 5686   0.277   2.146   3.230
 1815WAT     H1 5687   0.333   2.200   3.167
 1815WAT     H2 5688   0.196   2.112   3.183
 1816WAT      O 5689   5.107   8.111   9.812
 1816WAT     H1 5690   5.108   8.165   9.727
 1816WAT     H2 5691   5.137   8.018   9.793
 1817WAT      O 5692   6.188   2.791   1.299
 1817WAT     H1 5693   6.088   2.794   1.297
 1817WAT     H2 5694   6.219   2.696   1.304
 1818WAT      O 5695   2.178   0.946   8.759
 1818WAT     H1 5696   2.143   0.921   8.669
 1818WAT     H2 5697   2.102   0.964   8.821
 1819WAT      O 5698   4.426   0.433   9.439
 1819WAT     H1 5699   4.402   0.368   9.367
 1819WAT     H2 5700   4.504   0.488   9.409
 1820WAT      O 5701   7.923   8.216   3.750
 1820WAT     H1 5702   7.915   8.289   3.683
 1820WAT     H2 5703   7.836   8.204   3.797
 1821WAT      O 5704   5.388   4.933   0.048
 1821WAT     H1 5705   5.486   4.951   0.040
 1821WAT     H2 5706   5.350   4.988   0.123
 1822WAT      O 5707   5.683   8.753   9.212
 1822WAT     H1 5708   5.632   8.672   9.241
 1822WAT     H2 5709   5.664   8.771   9.115
 1823WAT      O 5710   4.006   5.271   1.571
 1823WAT     H1 5711   3.951   5.289   1.489
 1823WAT     H2 5712   4.071   5.346   1.585
 1824WAT      O 5713   7.929   4.257   3.133
 1824WAT     H1 5714   7.986   4.289   3.058
 1824WAT     H2 5715   7.833   4.281   3.116
 1825WAT      O 5716   6.601   0.665   8.589
 1825WAT     H1 5717   6.619   0.610   8.507
 1825WAT     H2 5718   6.504   0.661   8.612
 1826WAT      O 5719   7.742   1.825   8.860
 1826WAT     H1 5720   7.736   1.776   8.947
 1826WAT     H2 5721   7.809   1.899   8.868
 1827WAT      O 5722   1.706   9.277   2.992
 1827WAT     H1 5723   1.612   9.309   3.002
 1827WAT     H2 5724   1.769   9.354   3.003
 1828WAT      O 5725   9.890   3.039   5.056
 1828WAT     H1 5726   9.828   2.975   5.102
 1828WAT     H2 5727   9.856   3.132   5.067
 1829WAT      O 5728   3.294   3.069   4.470
 1829WAT     H1 5729   3.393   3.077   4.468
 1829WAT     H2 5730   3.262   3.070   4.564
 1830WAT      O 5731   0.341   3.391   6.587
 1830WAT     H1 5732   0.252   3.429   6.565
 1830WAT     H2 5733   0.396   3.458   6.638
 1831WAT      O 5734   9.643   1.539   3.234
 1831WAT     H1 5735   9.568   1.532   3.300
 1831WAT     H2 5736   9.607   1.573   3.147
 1832WAT      O 5737   9.673   9.285   5.537
 1832WAT     H1 5738   9.673   9.278   5.437
 1832WAT     H2 5739   9.699   9.196   5.576
 1833WAT      O 5740   2.597   4.975   7.600
 1833WAT     H1 5741   2.535   5.038   7.554
 1833WAT     H2 5742   2.686   5.019   7.613
 1834WAT      O 5743   7.691   0.313   4.737
 1834WAT     H1 5744   7.772   0.321   4.796
 1834WAT     H2 5745   7.609   0.311   4.793
 1835WAT      O 5746   0.886   0.723   3.930
 1835WAT     H1 5747   0.798   0.676   3.942
 1835WAT     H2 5748   0.920   0.753   4.019
 1836WAT      O 5749   1.273   8.211   9.729
 1836WAT     H1 5750   1.187   8.236   9.683
 1836WAT     H2 5751   1.350   8.240   9.672
 1837WAT      O 5752   1.146   0.486   1.996
 1837WAT     H1 5753   1.125   0.568   1.942
 1837WAT     H2 5754   1.179   0.513   2.086
 1838WAT      O 5755   7.553   8.814   0.708
 1838WAT     H1 5756   7.560   8.758   0.626
 1838WAT     H2 5757   7.637   8.806   0.761
 1839WAT      O 5758   2.902   5.383   8.506
 1839WAT     H1 5759   2.827   5.440   8.541
 1839WAT     H2 5760   2.971   5.371   8.577
 1840WAT      O 5761   7.826   5.468   1.962
 1840WAT     H1 5762   7.768   5.517   2.027
 1840WAT     H2 5763   7.903   5.427   2.011
 1841WAT      O 5764   2.290   7.406   0.432
 1841WAT     H1 5765   2.296   7.331   0.498
 1841WAT     H2 5766   2.332   7.488   0.471
 1842WAT      O 5767   6.735   9.059   8.588
 1842WAT     H1 5768   6.771   9.035   8.678
 1842WAT     H2 5769   6.713   8.976   8.537
 1843WAT      O 5770   6.063   4.115   3.905
 1843WAT     H1 5771   6.030   4.089   3.814
 1843WAT     H2 5772   6.162   4.099   3.911
 1844WAT      O 5773   6.491   5.956   6.515
 1844WAT     H1 5774   6.508   5.892   6.590
 1844WAT     H2 5775   6.438   5.911   6.443
 1845WAT      O 5776   2.147   6.102   6.056
 1845WAT     H1 5777   2.198   6.079   6.139
 1845WAT     H2 5778   2.096   6.021   6.024
 1846WAT      O 5779   6.024   9.724   6.572
 1846WAT     H1 5780   6.103   9.673   6.606
 1846WAT     H2 5781   5.947   9.710   6.635
 1847WAT      O 5782   3.063   1.245   8.816
 1847WAT     H1 5783   3.124   1.289   8.881
 1847WAT     H2 5784   3.036   1.155   8.851
 1848WAT      O 5785   5.749   9.293   9.430
 1848WAT     H1 5786   5.749   9.242   9.344
 1848WAT     H2 5787   5.766   9.390   9.411
 1849WAT      O 5788   0.748   6.717   0.508
 1849WAT     H1 5789   0.713   6.810   0.514
 1849WAT     H2 5790   0.798   6.706   0.422
 1850WAT      O 5791   9.392   5.131   2.091
 1850WAT     H1 5792   9.379   5.046   2.040
 1850WAT     H2 5793   9.489   5.156   2.092
 1851WAT      O 5794   4.456   9.447   4.855
 1851WAT     H1 5795   4.376   9.427   4.798
 1851WAT     H2 5796   4.443   9.409   4.946
 1852WAT      O 5797   6.945   6.427   6.313
 1852WAT     H1 5798   6.892   6.496   6.264
 1852WAT     H2 5799   7.041   6.435   6.286
 1853WAT      O 5800   5.607   0.043   8.593
 1853WAT     H1 5801   5.645   0.108   8.528
 1853WAT     H2 5802   5.531   0.085   8.642
 1854WAT      O 5803   1.098   9.639   5.116
 1854WAT     H1 5804   1.094   9.647   5.215
 1854WAT     H2 5805   1.131   9.724   5.077
 1855WAT      O 5806   6.528   3.787   6.799
 1855WAT     H1 5807   6.533   3.756   6.894
 1855WAT     H2 5808   6.604   3.850   6.781
 1856WAT      O 5809   9.329   2.661   0.825
 1856WAT     H1 5810   9.361   2.650   0.919
 1856WAT     H2 5811   9.386   2.728   0.778
 1857WAT      O 5812   8.506   1.999   9.545
 1857WAT     H1 5813   8.557   1.931   9.598
 1857WAT     H2 5814   8.525   1.987   9.448
 1858WAT      O 5815   6.328   4.684   2.949
 1858WAT     H1 5816   6.327   4.748   2.873
 1858WAT     H2 5817   6.401   4.709   3.013
 1859WAT      O 5818   9.265   8.296   3.241
 1859WAT     H1 5819   9.293   8.257   3.329
 1859WAT     H2 5820   9.313   8.250   3.167
 1860WAT      O 5821   1.105   0.974   2.439
 1860WAT     H1 5822   1.084   1.059   2.488
 1860WAT     H2 5823   1.088   0.987   2.341
 1861WAT      O 5824   8.079   0.485   8.590
 1861WAT     H1 5825   8.134   0.482   8.506
 1861WAT     H2 5826   8.138   0.470   8.669
 1862WAT      O 5827   1.767   4.342   6.461
 1862WAT     H1 5828   1.676   4.305   6.445
 1862WAT     H2 5829   1.765   4.404   6.540
 1863WAT      O 5830   9.716   4.775   9.755
 1863WAT     H1 5831   9.739   4.806   9.847
 1863WAT     H2 5832   9.735   4.677   9.746
 1864WAT      O 5833   5.469   8.712   3.578
 1864WAT     H1 5834   5.431   8.622   3.555
 1864WAT     H2 5835   5.410   8.756   3.646
 1865WAT      O 5836   7.891   0.214   4.446
 1865WAT     H1 5837   7.857   0.297   4.402
 1865WAT     H2 5838   7.933   0.154   4.378
 1866WAT      O 5839   3.022   7.338   5.273
 1866WAT     H1 5840   3.051   7.271   5.205
 1866WAT     H2 5841   3.049   7.307   5.364
 1867WAT      O 5842   7.398   2.412   1.168
 1867WAT     H1 5843   7.482   2.390   1.218
 1867WAT     H2 5844   7.373   2.507   1.187
 1868WAT      O 5845   7.506   3.081   4.865
 1868WAT     H1 5846   7.453   3.025   4.929
 1868WAT     H2 5847   7.450   3.100   4.783
 1869WAT      O 5848   1.504   0.911   2.297
 1869WAT     H1 5849   1.459   1.000   2.302
 1869WAT     H2 5850   1.599   0.923   2.268
 1870WAT      O 5851   3.412   4.886   7.486
 1870WAT     H1 5852   3.347   4.938   7.542
 1870WAT     H2 5853   3.505   4.901   7.519
 1871WAT      O 5854   1.617   7.762   1.370
 1871WAT     H1 5855   1.709   7.783   1.335
 1871WAT     H2 5856   1.611   7.664   1.390
 1872WAT      O 5857   1.022   0.356   1.289
 1872WAT     H1 5858   0.963   0.408   1.227
 1872WAT     H2 5859   1.103   0.326   1.240
 1873WAT      O 5860   2.492   6.183   6.960
 1873WAT     H1 5861   2.514   6.091   6.991
 1873WAT     H2 5862   2.423   6.224   7.021
 1874WAT      O 5863   1.367   1.585   2.449
 1874WAT     H1 5864   1.357   1.540   2.360
 1874WAT     H2 5865   1.462   1.578   2.479
 1875WAT      O 5866   4.263   8.145   3.896
 1875WAT     H1 5867   4.359   8.153   3.920
 1875WAT     H2 5868   4.236   8.221   3.837
 1876WAT      O 5869   7.906   6.652   4.036
 1876WAT     H1 5870   7.843   6.721   4.069
 1876WAT     H2 5871   7.912   6.578   4.103
 1877WAT      O 5872   7.595   5.585   0.144
 1877WAT     H1 5873   7.677   5.543   0.104
 1877WAT     H2 5874   7.568   5.534   0.225
 1878WAT      O 5875   5.560   4.624   7.991
 1878WAT     H1 5876   5.523   4.599   8.080
 1878WAT     H2 5877   5.650   4.583   7.979
 1879WAT      O 5878   8.978   2.362   8.984
 1879WAT     H1 5879   8.926   2.342   8.901
 1879WAT     H2 5880   8.944   2.447   9.024
 1880WAT      O 5881   5.693   2.073   9.789
 1880WAT     H1 5882   5.621   2.014   9.827
 1880WAT     H2 5883   5.737   2.124   9.863
 1881WAT      O 5884   0.153   6.048   9.305
 1881WAT     H1 5885   0.252   6.046   9.322
 1881WAT     H2 5886   0.134   6.101   9.222
 1882WAT      O 5887   0.826   3.421   2.082
 1882WAT     H1 5888   0.848   3.347   2.145
 1882WAT     H2 5889   0.795   3.501   2.134
 1883WAT      O 5890   2.111   8.224   0.112
 1883WAT     H1 5891   2.072   8.282   0.184
 1883WAT     H2 5892   2.210   8.227   0.117
 1884WAT      O 5893   1.867   2.655   0.641
 1884WAT     H1 5894   1.797   2.727   0.634
 1884WAT     H2 5895   1.827   2.567   0.615
 1885WAT      O 5896   1.441   8.939   7.585
 1885WAT     H1 5897   1.511   8.874   7.554
 1885WAT     H2 5898   1.385   8.896   7.656
 1886WAT      O 5899   6.996   5.005   1.697
 1886WAT     H1 5900   6.969   4.993   1.792
 1886WAT     H2 5901   7.054   5.087   1.689
 1887WAT      O 5902   3.502   7.636   4.729
 1887WAT     H1 5903   3.543   7.726   4.721
 1887WAT     H2 5904   3.571   7.570   4.759
 1888WAT      O 5905   9.812   1.322   2.237
 1888WAT     H1 5906   9.896   1.270   2.255
 1888WAT     H2 5907   9.835   1.407   2.189
 1889WAT      O 5908   5.857   4.947   6.360
 1889WAT     H1 5909   5.848   5.046   6.372
 1889WAT     H2 5910   5.885   4.927   6.266
 1890WAT      O 5911   8.129   4.636   4.016
 1890WAT     H1 5912   8.073   4.653   3.935
 1890WAT     H2 5913   8.162   4.722   4.053
 1891WAT      O 5914   9.480   7.079   2.185
 1891WAT     H1 5915   9.385   7.106   2.171
 1891WAT     H2 5916   9.536   7.161   2.200
 1892WAT      O 5917   7.297   0.309   8.629
 1892WAT     H1 5918   7.242   0.371   8.573
 1892WAT     H2 5919   7.261   0.216   8.621
 1893WAT      O 5920   3.230   0.982   4.284
 1893WAT     H1 5921   3.283   0.897   4.280
 1893WAT     H2 5922   3.222   1.021   4.192
 1894WAT      O 5923   1.287   4.064   8.431
 1894WAT     H1 5924   1.252   3.973   8.409
 1894WAT     H2 5925   1.308   4.069   8.528
 1895WAT      O 5926   0.333   4.807   5.923
 1895WAT     H1 5927   0.284   4.736   5.973
 1895WAT     H2 5928   0.354   4.883   5.984
 1896WAT      O 5929   0.166   1.958   2.745
 1896WAT     H1 5930   0.244   1.998   2.793
 1896WAT     H2 5931   0.191   1.870   2.706
 1897WAT      O 5932   6.412   7.228   4.087
 1897WAT     H1 5933   6.314   7.212   4.077
 1897WAT     H2 5934   6.440   7.209   4.181
 1898WAT      O 5935   0.627   4.948   4.938
 1898WAT     H1 5936   0.649   4.853   4.960
 1898WAT     H2 5937   0.579   4.951   4.850
 1899WAT      O 5938   9.884   4.204   8.429
 1899WAT     H1 5939   9.932   4.128   8.473
 1899WAT     H2 5940   9.827   4.251   8.497
 1900WAT      O 5941   1.174   5.652   9.705
 1900WAT     H1 5942   1.200   5.722   9.639
 1900WAT     H2 5943   1.138   5.572   9.655
 1901WAT      O 5944   2.810   2.251   1.270
 1901WAT     H1 5945   2.877   2.316   1.235
 1901WAT     H2 5946   2.722   2.266   1.223
 1902WAT      O 5947   3.514   1.238   6.358
 1902WAT     H1 5948   3.548   1.329   6.383
 1902WAT     H2 5949   3.592   1.178   6.339
 1903WAT      O 5950   4.596   6.592   5.598
 1903WAT     H1 5951   4.649   6.548   5.671
 1903WAT     H2 5952   4.500   6.563   5.604
 1904WAT      O 5953   4.068   2.034   1.398
 1904WAT     H1 5954   4.139   1.964   1.412
 1904WAT     H2 5955   4.030   2.061   1.486
 1905WAT      O 5956   9.159   6.433   0.088
 1905WAT     H1 5957   9.082   6.482   0.049
 1905WAT     H2 5958   9.242   6.488   0.079
 1906WAT      O 5959   0.467   8.508   6.218
 1906WAT     H1 5960   0.466   8.412   6.189
 1906WAT     H2 5961   0.437   8.513   6.314
 1907WAT      O 5962   5.262   1.481   0.930
 1907WAT     H1 5963   5.185   1.503   0.870
 1907WAT     H2 5964   5.237   1.404   0.988
 1908WAT      O 5965   8.893   8.732   2.693
 1908WAT     H1 5966   8.972   8.721   2.753
 1908WAT     H2 5967   8.831   8.654   2.704
 1909WAT      O 5968   2.218   4.220   6.381
 1909WAT     H1 5969   2.126   4.183   6.393
 1909WAT     H2 5970   2.221   4.277   6.300
 1910WAT      O 5971   2.422   8.218   7.312
 1910WAT     H1 5972   2.380   8.168   7.236
 1910WAT     H2 5973   2.413   8.164   7.396
 1911WAT      O 5974   9.685   3.864   6.946
 1911WAT     H1 5975   9.678   3.765   6.949
 1911WAT     H2 5976   9.687   3.901   7.039
 1912WAT      O 5977   2.596   9.540   3.716
 1912WAT     H1 5978   2.586   9.583   3.806
 1912WAT     H2 5979   2.581   9.609   3.645
 1913WAT      O 5980   8.088   8.074   7.230
 1913WAT     H1 5981   8.130   8.029   7.308
 1913WAT     H2 5982   8.078   8.009   7.154
 1914WAT      O 5983   2.624   7.693   1.091
 1914WAT     H1 5984   2.656   7.695   1.185
 1914WAT     H2 5985   2.631   7.600   1.055
 1915WAT      O 5986   0.139   5.671   5.181
 1915WAT     H1 5987   0.113   5.618   5.262
 1915WAT     H2 5988   0.201   5.615   5.124
 1916WAT      O 5989   1.307   1.537   1.950
 1916WAT     H1 5990   1.330   1.634   1.934
 1916WAT     H2 5991   1.386   1.481   1.925
 1917WAT      O 5992   6.440   9.392   8.180
 1917WAT     H1 5993   6.426   9.313   8.120
 1917WAT     H2 5994   6.362   9.401   8.242
 1918WAT      O 5995   6.950   6.640   7.338
 1918WAT     H1 5996   7.002   6.558   7.361
 1918WAT     H2 5997   6.852   6.621   7.344
 1919WAT      O 5998   4.331   5.637   9.232
 1919WAT     H1 5999   4.393   5.578   9.180
 1919WAT     H2 6000   4.308   5.718   9.178
 1920WAT      O 6001   5.755   1.747   2.208
 1920WAT     H1 6002   5.715   1.826   2.161
 1920WAT     H2 6003   5.818   1.700   2.146
 1921WAT      O 6004   7.853   8.497   2.957
 1921WAT     H1 6005   7.772   8.453   2.994
 1921WAT     H2 6006   7.828   8.554   2.879
 1922WAT      O 6007   0.153   7.340   9.113
 1922WAT     H1 6008   0.093   7.419   9.126
 1922WAT     H2 6009   0.206   7.351   9.029
 1923WAT      O 6010   3.185   9.839   9.829
 1923WAT     H1 6011   3.284   9.858   9.825
 1923WAT     H2 6012   3.144   9.891   9.904
 1924WAT      O 6013   1.416   6.737   9.202
 1924WAT     H1 6014   1.419   6.750   9.302
 1924WAT     H2 6015   1.445   6.644   9.180
 1925WAT      O 6016   9.798   1.633   5.555
 1925WAT     H1 6017   9.751   1.546   5.574
 1925WAT     H2 6018   9.794   1.691   5.636
 1926WAT      O 6019   4.151   8.980   1.819
 1926WAT     H1 6020   4.157   8.904   1.884
 1926WAT     H2 6021   4.220   9.049   1.841
 1927WAT      O 6022   8.572   9.791   7.870
 1927WAT     H1 6023   8.524   9.744   7.944
 1927WAT     H2 6024   8.657   9.742   7.849
 1928WAT      O 6025   6.507   9.219   4.432
 1928WAT     H1 6026   6.418   9.261   4.414
 1928WAT     H2 6027   6.542   9.252   4.520
 1929WAT      O 6028   3.069   8.678   7.503
 1929WAT     H1 6029   3.098   8.642   7.591
 1929WAT     H2 6030   3.021   8.607   7.452
 1930WAT      O 6031   4.241   8.293   9.274
 1930WAT     H1 6032   4.216   8.304   9.370
 1930WAT     H2 6033   4.263   8.382   9.235
 1931WAT      O 6034   9.832   3.281   5.485
 1931WAT     H1 6035   9.856   3.334   5.404
 1931WAT     H2 6036   9.850   3.336   5.567
 1932WAT      O 6037   6.158   4.247   0.067
 1932WAT     H1 6038   6.227   4.177   0.086
 1932WAT     H2 6039   6.077   4.229   0.123
 1933WAT      O 6040   5.360   0.074   6.596
 1933WAT     H1 6041   5.394   0.017   6.521
 1933WAT     H2 6042   5.296   0.142   6.559
 1934WAT      O 6043   0.238   1.612   1.409
 1934WAT     H1 6044   0.274   1.690   1.359
 1934WAT     H2 6045   0.205   1.641   1.499
 1935WAT      O 6046   4.097   2.542   2.058
 1935WAT     H1 6047   4.179   2.487   2.076
 1935WAT     H2 6048   4.068   2.527   1.964
 1936WAT      O 6049   8.914   8.377   2.776
 1936WAT     H1 6050   8.990   8.426   2.818
 1936WAT     H2 6051   8.943   8.284   2.751
 1937WAT      O 6052   4.149   7.990   8.470
 1937WAT     H1 6053   4.165   7.924   8.396
 1937WAT     H2 6054   4.075   7.957   8.529
 1938WAT      O 6055   8.086   6.728   5.668
 1938WAT     H1 6056   7.996   6.707   5.629
 1938WAT     H2 6057   8.074   6.791   5.745
 1939WAT      O 6058   2.678   5.891   7.662
 1939WAT     H1 6059   2.744   5.818   7.681
 1939WAT     H2 6060   2.650   5.934   7.748
 1940WAT      O 6061   1.994   8.785   8.937
 1940WAT     H1 6062   1.923   8.844   8.977
 1940WAT     H2 6063   1.952   8.702   8.901
 1941WAT      O 6064   4.347   4.570   0.893
 1941WAT     H1 6065   4.275   4.622   0.940
 1941WAT     H2 6066   4.341   4.587   0.794
 1942WAT      O 6067   2.122   8.025   1.401
 1942WAT     H1 6068   2.056   7.991   1.468
 1942WAT     H2 6069   2.108   7.979   1.314
 1943WAT      O 6070   6.891   5.958   5.754
 1943WAT     H1 6071   6.868   5.920   5.664
 1943WAT     H2 6072   6.870   6.056   5.756
 1944WAT      O 6073   6.941   0.272   0.788
 1944WAT     H1 6074   6.984   0.356   0.753
 1944WAT     H2 6075   7.008   0.198   0.789
 1945WAT      O 6076   1.410   4.839   0.941
 1945WAT     H1 6077   1.380   4.751   0.904
 1945WAT     H2 6078   1.490   4.826   0.998
 1946WAT      O 6079   0.874   7.179   6.542
 1946WAT     H1 6080   0.892   7.086   6.512
 1946WAT     H2 6081   0.955   7.236   6.523
 1947WAT      O 6082   0.276   1.062   5.580
 1947WAT     H1 6083   0.335   1.058   5.661
 1947WAT     H2 6084   0.301   1.142   5.524
 1948WAT      O 6085   1.479   7.362   3.147
 1948WAT     H1 6086   1.515   7.451   3.174
 1948WAT     H2 6087   1.486   7.298   3.223
 1949WAT      O 6088   6.596   1.947   4.303
 1949WAT     H1 6089   6.599   2.018   4.232
 1949WAT     H2 6090   6.501   1.930   4.329
 1950WAT      O 6091   7.742   9.222   4.637
 1950WAT     H1 6092   7.815   9.271   4.685
 1950WAT     H2 6093   7.668   9.201   4.701
 1951WAT      O 6094   2.822   1.353   9.547
 1951WAT     H1 6095   2.816   1.402   9.460
 1951WAT     H2 6096   2.731   1.325   9.576
 1952WAT      O 6097   6.794   1.553   6.530
 1952WAT     H1 6098   6.734   1.529   6.454
 1952WAT     H2 6099   6.882   1.585   6.494
 1953WAT      O 6100   7.980   4.740   0.511
 1953WAT     H1 6101   7.899   4.794   0.532
 1953WAT     H2 6102   8.062   4.785   0.548
 1954WAT      O 6103   2.530   5.421   2.364
 1954WAT     H1 6104   2.543   5.328   2.398
 1954WAT     H2 6105   2.609   5.448   2.309
 1955WAT      O 6106   6.360   8.805   2.846
 1955WAT     H1 6107   6.396   8.837   2.758
 1955WAT     H2 6108   6.426   8.744   2.890
 1956WAT      O 6109   6.311   9.812   5.853
 1956WAT     H1 6110   6.217   9.782   5.868
 1956WAT     H2 6111   6.340   9.786   5.761
 1957WAT      O 6112   9.296   9.394   1.067
 1957WAT     H1 6113   9.240   9.375   0.986
 1957WAT     H2 6114   9.343   9.310   1.095
 1958WAT      O 6115   8.543   5.170   3.064
 1958WAT     H1 6116   8.489   5.093   3.030
 1958WAT     H2 6117   8.504   5.204   3.149
 1959WAT      O 6118   7.850   8.507   8.814
 1959WAT     H1 6119   7.878   8.485   8.908
 1959WAT     H2 6120   7.849   8.606   8.802
 1960WAT      O 6121   3.914   2.221   5.870
 1960WAT     H1 6122   3.960   2.158   5.932
 1960WAT     H2 6123   3.948   2.208   5.777
 1961WAT      O 6124   6.071   4.737   2.081
 1961WAT     H1 6125   6.038   4.645   2.100
 1961WAT     H2 6126   6.130   4.735   2.000
 1962WAT      O 6127   2.396   2.270   6.374
 1962WAT     H1 6128   2.422   2.367   6.383
 1962WAT     H2 6129   2.332   2.246   6.447
 1963WAT      O 6130   3.835   2.856   0.004
 1963WAT     H1 6131   3.913   2.896   0.053
 1963WAT     H2 6132   3.862   2.836  -0.090
 1964WAT      O 6133   6.966   0.918   0.584
 1964WAT     H1 6134   6.927   0.987   0.522
 1964WAT     H2 6135   6.901   0.844   0.596
 1965WAT      O 6136   3.817   6.257   1.621
 1965WAT     H1 6137   3.840   6.230   1.528
 1965WAT     H2 6138   3.844   6.184   1.685
 1966WAT      O 6139   5.202   9.212   3.604
 1966WAT     H1 6140   5.242   9.208   3.512
 1966WAT     H2 6141   5.250   9.281   3.658
 1967WAT      O 6142   1.576   0.980   2.669
 1967WAT     H1 6143   1.649   0.957   2.605
 1967WAT     H2 6144   1.487   0.966   2.626
 1968WAT      O 6145   8.170   8.498   5.895
 1968WAT     H1 6146   8.105   8.563   5.935
 1968WAT     H2 6147   8.133   8.463   5.809
 1969WAT      O 6148   4.636   0.571   9.352
 1969WAT     H1 6149   4.725   0.593   9.392
 1969WAT     H2 6150   4.639   0.584   9.253
 1970WAT      O 6151   3.004   8.196   0.700
 1970WAT     H1 6152   2.931   8.228   0.761
 1970WAT     H2 6153   3.066   8.136   0.752
 1971WAT      O 6154   8.727   8.041   9.727
 1971WAT     H1 6155   8.664   8.004   9.659
 1971WAT     H2 6156   8.816   8.058   9.684
 1972WAT      O 6157   4.170   4.169   5.156
 1972WAT     H1 6158   4.261   4.141   5.187
 1972WAT     H2 6159   4.179   4.229   5.077
 1973WAT      O 6160   5.955   7.263   1.932
 1973WAT     H1 6161   5.959   7.249   2.032
 1973WAT     H2 6162   5.937   7.176   1.887
 1974WAT      O 6163   1.653   1.662   2.987
 1974WAT     H1 6164   1.635   1.568   2.960
 1974WAT     H2 6165   1.752   1.677   2.992
 1975WAT      O 6166   1.828   5.835   4.529
 1975WAT     H1 6167   1.761   5.862   4.460
 1975WAT     H2 6168   1.817   5.892   4.611
 1976WAT      O 6169   8.009   1.004   2.876
 1976WAT     H1 6170   8.069   0.924   2.873
 1976WAT     H2 6171   8.054   1.078   2.927
 1977WAT      O 6172   6.304   5.104   0.234
 1977WAT     H1 6173   6.330   5.061   0.148
 1977WAT     H2 6174   6.308   5.037   0.308
 1978WAT      O 6175   1.948   3.716   6.723
 1978WAT     H1 6176   1.935   3.627   6.766
 1978WAT     H2 6177   1.870   3.737   6.665
 1979WAT      O 6178   1.987   4.681   4.491
 1979WAT     H1 6179   2.038   4.595   4.488
 1979WAT     H2 6180   1.919   4.678   4.564
 1980WAT      O 6181   8.410   5.760   0.061
 1980WAT     H1 6182   8.494   5.803   0.093
 1980WAT     H2 6183   8.333   5.820   0.079
 1981WAT      O 6184   3.244   4.722   4.907
 1981WAT     H1 6185   3.304   4.757   4.979
 1981WAT     H2 6186   3.213   4.798   4.850
 1982WAT      O 6187   6.611   3.168   9.275
 1982WAT     H1 6188   6.517   3.194   9.298
 1982WAT     H2 6189   6.635   3.207   9.186
 1983WAT      O 6190   3.778   0.194   1.760
 1983WAT     H1 6191   3.726   0.194   1.675
 1983WAT     H2 6192   3.835   0.112   1.764
 1984WAT      O 6193   4.431   5.873   5.836
 1984WAT     H1 6194   4.426   5.972   5.824
 1984WAT     H2 6195   4.361   5.844   5.901
 1985WAT      O 6196   8.016   7.429   3.994
 1985WAT     H1 6197   8.009   7.396   4.089
 1985WAT     H2 6198   8.057   7.520   3.994
 1986WAT      O 6199   9.455   0.294   8.629
 1986WAT     H1 6200   9.391   0.303   8.705
 1986WAT     H2 6201   9.416   0.234   8.559
 1987WAT      O 6202   8.303   2.881   8.290
 1987WAT     H1 6203   8.274   2.790   8.322
 1987WAT     H2 6204   8.222   2.936   8.269
 1988WAT      O 6205   3.794   4.072   6.187
 1988WAT     H1 6206   3.749   4.038   6.104
 1988WAT     H2 6207   3.821   4.167   6.173
 1989WAT      O 6208   4.420   0.810   3.098
 1989WAT     H1 6209   4.358   0.816   3.019
 1989WAT     H2 6210   4.414   0.718   3.137
 1990WAT      O 6211   7.199   3.465   3.609
 1990WAT     H1 6212   7.295   3.481   3.633
 1990WAT     H2 6213   7.194   3.394   3.538
 1991WAT      O 6214   0.038   3.495   3.620
 1991WAT     H1 6215   0.116   3.458   3.569
 1991WAT     H2 6216   0.064   3.583   3.660
 1992WAT      O 6217   3.674   5.386   2.454
 1992WAT     H1 6218   3.746   5.370   2.521
 1992WAT     H2 6219   3.597   5.432   2.497
 1993WAT      O 6220   0.904   6.093   1.126
 1993WAT     H1 6221   0.900   6.174   1.067
 1993WAT     H2 6222   0.932   6.014   1.071
 1994WAT      O 6223   0.560   1.076   7.517
 1994WAT     H1 6224   0.570   1.155   7.456
 1994WAT     H2 6225   0.622   1.003   7.487
 1995WAT      O 6226   2.941   8.499   4.797
 1995WAT     H1 6227   3.023   8.548   4.768
 1995WAT     H2 6228   2.951   8.472   4.893
 1996WAT      O 6229   9.698   1.472   6.100
 1996WAT     H1 6230   9.634   1.398   6.121
 1996WAT     H2 6231   9.731   1.461   6.006
 1997WAT      O 6232   3.840   1.156   3.882
 1997WAT     H1 6233   3.926   1.159   3.833
 1997WAT     H2 6234   3.813   1.249   3.907
 1998WAT      O 6235   0.423   4.427   5.674
 1998WAT     H1 6236   0.329   4.457   5.690
 1998WAT     H2 6237   0.477   4.442   5.757
 1999WAT      O 6238   7.448   4.034   4.363
 1999WAT     H1 6239   7.486   3.951   4.322
 1999WAT     H2 6240   7.482   4.043   4.457
 2000WAT      O 6241   0.660   6.519   2.723
 2000WAT     H1 6242   0.718   6.439   2.705
 2000WAT     H2 6243   0.717   6.596   2.752
 2001WAT      O 6244   8.971   1.976   8.639
 2001WAT     H1 6245   8.983   1.908   8.711
 2001WAT     H2 6246   8.879   2.015   8.645
 2002WAT      O 6247   8.990   2.513   3.291
 2002WAT     H1 6248   8.960   2.439   3.231
 2002WAT     H2 6249   9.033   2.476   3.373
 2003WAT      O 6250   1.924   7.561   2.093
 2003WAT     H1 6251   1.919   7.522   2.185
 2003WAT     H2 6252   1.860   7.636   2.085
 2004WAT      O 6253   4.303   0.152   2.928
 2004WAT     H1 6254   4.226   0.190   2.877
 2004WAT     H2 6255   4.354   0.225   2.972
 2005WAT      O 6256   2.977   2.448   9.818
 2005WAT     H1 6257   2.985   2.411   9.725
 2005WAT     H2 6258   2.931   2.381   9.876
 2006WAT      O 6259   2.944   4.578   3.945
 2006WAT     H1 6260   2.878   4.542   3.879
 2006WAT     H2 6261   2.900   4.586   4.035
 2007WAT      O 6262   1.754   2.966   5.334
 2007WAT     H1 6263   1.719   2.872   5.336
 2007WAT     H2 6264   1.679   3.030   5.347
 2008WAT      O 6265   3.759   0.889   6.463
 2008WAT     H1 6266   3.745   0.932   6.374
 2008WAT     H2 6267   3.707   0.804   6.467
 2009WAT      O 6268   0.236   5.863   8.958
 2009WAT     H1 6269   0.188   5.942   8.995
 2009WAT     H2 6270   0.334   5.873   8.976
 2010WAT      O 6271   4.310   2.041   3.931
 2010WAT     H1 6272   4.392   2.003   3.975
 2010WAT     H2 6273   4.286   1.986   3.851
 2011WAT      O 6274   6.004   5.444   6.562
 2011WAT     H1 6275   5.913   5.436   6.521
 2011WAT     H2 6276   6.003   5.515   6.632
 2012WAT      O 6277   8.033   3.223   6.286
 2012WAT     H1 6278   8.117   3.242   6.235
 2012WAT     H2 6279   7.956   3.267   6.241
 2013WAT      O 6280   6.447   9.612   2.643
 2013WAT     H1 6281   6.536   9.650   2.667
 2013WAT     H2 6282   6.445   9.587   2.546
 2014WAT      O 6283   2.582   9.802   3.520
 2014WAT     H1 6284   2.559   9.842   3.431
 2014WAT     H2 6285   2.528   9.846   3.592
 2015WAT      O 6286   1.946   3.131   1.677
 2015WAT     H1 6287   2.020   3.109   1.740
 2015WAT     H2 6288   1.956   3.225   1.645
 2016WAT      O 6289   0.140   5.845   4.468
 2016WAT     H1 6290   0.140   5.816   4.372
 2016WAT     H2 6291   0.051   5.825   4.508
 2017WAT      O 6292   0.736   2.506   2.177
 2017WAT     H1 6293   0.758   2.501   2.080
 2017WAT     H2 6294   0.637   2.495   2.189
 2018WAT      O 6295   0.187   8.039   6.140
 2018WAT     H1 6296   0.117   7.971   6.160
 2018WAT     H2 6297   0.233   8.016   6.054
 2019WAT      O 6298   0.305   0.419   1.815
 2019WAT     H1 6299   0.328   0.424   1.912
 2019WAT     H2 6300   0.261   0.332   1.795
 2020WAT      O 6301   7.816   3.852   6.014
 2020WAT     H1 6302   7.901   3.804   5.992
 2020WAT     H2 6303   7.795   3.841   6.111
 2021WAT      O 6304   5.294   5.921   4.638
 2021WAT     H1 6305   5.208   5.948   4.595
 2021WAT     H2 6306   5.307   5.823   4.626
 2022WAT      O 6307   3.088   5.506   3.149
 2022WAT     H1 6308   3.141   5.582   3.185
 2022WAT     H2 6309   2.992   5.533   3.142
 2023WAT      O 6310   3.223   6.654   3.272
 2023WAT     H1 6311   3.293   6.616   3.211
 2023WAT     H2 6312   3.240   6.624   3.366
 2024WAT      O 6313   7.911   4.074   8.750
 2024WAT     H1 6314   7.826   4.025   8.773
 2024WAT     H2 6315   7.904   4.168   8.782
 2025WAT      O 6316   4.908   3.884   6.185
 2025WAT     H1 6317   4.915   3.795   6.139
 2025WAT     H2 6318   4.860   3.948   6.126
 2026WAT      O 6319   0.957   0.001   9.137
 2026WAT     H1 6320   0.934   0.098   9.147
 2026WAT     H2 6321   1.054  -0.012   9.153
 2027WAT      O 6322   1.477   1.332   7.060
 2027WAT     H1 6323   1.378   1.331   7.045
 2027WAT     H2 6324   1.514   1.422   7.037
 2028WAT      O 6325   1.358   7.378   4.239
 2028WAT     H1 6326   1.284   7.408   4.300
 2028WAT     H2 6327   1.344   7.417   4.148
 2029WAT      O 6328   1.440   9.729   7.474
 2029WAT     H1 6329   1.377   9.676   7.418
 2029WAT     H2 6330   1.388   9.793   7.531
 2030WAT      O 6331   8.810   5.410   9.568
 2030WAT     H1 6332   8.854   5.368   9.489
 2030WAT     H2 6333   8.711   5.406   9.557
 2031WAT      O 6334   2.804   7.388   1.943
 2031WAT     H1 6335   2.902   7.365   1.942
 2031WAT     H2 6336   2.750   7.304   1.945
 2032WAT      O 6337   6.905   0.640   0.966
 2032WAT     H1 6338   6.833   0.634   0.898
 2032WAT     H2 6339   6.877   0.592   1.049
 2033WAT      O 6340   8.692   5.966   0.792
 2033WAT     H1 6341   8.653   5.892   0.737
 2033WAT     H2 6342   8.618   6.020   0.833
 2034WAT      O 6343   7.814   6.264   9.065
 2034WAT     H1 6344   7.779   6.299   9.152
 2034WAT     H2 6345   7.737   6.254   9.001
 2035WAT      O 6346   9.769   5.206   7.951
 2035WAT     H1 6347   9.816   5.294   7.953
 2035WAT     H2 6348   9.751   5.180   7.856
 2036WAT      O 6349   3.411   9.515   8.838
 2036WAT     H1 6350   3.478   9.447   8.869
 2036WAT     H2 6351   3.319   9.483   8.859
 2037WAT      O 6352   5.829   4.466   6.887
 2037WAT     H1 6353   5.830   4.372   6.851
 2037WAT     H2 6354   5.888   4.524   6.832
 2038WAT      O 6355   6.919   6.806   3.344
 2038WAT     H1 6356   7.016   6.813   3.369
 2038WAT     H2 6357   6.885   6.896   3.317
 2039WAT      O 6358   9.296   1.753   2.682
 2039WAT     H1 6359   9.377   1.791   2.726
 2039WAT     H2 6360   9.219   1.752   2.746
 2040WAT      O 6361   9.528   0.072   2.046
 2040WAT     H1 6362   9.542  -0.002   1.980
 2040WAT     H2 6363   9.565   0.046   2.135
 2041WAT      O 6364   6.667   9.100   5.878
 2041WAT     H1 6365   6.582   9.151   5.866
 2041WAT     H2 6366   6.729   9.152   5.937
 2042WAT      O 6367   2.550   3.423   7.237
 2042WAT     H1 6368   2.562   3.401   7.334
 2042WAT     H2 6369   2.492   3.504   7.228
 2043WAT      O 6370   8.079   3.760   5.968
 2043WAT     H1 6371   8.091   3.705   6.050
 2043WAT     H2 6372   8.133   3.722   5.893
 2044WAT      O 6373   0.626   0.784   0.332
 2044WAT     H1 6374   0.628   0.855   0.402
 2044WAT     H2 6375   0.703   0.722   0.345
 2045WAT      O 6376   8.961   3.251   4.161
 2045WAT     H1 6377   8.892   3.184   4.137
 2045WAT     H2 6378   8.921   3.321   4.221
 2046WAT      O 6379   0.260   0.557   4.228
 2046WAT     H1 6380   0.264   0.657   4.231
 2046WAT     H2 6381   0.248   0.526   4.134
 2047WAT      O 6382   4.622   8.539   7.146
 2047WAT     H1 6383   4.565   8.607   7.101
 2047WAT     H2 6384   4.710   8.533   7.099
 2048WAT      O 6385   0.803   3.814   5.462
 2048WAT     H1 6386   0.778   3.742   5.398
 2048WAT     H2 6387   0.847   3.889   5.412
 2049WAT      O 6388   7.585   5.102   6.783
 2049WAT     H1 6389   7.588   5.021   6.725
 2049WAT     H2 6390   7.496   5.147   6.771
 2050WAT      O 6391   1.913   4.382   0.303
 2050WAT     H1 6392   1.842   4.393   0.373
 2050WAT     H2 6393   1.970   4.304   0.325
 2051WAT      O 6394   0.343   9.720   1.268
 2051WAT     H1 6395   0.410   9.754   1.333
 2051WAT     H2 6396   0.317   9.626   1.293
 2052WAT      O 6397   3.287   9.557   5.503
 2052WAT     H1 6398   3.276   9.488   5.431
 2052WAT     H2 6399   3.381   9.555   5.537
 2053WAT      O 6400   4.300   8.712   7.246
 2053WAT     H1 6401   4.226   8.778   7.237
 2053WAT     H2 6402   4.339   8.693   7.155
 2054WAT      O 6403   1.576   1.883   2.818
 2054WAT     H1 6404   1.488   1.928   2.830
 2054WAT     H2 6405   1.584   1.808   2.883
 2055WAT      O 6406   7.834   8.463   9.314
 2055WAT     H1 6407   7.911   8.478   9.376
 2055WAT     H2 6408   7.768   8.402   9.357
 2056WAT      O 6409   6.173   7.577   5.097
 2056WAT     H1 6410   6.273   7.581   5.095
 2056WAT     H2 6411   6.141   7.508   5.033
 2057WAT      O 6412   1.490   4.064   7.560
 2057WAT     H1 6413   1.433   4.062   7.478
 2057WAT     H2 6414   1.490   4.157   7.597
 2058WAT      O 6415   0.654   1.246   7.328
 2058WAT     H1 6416   0.631   1.340   7.353
 2058WAT     H2 6417   0.702   1.245   7.240
 2059WAT      O 6418   1.949   6.449   0.897
 2059WAT     H1 6419   1.869   6.466   0.955
 2059WAT     H2 6420   2.030   6.489   0.940
 2060WAT      O 6421   3.289   2.635   8.246
 2060WAT     H1 6422   3.317   2.552   8.198
 2060WAT     H2 6423   3.216   2.681   8.195
 2061WAT      O 6424   1.178   1.285   9.347
 2061WAT     H1 6425   1.164   1.373   9.302
 2061WAT     H2 6426   1.220   1.221   9.282
 2062WAT      O 6427   6.918   1.509   1.680
 2062WAT     H1 6428   6.987   1.453   1.635
 2062WAT     H2 6429   6.829   1.492   1.638
 2063WAT      O 6430   9.037   8.296   5.262
 2063WAT     H1 6431   9.074   8.277   5.353
 2063WAT     H2 6432   9.065   8.225   5.198
 2064WAT      O 6433   3.978   0.303   7.801
 2064WAT     H1 6434   4.026   0.364   7.864
 2064WAT     H2 6435   3.966   0.214   7.845
 2065WAT      O 6436   9.827   8.844   8.468
 2065WAT     H1 6437   9.823   8.856   8.567
 2065WAT     H2 6438   9.922   8.849   8.437
 2066WAT      O 6439   8.227   7.026   2.465
 2066WAT     H1 6440   8.291   7.042   2.390
 2066WAT     H2 6441   8.133   7.038   2.432
 2067WAT      O 6442   8.352   8.869   3.800
 2067WAT     H1 6443   8.338   8.929   3.721
 2067WAT     H2 6444   8.334   8.775   3.774
 2068WAT      O 6445   6.267   1.283   9.671
 2068WAT     H1 6446   6.295   1.307   9.578
 2068WAT     H2 6447   6.170   1.305   9.683
 2069WAT      O 6448   6.268   4.337   6.002
 2069WAT     H1 6449   6.323   4.289   5.933
 2069WAT     H2 6450   6.246   4.274   6.077
 2070WAT      O 6451   3.971   6.412   1.848
 2070WAT     H1 6452   3.906   6.350   1.890
 2070WAT     H2 6453   3.996   6.378   1.757
 2071WAT      O 6454   6.089   8.437   4.378
 2071WAT     H1 6455   6.022   8.429   4.304
 2071WAT     H2 6456   6.054   8.499   4.448
 2072WAT      O 6457   7.537   5.977   2.453
 2072WAT     H1 6458   7.441   5.988   2.430
 2072WAT     H2 6459   7.558   5.880   2.465
 2073WAT      O 6460   9.575   5.192   6.215
 2073WAT     H1 6461   9.640   5.267   6.210
 2073WAT     H2 6462   9.624   5.105   6.208
 2074WAT      O 6463   7.556   3.757   4.231
 2074WAT     H1 6464   7.459   3.732   4.222
 2074WAT     H2 6465   7.579   3.826   4.163
 2075WAT      O 6466   0.064   8.595   7.160
 2075WAT     H1 6467  -0.002   8.532   7.120
 2075WAT     H2 6468   0.150   8.548   7.177
 2076WAT      O 6469   0.982   9.244   2.995
 2076WAT     H1 6470   0.894   9.263   3.039
 2076WAT     H2 6471   1.032   9.329   2.982
 2077WAT      O 6472   4.615   8.460   6.749
 2077WAT     H1 6473   4.694   8.465   6.810
 2077WAT     H2 6474   4.564   8.545   6.752
 2078WAT      O 6475   2.528   7.685   9.018
 2078WAT     H1 6476   2.500   7.774   9.055
 2078WAT     H2 6477   2.448   7.626   9.008
 2079WAT      O 6478   0.505   0.546   0.186
 2079WAT     H1 6479   0.600   0.571   0.173
 2079WAT     H2 6480   0.482   0.468   0.127
 2080WAT      O 6481   4.080   0.328   7.342
 2080WAT     H1 6482   4.053   0.254   7.281
 2080WAT     H2 6483   4.095   0.293   7.434
 2081WAT      O 6484   2.715   5.970   6.104
 2081WAT     H1 6485   2.705   6.069   6.090
 2081WAT     H2 6486   2.809   5.949   6.128
 2082WAT      O 6487   4.630   6.544   3.602
 2082WAT     H1 6488   4.538   6.520   3.631
 2082WAT     H2 6489   4.668   6.613   3.664
 2083WAT      O 6490   6.721   3.183   7.804
 2083WAT     H1 6491   6.753   3.129   7.881
 2083WAT     H2 6492   6.682   3.270   7.837
 2084WAT      O 6493   3.660   7.561   6.542
 2084WAT     H1 6494   3.611   7.531   6.624
 2084WAT     H2 6495   3.609   7.636   6.499
 2085WAT      O 6496   6.350   9.335   8.787
 2085WAT     H1 6497   6.429   9.295   8.742
 2085WAT     H2 6498   6.323   9.276   8.864
 2086WAT      O 6499   9.813   9.672   3.943
 2086WAT     H1 6500   9.842   9.618   4.022
 2086WAT     H2 6501   9.772   9.758   3.974
 2087WAT      O 6502   1.821   9.566   8.299
 2087WAT     H1 6503   1.813   9.483   8.355
 2087WAT     H2 6504   1.917   9.580   8.274
 2088WAT      O 6505   9.753   1.279   9.803
 2088WAT     H1 6506   9.789   1.355   9.857
 2088WAT     H2 6507   9.810   1.267   9.722
 2089WAT      O 6508   1.950   4.125   6.450
 2089WAT     H1 6509   1.888   4.203   6.456
 2089WAT     H2 6510   1.934   4.075   6.365
 2090WAT      O 6511   5.392   4.726   2.474
 2090WAT     H1 6512   5.427   4.651   2.531
 2090WAT     H2 6513   5.294   4.714   2.460
 2091WAT      O 6514   8.868   0.914   3.047
 2091WAT     H1 6515   8.868   1.014   3.053
 2091WAT     H2 6516   8.803   0.877   3.113
 2092WAT      O 6517   8.042   5.243   5.314
 2092WAT     H1 6518   8.136   5.277   5.320
 2092WAT     H2 6519   8.043   5.143   5.305
 2093WAT      O 6520   1.580   4.998   6.046
 2093WAT     H1 6521   1.493   5.046   6.034
 2093WAT     H2 6522   1.579   4.913   5.993
 2094WAT      O 6523   7.541   3.572   3.753
 2094WAT     H1 6524   7.526   3.643   3.685
 2094WAT     H2 6525   7.633   3.534   3.742
 2095WAT      O 6526   9.846   5.057   5.347
 2095WAT     H1 6527   9.842   5.004   5.263
 2095WAT     H2 6528   9.831   5.154   5.327
 2096WAT      O 6529   5.109   0.614   6.374
 2096WAT     H1 6530   5.191   0.560   6.391
 2096WAT     H2 6531   5.103   0.687   6.443
 2097WAT      O 6532   5.045   2.464   6.892
 2097WAT     H1 6533   4.982   2.404   6.942
 2097WAT     H2 6534   5.111   2.408   6.842
 2098WAT      O 6535   3.767   3.254   7.264
 2098WAT     H1 6536   3.812   3.343   7.255
 2098WAT     H2 6537   3.687   3.264   7.324
 2099WAT      O 6538   2.582   4.386   5.550
 2099WAT     H1 6539   2.507   4.429   5.602
 2099WAT     H2 6540   2.668   4.402   5.598
 2100WAT      O 6541   7.671   1.204   6.027
 2100WAT     H1 6542   7.705   1.177   6.116
 2100WAT     H2 6543   7.747   1.208   5.962
 2101WAT      O 6544   7.506   6.350   1.317
 2101WAT     H1 6545   7.571   6.339   1.243
 2101WAT     H2 6546   7.424   6.295   1.299
 2102WAT      O 6547   7.802   0.308   7.266
 2102WAT     H1 6548   7.730   0.307   7.335
 2102WAT     H2 6549   7.863   0.231   7.281
 2103WAT      O 6550   5.865   7.765   0.672
 2103WAT     H1 6551   5.870   7.711   0.587
 2103WAT     H2 6552   5.956   7.770   0.713
 2104WAT      O 6553   3.985   5.820   5.827
 2104WAT     H1 6554   3.960   5.725   5.810
 2104WAT     H2 6555   3.912   5.880   5.795
 2105WAT      O 6556   3.617   9.780   7.159
 2105WAT     H1 6557   3.608   9.681   7.146
 2105WAT     H2 6558   3.584   9.805   7.250
 2106WAT      O 6559   5.896   8.639   5.523
 2106WAT     H1 6560   5.827   8.603   5.586
 2106WAT     H2 6561   5.934   8.724   5.559
 2107WAT      O 6562   9.519   0.561   9.803
 2107WAT     H1 6563   9.495   0.503   9.726
 2107WAT     H2 6564   9.550   0.504   9.879
 2108WAT      O 6565   1.636   7.962   4.246
 2108WAT     H1 6566   1.541   7.952   4.276
 2108WAT     H2 6567   1.668   7.875   4.208
 2109WAT      O 6568   0.618   7.186   4.585
 2109WAT     H1 6569   0.654   7.206   4.494
 2109WAT     H2 6570   0.690   7.198   4.653
 2110WAT      O 6571   8.961   2.932   6.978
 2110WAT     H1 6572   8.984   2.863   6.909
 2110WAT     H2 6573   8.863   2.947   6.978
 2111WAT      O 6574   9.168   4.372   8.308
 2111WAT     H1 6575   9.219   4.299   8.353
 2111WAT     H2 6576   9.091   4.399   8.365
 2112WAT      O 6577   3.750   4.620   5.030
 2112WAT     H1 6578   3.778   4.554   4.959
 2112WAT     H2 6579   3.774   4.583   5.120
 2113WAT      O 6580   2.784   1.591   3.719
 2113WAT     H1 6581   2.714   1.618   3.653
 2113WAT     H2 6582   2.872   1.633   3.694
 2114WAT      O 6583   2.486   2.990   5.491
 2114WAT     H1 6584   2.477   3.089   5.504
 2114WAT     H2 6585   2.582   2.964   5.502
 2115WAT      O 6586   1.893   1.034   8.621
 2115WAT     H1 6587   1.977   1.085   8.636
 2115WAT     H2 6588   1.856   1.004   8.710
 2116WAT      O 6589   6.970   7.783   1.956
 2116WAT     H1 6590   6.957   7.882   1.950
 2116WAT     H2 6591   6.916   7.738   1.885
 2117WAT      O 6592   5.947   2.395   7.263
 2117WAT     H1 6593   5.860   2.403   7.312
 2117WAT     H2 6594   5.931   2.407   7.165
 2118WAT      O 6595   7.895   5.024   9.306
 2118WAT     H1 6596   7.862   5.105   9.355
 2118WAT     H2 6597   7.995   5.028   9.298
 2119WAT      O 6598   6.482   2.018   6.851
 2119WAT     H1 6599   6.412   2.081   6.885
 2119WAT     H2 6600   6.567   2.069   6.833
 2120WAT      O 6601   7.939   0.718   2.653
 2120WAT     H1 6602   7.880   0.727   2.573
 2120WAT     H2 6603   8.011   0.787   2.650
 2121WAT      O 6604   6.478   7.667   2.255
 2121WAT     H1 6605   6.425   7.749   2.232
 2121WAT     H2 6606   6.574   7.682   2.231
 2122WAT      O 6607   4.810   1.827   0.176
 2122WAT     H1 6608   4.806   1.737   0.132
 2122WAT     H2 6609   4.901   1.841   0.215
 2123WAT      O 6610   8.312   5.181   6.641
 2123WAT     H1 6611   8.263   5.101   6.608
 2123WAT     H2 6612   8.411   5.164   6.635
 2124WAT      O 6613   5.645   4.546   9.493
 2124WAT     H1 6614   5.635   4.449   9.518
 2124WAT     H2 6615   5.609   4.603   9.567
 2125WAT      O 6616   3.336   2.338   8.228
 2125WAT     H1 6617   3.403   2.344   8.303
 2125WAT     H2 6618   3.263   2.276   8.254
 2126WAT      O 6619   4.566   4.337   3.229
 2126WAT     H1 6620   4.624   4.255   3.229
 2126WAT     H2 6621   4.605   4.406   3.169
 2127WAT      O 6622   1.624   0.402   9.205
 2127WAT     H1 6623   1.558   0.470   9.236
 2127WAT     H2 6624   1.592   0.362   9.119
 2128WAT      O 6625   9.850   7.647   3.753
 2128WAT     H1 6626   9.855   7.743   3.723
 2128WAT     H2 6627   9.831   7.643   3.851
 2129WAT      O 6628   6.333   2.789   5.877
 2129WAT     H1 6629   6.408   2.723   5.868
 2129WAT     H2 6630   6.255   2.744   5.922
 2130WAT      O 6631   9.700   6.051   9.594
 2130WAT     H1 6632   9.656   5.976   9.543
 2130WAT     H2 6633   9.630   6.112   9.631
 2131WAT      O 6634   5.090   8.286   3.223
 2131WAT     H1 6635   5.037   8.363   3.258
 2131WAT     H2 6636   5.058   8.262   3.132
 2132WAT      O 6637   2.239   5.556   4.904
 2132WAT     H1 6638   2.290   5.587   4.824
 2132WAT     H2 6639   2.168   5.623   4.926
 2133WAT      O 6640   7.963   3.561   2.383
 2133WAT     H1 6641   7.889   3.550   2.450
 2133WAT     H2 6642   8.002   3.653   2.392
 2134WAT      O 6643   3.264   7.830   4.455
 2134WAT     H1 6644   3.277   7.829   4.554
 2134WAT     H2 6645   3.349   7.857   4.410
 2135WAT      O 6646   1.907   5.997   3.740
 2135WAT     H1 6647   1.978   5.965   3.803
 2135WAT     H2 6648   1.850   5.920   3.712
 2136WAT      O 6649   1.543   1.089   0.518
 2136WAT     H1 6650   1.578   1.101   0.610
 2136WAT     H2 6651   1.599   1.021   0.470
 2137WAT      O 6652   3.598   4.810   3.737
 2137WAT     H1 6653   3.636   4.899   3.765
 2137WAT     H2 6654   3.544   4.822   3.654
 2138WAT      O 6655   0.537   0.801   8.185
 2138WAT     H1 6656   0.464   0.831   8.246
 2138WAT     H2 6657   0.625   0.813   8.231
 2139WAT      O 6658   4.023   8.438   7.668
 2139WAT     H1 6659   3.979   8.497   7.602
 2139WAT     H2 6660   4.120   8.429   7.645
 2140WAT      O 6661   4.709   2.724   2.622
 2140WAT     H1 6662   4.639   2.674   2.571
 2140WAT     H2 6663   4.679   2.818   2.638
 2141WAT      O 6664   1.098   0.219   1.914
 2141WAT     H1 6665   1.117   0.305   1.962
 2141WAT     H2 6666   1.001   0.218   1.886
 2142WAT      O 6667   5.545   4.880   6.425
 2142WAT     H1 6668   5.495   4.955   6.382
 2142WAT     H2 6669   5.643   4.889   6.406
 2143WAT      O 6670   8.001   5.399   5.998
 2143WAT     H1 6671   8.052   5.342   6.062
 2143WAT     H2 6672   7.911   5.360   5.981
 2144WAT      O 6673   6.820   8.078   0.937
 2144WAT     H1 6674   6.834   8.125   1.025
 2144WAT     H2 6675   6.888   8.006   0.927
 2145WAT      O 6676   2.941   9.545   8.589
 2145WAT     H1 6677   2.877   9.485   8.637
 2145WAT     H2 6678   2.945   9.520   8.493
 2146WAT      O 6679   0.023   6.702   8.228
 2146WAT     H1 6680  -0.067   6.666   8.254
 2146WAT     H2 6681   0.092   6.632   8.244
 2147WAT      O 6682   4.696   9.660   9.379
 2147WAT     H1 6683   4.795   9.654   9.387
 2147WAT     H2 6684   4.663   9.744   9.423
 2148WAT      O 6685   5.599   6.815   0.453
 2148WAT     H1 6686   5.581   6.753   0.530
 2148WAT     H2 6687   5.522   6.878   0.442
 2149WAT      O 6688   6.957   4.830   0.662
 2149WAT     H1 6689   7.009   4.823   0.747
 2149WAT     H2 6690   7.016   4.866   0.590
 2150WAT      O 6691   0.157   8.931   3.353
 2150WAT     H1 6692   0.078   8.916   3.413
 2150WAT     H2 6693   0.168   8.851   3.293
 2151WAT      O 6694   6.627   4.235   7.757
 2151WAT     H1 6695   6.668   4.225   7.848
 2151WAT     H2 6696   6.589   4.148   7.728
 2152WAT      O 6697   8.809   6.215   6.992
 2152WAT     H1 6698   8.776   6.266   6.912
 2152WAT     H2 6699   8.868   6.141   6.962
 2153WAT      O 6700   7.004   2.915   5.623
 2153WAT     H1 6701   7.057   2.953   5.548
 2153WAT     H2 6702   7.019   2.971   5.705
 2154WAT      O 6703   6.646   2.665   5.087
 2154WAT     H1 6704   6.641   2.742   5.151
 2154WAT     H2 6705   6.687   2.696   5.001
 2155WAT      O 6706   8.275   7.722   1.098
 2155WAT     H1 6707   8.260   7.768   1.010
 2155WAT     H2 6708   8.189   7.720   1.149
 2156WAT      O 6709   8.825   8.001   3.870
 2156WAT     H1 6710   8.832   7.904   3.893
 2156WAT     H2 6711   8.772   8.012   3.785
 2157WAT      O 6712   9.139   1.722   5.680
 2157WAT     H1 6713   9.061   1.669   5.713
 2157WAT     H2 6714   9.118   1.819   5.685
 2158WAT      O 6715   8.057   9.326   7.205
 2158WAT     H1 6716   8.020   9.378   7.282
 2158WAT     H2 6717   8.144   9.366   7.176
 2159WAT      O 6718   8.015   0.647   4.685
 2159WAT     H1 6719   7.928   0.648   4.735
 2159WAT     H2 6720   8.043   0.741   4.664
 2160WAT      O 6721   9.246   4.546   9.314
 2160WAT     H1 6722   9.305   4.623   9.288
 2160WAT     H2 6723   9.262   4.523   9.410
 2161WAT      O 6724   4.825   0.180   4.703
 2161WAT     H1 6725   4.795   0.084   4.701
 2161WAT     H2 6726   4.914   0.186   4.748
 2162WAT      O 6727   4.149   1.287   5.556
 2162WAT     H1 6728   4.134   1.203   5.608
 2162WAT     H2 6729   4.139   1.366   5.616
 2163WAT      O 6730   3.581   2.864   0.121
 2163WAT     H1 6731   3.665   2.890   0.072
 2163WAT     H2 6732   3.544   2.943   0.169
 2164WAT      O 6733   9.625   6.670   8.196
 2164WAT     H1 6734   9.530   6.639   8.197
 2164WAT     H2 6735   9.638   6.744   8.262
 2165WAT      O 6736   4.833   0.092   7.921
 2165WAT     H1 6737   4.759   0.027   7.906
 2165WAT     H2 6738   4.798   0.185   7.913
 2166WAT      O 6739   1.945   4.022   0.307
 2166WAT     H1 6740   1.936   4.046   0.211
 2166WAT     H2 6741   1.901   3.933   0.324
 2167WAT      O 6742   9.158   9.097   3.352
 2167WAT     H1 6743   9.113   9.033   3.414
 2167WAT     H2 6744   9.256   9.098   3.371
 2168WAT      O 6745   4.013   6.924   6.025
 2168WAT     H1 6746   4.082   6.866   6.069
 2168WAT     H2 6747   4.054   7.010   5.998
 2169WAT      O 6748   1.864   0.117   6.560
 2169WAT     H1 6749   1.927   0.163   6.622
 2169WAT     H2 6750   1.795   0.182   6.528
 2170WAT      O 6751   0.239   7.912   1.815
 2170WAT     H1 6752   0.175   7.982   1.847
 2170WAT     H2 6753   0.217   7.888   1.720
 2171WAT      O 6754   0.167   7.297   9.587
 2171WAT     H1 6755   0.249   7.244   9.608
 2171WAT     H2 6756   0.123   7.259   9.505
 2172WAT      O 6757   6.094   0.399   6.350
 2172WAT     H1 6758   6.145   0.485   6.361
 2172WAT     H2 6759   6.017   0.398   6.414
 2173WAT      O 6760   3.146   1.179   0.630
 2173WAT     H1 6761   3.087   1.183   0.549
 2173WAT     H2 6762   3.198   1.263   0.637
 2174WAT      O 6763   7.015   6.233   0.869
 2174WAT     H1 6764   7.077   6.188   0.805
 2174WAT     H2 6765   6.959   6.299   0.819
 2175WAT      O 6766   7.608   6.822   4.762
 2175WAT     H1 6767   7.594   6.867   4.850
 2175WAT     H2 6768   7.700   6.783   4.758
 2176WAT      O 6769   7.481   7.314   2.598
 2176WAT     H1 6770   7.410   7.253   2.563
 2176WAT     H2 6771   7.502   7.384   2.529
 2177WAT      O 6772   8.600   0.099   1.005
 2177WAT     H1 6773   8.559   0.056   1.086
 2177WAT     H2 6774   8.557   0.187   0.989
 2178WAT      O 6775   1.796   5.139   6.104
 2178WAT     H1 6776   1.778   5.169   6.198
 2178WAT     H2 6777   1.720   5.083   6.072
 2179WAT      O 6778   0.189   0.245   0.970
 2179WAT     H1 6779   0.188   0.155   0.927
 2179WAT     H2 6780   0.272   0.256   1.024
 2180WAT      O 6781   7.747   5.261   5.615
 2180WAT     H1 6782   7.752   5.175   5.564
 2180WAT     H2 6783   7.833   5.311   5.604
 2181WAT      O 6784   9.767   4.354   5.770
 2181WAT     H1 6785   9.847   4.334   5.826
 2181WAT     H2 6786   9.749   4.277   5.708
 2182WAT      O 6787   3.752   7.411   3.604
 2182WAT     H1 6788   3.706   7.344   3.662
 2182WAT     H2 6789   3.695   7.493   3.597
 2183WAT      O 6790   5.982   0.624   4.953
 2183WAT     H1 6791   6.056   0.567   4.989
 2183WAT     H2 6792   5.957   0.592   4.862
 2184WAT      O 6793   0.650   3.150   0.451
 2184WAT     H1 6794   0.700   3.199   0.523
 2184WAT     H2 6795   0.619   3.062   0.485
 2185WAT      O 6796   6.105   2.829   3.229
 2185WAT     H1 6797   6.133   2.844   3.134
 2185WAT     H2 6798   6.133   2.738   3.258
 2186WAT      O 6799   6.832   0.681   8.855
 2186WAT     H1 6800   6.797   0.749   8.791
 2186WAT     H2 6801   6.816   0.713   8.948
 2187WAT      O 6802   2.826   1.730   6.747
 2187WAT     H1 6803   2.800   1.751   6.841
 2187WAT     H2 6804   2.840   1.632   6.737
 2188WAT      O 6805   3.589   1.610   1.325
 2188WAT     H1 6806   3.635   1.659   1.399
 2188WAT     H2 6807   3.492   1.601   1.346
 2189WAT      O 6808   3.248   4.552   9.859
 2189WAT     H1 6809   3.317   4.512   9.798
 2189WAT     H2 6810   3.282   4.639   9.895
 2190WAT      O 6811   1.331   6.505   1.467
 2190WAT     H1 6812   1.354   6.563   1.389
 2190WAT     H2 6813   1.248   6.454   1.448
 2191WAT      O 6814   1.465   8.917   5.310
 2191WAT     H1 6815   1.463   9.009   5.272
 2191WAT     H2 6816   1.464   8.850   5.236
 2192WAT      O 6817   7.458   5.522   8.285
 2192WAT     H1 6818   7.534   5.580   8.314
 2192WAT     H2 6819   7.452   5.520   8.186
 2193WAT      O 6820   2.272   5.201   5.520
 2193WAT     H1 6821   2.185   5.153   5.523
 2193WAT     H2 6822   2.265   5.287   5.570
 2194WAT      O 6823   8.110   3.135   8.578
 2194WAT     H1 6824   8.161   3.214   8.544
 2194WAT     H2 6825   8.172   3.072   8.624
 2195WAT      O 6826   0.572   7.892   2.719
 2195WAT     H1 6827   0.658   7.939   2.733
 2195WAT     H2 6828   0.535   7.863   2.807
 2196WAT      O 6829   1.389   5.063   4.830
 2196WAT     H1 6830   1.480   5.024   4.816
 2196WAT     H2 6831   1.387   5.156   4.795
 2197WAT      O 6832   3.320   9.296   7.198
 2197WAT     H1 6833   3.357   9.237   7.269
 2197WAT     H2 6834   3.322   9.391   7.229
 2198WAT      O 6835   5.653   1.776   2.894
 2198WAT     H1 6836   5.635   1.703   2.960
 2198WAT     H2 6837   5.703   1.738   2.816
 2199WAT      O 6838   7.587   6.143   2.227
 2199WAT     H1 6839   7.649   6.203   2.277
 2199WAT     H2 6840   7.586   6.053   2.269
 2200WAT      O 6841   4.994   2.091   2.194
 2200WAT     H1 6842   4.985   1.991   2.200
 2200WAT     H2 6843   5.085   2.114   2.159
 2201WAT      O 6844   2.527   4.946   8.870
 2201WAT     H1 6845   2.537   4.935   8.771
 2201WAT     H2 6846   2.594   5.011   8.904
 2202WAT      O 6847   6.927   4.778   6.780
 2202WAT     H1 6848   6.907   4.683   6.804
 2202WAT     H2 6849   7.020   4.800   6.811
 2203WAT      O 6850   8.534   7.263   2.459
 2203WAT     H1 6851   8.554   7.280   2.556
 2203WAT     H2 6852   8.593   7.189   2.426
 2204WAT      O 6853   7.362   9.644   2.972
 2204WAT     H1 6854   7.292   9.665   3.040
 2204WAT     H2 6855   7.325   9.657   2.880
 2205WAT      O 6856   4.296   6.047   0.762
 2205WAT     H1 6857   4.295   6.074   0.666
 2205WAT     H2 6858   4.328   5.953   0.770
 2206WAT      O 6859   1.092   6.791   9.532
 2206WAT     H1 6860   1.042   6.800   9.446
 2206WAT     H2 6861   1.034   6.745   9.599
 2207WAT      O 6862   9.855   4.974   3.646
 2207WAT     H1 6863   9.836   4.986   3.743
 2207WAT     H2 6864   9.780   4.924   3.603
 2208WAT      O 6865   5.413   9.669   1.754
 2208WAT     H1 6866   5.357   9.619   1.688
 2208WAT     H2 6867   5.505   9.631   1.755
 2209WAT      O 6868   8.657   7.336   5.138
 2209WAT     H1 6869   8.651   7.237   5.150
 2209WAT     H2 6870   8.564   7.374   5.132
 2210WAT      O 6871   5.773   0.621   8.022
 2210WAT     H1 6872   5.693   0.561   8.020
 2210WAT     H2 6873   5.842   0.583   8.084
 2211WAT      O 6874   9.403   8.144   7.179
 2211WAT     H1 6875   9.360   8.192   7.103
 2211WAT     H2 6876   9.447   8.061   7.145
 2212WAT      O 6877   9.342   0.342   8.906
 2212WAT     H1 6878   9.286   0.413   8.949
 2212WAT     H2 6879   9.425   0.329   8.960
 2213WAT      O 6880   7.860   8.491   5.184
 2213WAT     H1 6881   7.864   8.516   5.281
 2213WAT     H2 6882   7.932   8.540   5.135
 2214WAT      O 6883   4.547   0.706   8.124
 2214WAT     H1 6884   4.561   0.650   8.205
 2214WAT     H2 6885   4.463   0.760   8.134
 2215WAT      O 6886   4.635   6.247   3.039
 2215WAT     H1 6887   4.718   6.250   3.096
 2215WAT     H2 6888   4.570   6.315   3.071
 2216WAT      O 6889   9.886   7.075   8.258
 2216WAT     H1 6890   9.935   7.060   8.172
 2216WAT     H2 6891   9.835   7.160   8.252
 2217WAT      O 6892   4.094   4.868   4.059
 2217WAT     H1 6893   4.130   4.800   4.122
 2217WAT     H2 6894   3.995   4.875   4.072
 2218WAT      O 6895   3.200   0.597   4.813
 2218WAT     H1 6896   3.250   0.643   4.740
 2218WAT     H2 6897   3.134   0.533   4.774
 2219WAT      O 6898   3.307   4.963   1.328
 2219WAT     H1 6899   3.238   4.969   1.256
 2219WAT     H2 6900   3.306   5.046   1.383
 2220WAT      O 6901   5.059   6.091   2.027
 2220WAT     H1 6902   5.073   6.034   1.946
 2220WAT     H2 6903   5.147   6.128   2.058
 2221WAT      O 6904   8.200   2.993   5.808
 2221WAT     H1 6905   8.100   2.998   5.801
 2221WAT     H2 6906   8.226   2.903   5.843
 2222WAT      O 6907   7.400   2.661   6.681
 2222WAT     H1 6908   7.373   2.758   6.679
 2222WAT     H2 6909   7.331   2.608   6.729
 2223WAT      O 6910   4.315   6.427   0.863
 2223WAT     H1 6911   4.336   6.347   0.919
 2223WAT     H2 6912   4.350   6.509   0.909
 2224WAT      O 6913   7.597   7.790   1.777
 2224WAT     H1 6914   7.547   7.867   1.738
 2224WAT     H2 6915   7.683   7.777   1.728
 2225WAT      O 6916   0.535   4.122   7.784
 2225WAT     H1 6917   0.442   4.154   7.802
 2225WAT     H2 6918   0.574   4.083   7.867
 2226WAT      O 6919   7.249   4.074   8.246
 2226WAT     H1 6920   7.282   3.980   8.234
 2226WAT     H2 6921   7.259   4.101   8.342
 2227WAT      O 6922   7.389   1.939   0.595
 2227WAT     H1 6923   7.415   1.847   0.623
 2227WAT     H2 6924   7.452   1.971   0.523
 2228WAT      O 6925   4.223   2.643   8.713
 2228WAT     H1 6926   4.151   2.574   8.711
 2228WAT     H2 6927   4.301   2.608   8.764
 2229WAT      O 6928   8.701   2.239   7.056
 2229WAT     H1 6929   8.708   2.139   7.054
 2229WAT     H2 6930   8.608   2.267   7.031
 2230WAT      O 6931   6.183   1.511   0.607
 2230WAT     H1 6932   6.246   1.433   0.611
 2230WAT     H2 6933   6.132   1.516   0.693
 2231WAT      O 6934   7.224   7.831   0.193
 2231WAT     H1 6935   7.226   7.791   0.285
 2231WAT     H2 6936   7.310   7.880   0.176
 2232WAT      O 6937   5.154   2.338   1.252
 2232WAT     H1 6938   5.228   2.279   1.223
 2232WAT     H2 6939   5.172   2.371   1.345
 2233WAT      O 6940   3.165   0.860   7.331
 2233WAT     H1 6941   3.238   0.886   7.268
 2233WAT     H2 6942   3.190   0.776   7.379
 2234WAT      O 6943   6.645   2.144   4.135
 2234WAT     H1 6944   6.745   2.147   4.142
 2234WAT     H2 6945   6.617   2.165   4.042
 2235WAT      O 6946   1.974   2.950   2.137
 2235WAT     H1 6947   2.022   3.004   2.205
 2235WAT     H2 6948   2.039   2.890   2.090
 2236WAT      O 6949   0.366   6.082   1.341
 2236WAT     H1 6950   0.372   6.164   1.285
 2236WAT     H2 6951   0.283   6.031   1.318
 2237WAT      O 6952   0.151   7.888   3.555
 2237WAT     H1 6953   0.246   7.857   3.557
 2237WAT     H2 6954   0.142   7.965   3.491
 2238WAT      O 6955   1.501   8.435   5.077
 2238WAT     H1 6956   1.566   8.457   5.005
 2238WAT     H2 6957   1.540   8.459   5.166
 2239WAT      O 6958   6.235   2.282   2.899
 2239WAT     H1 6959   6.193   2.258   2.812
 2239WAT     H2 6960   6.288   2.366   2.889
 2240WAT      O 6961   8.841   5.275   8.466
 2240WAT     H1 6962   8.878   5.275   8.373
 2240WAT     H2 6963   8.869   5.191   8.513
 2241WAT      O 6964   4.442   9.310   6.878
 2241WAT     H1 6965   4.525   9.323   6.932
 2241WAT     H2 6966   4.375   9.381   6.901
 2242WAT      O 6967   2.804   6.358   7.728
 2242WAT     H1 6968   2.817   6.457   7.716
 2242WAT     H2 6969   2.706   6.339   7.737
 2243WAT      O 6970   7.128   0.312   9.103
 2243WAT     H1 6971   7.103   0.403   9.070
 2243WAT     H2 6972   7.086   0.243   9.044
 2244WAT      O 6973   1.349   9.625   4.302
 2244WAT     H1 6974   1.418   9.690   4.332
 2244WAT     H2 6975   1.298   9.663   4.225
 2245WAT      O 6976   2.354   3.849   1.309
 2245WAT     H1 6977   2.355   3.930   1.368
 2245WAT     H2 6978   2.262   3.810   1.307
 2246WAT      O 6979   5.989   8.112   0.127
 2246WAT     H1 6980   6.036   8.133   0.042
 2246WAT     H2 6981   6.020   8.024   0.162
 2247WAT      O 6982   2.108   7.092   4.792
 2247WAT     H1 6983   2.076   7.000   4.815
 2247WAT     H2 6984   2.151   7.133   4.873
 2248WAT      O 6985   0.856   9.771   5.963
 2248WAT     H1 6986   0.800   9.811   6.035
 2248WAT     H2 6987   0.798   9.738   5.888
 2249WAT      O 6988   6.951   3.260   1.844
 2249WAT     H1 6989   6.885   3.332   1.865
 2249WAT     H2 6990   6.987   3.222   1.930
 2250WAT      O 6991   1.654   1.155   1.416
 2250WAT     H1 6992   1.627   1.171   1.321
 2250WAT     H2 6993   1.657   1.056   1.433
 2251WAT      O 6994   6.926   2.243   9.654
 2251WAT     H1 6995   6.835   2.211   9.627
 2251WAT     H2 6996   6.992   2.222   9.581
 2252WAT      O 6997   5.031   9.508   3.588
 2252WAT     H1 6998   4.987   9.423   3.558
 2252WAT     H2 6999   5.127   9.506   3.561
 2253WAT      O 7000   1.140   2.152   3.717
 2253WAT     H1 7001   1.065   2.088   3.699
 2253WAT     H2 7002   1.224   2.118   3.674
 2254WAT      O 7003   1.914   1.706   2.975
 2254WAT     H1 7004   1.935   1.796   3.012
 2254WAT     H2 7005   1.996   1.650   2.975
 2255WAT      O 7006   2.605   0.670   9.817
 2255WAT     H1 7007   2.643   0.654   9.725
 2255WAT     H2 7008   2.597   0.583   9.865
 2256WAT      O 7009   4.209   1.359   9.502
 2256WAT     H1 7010   4.290   1.322   9.457
 2256WAT     H2 7011   4.227   1.374   9.599
 2257WAT      O 7012   3.196   3.801   5.444
 2257WAT     H1 7013   3.167   3.707   5.462
 2257WAT     H2 7014   3.295   3.807   5.453
 2258WAT      O 7015   2.887   3.980   5.821
 2258WAT     H1 7016   2.958   3.962   5.753
 2258WAT     H2 7017   2.805   4.013   5.774
 2259WAT      O 7018   1.361   2.144   5.730
 2259WAT     H1 7019   1.417   2.227   5.734
 2259WAT     H2 7020   1.281   2.161   5.672
 2260WAT      O 7021   9.028   7.378   1.665
 2260WAT     H1 7022   8.934   7.405   1.688
 2260WAT     H2 7023   9.044   7.391   1.567
 2261WAT      O 7024   3.374   4.388   2.706
 2261WAT     H1 7025   3.306   4.329   2.751
 2261WAT     H2 7026   3.464   4.372   2.748
 2262WAT      O 7027   5.418   0.671   7.081
 2262WAT     H1 7028   5.373   0.721   7.156
 2262WAT     H2 7029   5.403   0.573   7.092
 2263WAT      O 7030   0.010   7.355   5.791
 2263WAT     H1 7031   0.100   7.315   5.775
 2263WAT     H2 7032   0.014   7.413   5.872
 2264WAT      O 7033   7.862   4.907   0.133
 2264WAT     H1 7034   7.917   4.848   0.074
 2264WAT     H2 7035   7.797   4.851   0.184
 2265WAT      O 7036   3.626   6.421   5.251
 2265WAT     H1 7037   3.541   6.413   5.302
 2265WAT     H2 7038   3.608   6.463   5.162
 2266WAT      O 7039   3.838   7.383   3.289
 2266WAT     H1 7040   3.905   7.309   3.280
 2266WAT     H2 7041   3.789   7.374   3.376
 2267WAT      O 7042   4.794   9.138   8.487
 2267WAT     H1 7043   4.878   9.171   8.529
 2267WAT     H2 7044   4.725   9.122   8.558
 2268WAT      O 7045   4.327   3.477   6.741
 2268WAT     H1 7046   4.371   3.392   6.768
 2268WAT     H2 7047   4.275   3.462   6.656
 2269WAT      O 7048   2.228   4.551   0.645
 2269WAT     H1 7049   2.163   4.602   0.589
 2269WAT     H2 7050   2.320   4.587   0.630
 2270WAT      O 7051   3.717   7.648   8.112
 2270WAT     H1 7052   3.796   7.604   8.156
 2270WAT     H2 7053   3.642   7.582   8.104
 2271WAT      O 7054   5.089   1.431   0.646
 2271WAT     H1 7055   5.040   1.504   0.694
 2271WAT     H2 7056   5.052   1.342   0.674
 2272WAT      O 7057   4.205   9.157   9.722
 2272WAT     H1 7058   4.240   9.251   9.730
 2272WAT     H2 7059   4.252   9.110   9.647
 2273WAT      O 7060   7.257   4.249   1.990
 2273WAT     H1 7061   7.308   4.321   1.942
 2273WAT     H2 7062   7.233   4.177   1.925
 2274WAT      O 7063   0.278   3.932   5.038
 2274WAT     H1 7064   0.304   3.872   5.114
 2274WAT     H2 7065   0.193   3.980   5.060
 2275WAT      O 7066   9.434   1.202   0.638
 2275WAT     H1 7067   9.446   1.103   0.638
 2275WAT     H2 7068   9.414   1.233   0.545
 2276WAT      O 7069   8.586   1.833   0.540
 2276WAT     H1 7070   8.629   1.776   0.610
 2276WAT     H2 7071   8.644   1.836   0.459
 2277WAT      O 7072   6.119   6.986   9.007
 2277WAT     H1 7073   6.054   7.060   9.025
 2277WAT     H2 7074   6.115   6.919   9.081
 2278WAT      O 7075   3.284   1.559   4.575
 2278WAT     H1 7076   3.205   1.539   4.633
 2278WAT     H2 7077   3.347   1.482   4.577
 2279WAT      O 7078   0.735   9.758   7.779
 2279WAT     H1 7079   0.669   9.744   7.706
 2279WAT     H2 7080   0.689   9.757   7.867
 2280WAT      O 7081   4.448   1.077   5.152
 2280WAT     H1 7082   4.523   1.077   5.086
 2280WAT     H2 7083   4.366   1.116   5.110
 2281WAT      O 7084   6.305   5.357   5.293
 2281WAT     H1 7085   6.267   5.355   5.201
 2281WAT     H2 7086   6.340   5.449   5.313
 2282WAT      O 7087   3.017   7.869   8.433
 2282WAT     H1 7088   3.079   7.878   8.355
 2282WAT     H2 7089   3.055   7.803   8.498
 2283WAT      O 7090   3.965   0.613   1.232
 2283WAT     H1 7091   4.040   0.672   1.203
 2283WAT     H2 7092   3.963   0.607   1.331
 2284WAT      O 7093   6.398   7.879   5.196
 2284WAT     H1 7094   6.421   7.859   5.291
 2284WAT     H2 7095   6.321   7.943   5.194
 2285WAT      O 7096   9.393   9.404   3.330
 2285WAT     H1 7097   9.412   9.501   3.347
 2285WAT     H2 7098   9.397   9.386   3.232
 2286WAT      O 7099   5.019   7.357   2.106
 2286WAT     H1 7100   5.106   7.314   2.084
 2286WAT     H2 7101   5.034   7.435   2.167
 2287WAT      O 7102   3.741   5.654   4.943
 2287WAT     H1 7103   3.690   5.570   4.921
 2287WAT     H2 7104   3.689   5.707   5.011
 2288WAT      O 7105   3.735   2.993   2.597
 2288WAT     H1 7106   3.727   3.088   2.625
 2288WAT     H2 7107   3.715   2.933   2.674
 2289WAT      O 7108   6.303   1.651   1.445
 2289WAT     H1 7109   6.343   1.730   1.491
 2289WAT     H2 7110   6.297   1.574   1.509
 2290WAT      O 7111   8.576   5.065   7.311
 2290WAT     H1 7112   8.486   5.106   7.294
 2290WAT     H2 7113   8.579   5.027   7.404
 2291WAT      O 7114   6.461   8.988   5.504
 2291WAT     H1 7115   6.511   9.064   5.463
 2291WAT     H2 7116   6.506   8.960   5.589
 2292WAT      O 7117   5.013   5.014   1.651
 2292WAT     H1 7118   5.052   4.923   1.660
 2292WAT     H2 7119   5.055   5.061   1.573
 2293WAT      O 7120   1.036   0.875   0.253
 2293WAT     H1 7121   0.979   0.884   0.172
 2293WAT     H2 7122   1.042   0.963   0.300
 2294WAT      O 7123   4.441   2.686   9.847
 2294WAT     H1 7124   4.365   2.656   9.905
 2294WAT     H2 7125   4.464   2.614   9.782
 2295WAT      O 7126   6.277   5.497   4.557
 2295WAT     H1 7127   6.221   5.550   4.493
 2295WAT     H2 7128   6.258   5.400   4.547
 2296WAT      O 7129   4.199   3.285   5.653
 2296WAT     H1 7130   4.217   3.383   5.658
 2296WAT     H2 7131   4.163   3.253   5.741
 2297WAT      O 7132   8.513   4.830   7.914
 2297WAT     H1 7133   8.532   4.763   7.842
 2297WAT     H2 7134   8.475   4.913   7.873
 2298WAT      O 7135   7.615   3.475   2.006
 2298WAT     H1 7136   7.592   3.393   1.954
 2298WAT     H2 7137   7.685   3.453   2.074
 2299WAT      O 7138   6.236   0.338   0.904
 2299WAT     H1 7139   6.168   0.356   0.974
 2299WAT     H2 7140   6.319   0.302   0.947
 2300WAT      O 7141   4.432   4.108   7.528
 2300WAT     H1 7142   4.348   4.098   7.475
 2300WAT     H2 7143   4.510   4.077   7.473
 2301WAT      O 7144   1.686   1.634   8.918
 2301WAT     H1 7145   1.640   1.708   8.868
 2301WAT     H2 7146   1.623   1.595   8.985
 2302WAT      O 7147   0.717   1.901   1.583
 2302WAT     H1 7148   0.712   1.933   1.488
 2302WAT     H2 7149   0.761   1.811   1.585
 2303WAT      O 7150   0.635   4.391   1.917
 2303WAT     H1 7151   0.623   4.431   2.008
 2303WAT     H2 7152   0.549   4.399   1.866
 2304WAT      O 7153   7.953   9.380   4.693
 2304WAT     H1 7154   7.977   9.374   4.790
 2304WAT     H2 7155   8.018   9.439   4.645
 2305WAT      O 7156   1.855   8.179   4.978
 2305WAT     H1 7157   1.855   8.243   4.901
 2305WAT     H2 7158   1.943   8.133   4.982
 2306WAT      O 7159   1.542   9.672   5.033
 2306WAT     H1 7160   1.466   9.736   5.027
 2306WAT     H2 7161   1.618   9.716   5.081
 2307WAT      O 7162   2.476   5.158   9.838
 2307WAT     H1 7163   2.398   5.184   9.782
 2307WAT     H2 7164   2.553   5.133   9.779
 2308WAT      O 7165   7.185   7.120   3.960
 2308WAT     H1 7166   7.143   7.050   3.902
 2308WAT     H2 7167   7.284   7.113   3.954
 2309WAT      O 7168   9.116   6.942   7.546
 2309WAT     H1 7169   9.142   6.974   7.637
 2309WAT     H2 7170   9.085   6.847   7.551
 2310WAT      O 7171   3.746   2.212   7.192
 2310WAT     H1 7172   3.690   2.294   7.193
 2310WAT     H2 7173   3.830   2.228   7.245
 2311WAT      O 7174   3.568   3.961   6.873
 2311WAT     H1 7175   3.559   3.914   6.786
 2311WAT     H2 7176   3.589   4.058   6.858
 2312WAT      O 7177   0.823  -0.000   4.220
 2312WAT     H1 7178   0.732  -0.004   4.261
 2312WAT     H2 7179   0.824   0.069   4.148
 2313WAT      O 7180   3.506   2.415   6.552
 2313WAT     H1 7181   3.527   2.466   6.636
 2313WAT     H2 7182   3.493   2.480   6.477
 2314WAT      O 7183   2.578   4.990   1.403
 2314WAT     H1 7184   2.491   5.040   1.402
 2314WAT     H2 7185   2.649   5.047   1.362
 2315WAT      O 7186   6.584   7.662   3.569
 2315WAT     H1 7187   6.492   7.636   3.539
 2315WAT     H2 7188   6.578   7.740   3.631
 2316WAT      O 7189   5.767   3.239   9.284
 2316WAT     H1 7190   5.821   3.265   9.204
 2316WAT     H2 7191   5.714   3.157   9.264
 2317WAT      O 7192   2.996   0.786   3.813
 2317WAT     H1 7193   3.079   0.820   3.769
 2317WAT     H2 7194   3.017   0.709   3.872
 2318WAT      O 7195   3.813   5.242   7.957
 2318WAT     H1 7196   3.827   5.339   7.976
 2318WAT     H2 7197   3.726   5.229   7.910
 2319WAT      O 7198   3.042   9.836   3.574
 2319WAT     H1 7199   2.957   9.791   3.548
 2319WAT     H2 7200   3.022   9.931   3.601
 2320WAT      O 7201   7.683   0.485   0.397
 2320WAT     H1 7202   7.678   0.387   0.378
 2320WAT     H2 7203   7.591   0.523   0.399
 2321WAT      O 7204   4.853   9.612   8.419
 2321WAT     H1 7205   4.802   9.622   8.334
 2321WAT     H2 7206   4.941   9.658   8.411
 2322WAT      O 7207   1.820   7.571   0.394
 2322WAT     H1 7208   1.734   7.612   0.425
 2322WAT     H2 7209   1.807   7.531   0.303
 2323WAT      O 7210   7.638   8.422   7.098
 2323WAT     H1 7211   7.669   8.517   7.087
 2323WAT     H2 7212   7.568   8.418   7.169
 2324WAT      O 7213   2.588   8.638   9.555
 2324WAT     H1 7214   2.496   8.603   9.541
 2324WAT     H2 7215   2.620   8.683   9.472
 2325WAT      O 7216   3.083   3.311   0.462
 2325WAT     H1 7217   3.051   3.224   0.501
 2325WAT     H2 7218   3.077   3.307   0.362
 2326WAT      O 7219   2.250   9.687   7.698
 2326WAT     H1 7220   2.173   9.693   7.634
 2326WAT     H2 7221   2.309   9.610   7.673
 2327WAT      O 7222   5.109   1.260   5.926
 2327WAT     H1 7223   5.055   1.224   5.850
 2327WAT     H2 7224   5.058   1.250   6.011
 2328WAT      O 7225   8.211   3.917   6.679
 2328WAT     H1 7226   8.190   3.863   6.598
 2328WAT     H2 7227   8.127   3.944   6.725
 2329WAT      O 7228   0.056   2.345   9.197
 2329WAT     H1 7229   0.131   2.393   9.241
 2329WAT     H2 7230   0.087   2.306   9.110
 2330WAT      O 7231   5.384   9.009   9.099
 2330WAT     H1 7232   5.336   9.096   9.093
 2330WAT     H2 7233   5.320   8.934   9.081
 2331WAT      O 7234   9.745   5.085   8.754
 2331WAT     H1 7235   9.826   5.028   8.736
 2331WAT     H2 7236   9.677   5.032   8.803
 2332WAT      O 7237   2.476   4.184   8.757
 2332WAT     H1 7238   2.378   4.186   8.742
 2332WAT     H2 7239   2.507   4.090   8.771
 2333WAT      O 7240   1.598   5.041   1.709
 2333WAT     H1 7241   1.651   5.088   1.639
 2333WAT     H2 7242   1.660   4.995   1.773
 2334WAT      O 7243   1.503   7.229   0.916
 2334WAT     H1 7244   1.538   7.283   0.839
 2334WAT     H2 7245   1.567   7.155   0.937
 2335WAT      O 7246   6.263   6.942   4.126
 2335WAT     H1 7247   6.219   7.032   4.124
 2335WAT     H2 7248   6.194   6.871   4.137
 2336WAT      O 7249   5.488   3.631   3.720
 2336WAT     H1 7250   5.532   3.643   3.631
 2336WAT     H2 7251   5.422   3.704   3.735
 2337WAT      O 7252   1.326   1.790   1.842
 2337WAT     H1 7253   1.259   1.857   1.810
 2337WAT     H2 7254   1.364   1.741   1.763
 2338WAT      O 7255   5.055   5.059   1.010
 2338WAT     H1 7256   4.991   4.987   1.036
 2338WAT     H2 7257   5.004   5.140   0.980
 2339WAT      O 7258   6.183   4.043   1.013
 2339WAT     H1 7259   6.267   4.077   1.056
 2339WAT     H2 7260   6.115   4.116   1.013
 2340WAT      O 7261   2.063   6.990   6.574
 2340WAT     H1 7262   2.027   7.068   6.523
 2340WAT     H2 7263   2.121   7.023   6.648
 2341WAT      O 7264   6.107   0.438   9.852
 2341WAT     H1 7265   6.204   0.430   9.829
 2341WAT     H2 7266   6.073   0.348   9.882
 2342WAT      O 7267   2.384   9.503   3.342
 2342WAT     H1 7268   2.388   9.583   3.281
 2342WAT     H2 7269   2.472   9.455   3.339
 2343WAT      O 7270   0.603   8.217   6.941
 2343WAT     H1 7271   0.664   8.226   6.863
 2343WAT     H2 7272   0.647   8.164   7.013
 2344WAT      O 7273   9.534   0.570   1.522
 2344WAT     H1 7274   9.488   0.522   1.597
 2344WAT     H2 7275   9.622   0.526   1.504
 2345WAT      O 7276   8.627   1.617   0.967
 2345WAT     H1 7277   8.638   1.558   1.048
 2345WAT     H2 7278   8.586   1.704   0.995
 2346WAT      O 7279   9.513   6.809   1.982
 2346WAT     H1 7280   9.574   6.801   2.062
 2346WAT     H2 7281   9.524   6.899   1.941
 2347WAT      O 7282   2.643   2.186   3.447
 2347WAT     H1 7283   2.556   2.231   3.424
 2347WAT     H2 7284   2.706   2.253   3.486
 2348WAT      O 7285   8.222   6.372   0.804
 2348WAT     H1 7286   8.305   6.424   0.785
 2348WAT     H2 7287   8.193   6.389   0.898
 2349WAT      O 7288   5.974   7.833   0.263
 2349WAT     H1 7289   6.069   7.824   0.291
 2349WAT     H2 7290   5.917   7.768   0.314
 2350WAT      O 7291   3.653   9.442   7.197
 2350WAT     H1 7292   3.693   9.385   7.125
 2350WAT     H2 7293   3.688   9.413   7.286
 2351WAT      O 7294   9.713   7.299   7.329
 2351WAT     H1 7295   9.766   7.226   7.286
 2351WAT     H2 7296   9.645   7.333   7.265
 2352WAT      O 7297   1.023   0.250   4.534
 2352WAT     H1 7298   0.989   0.208   4.450
 2352WAT     H2 7299   0.952   0.308   4.574
 2353WAT      O 7300   9.747   0.335   9.585
 2353WAT     H1 7301   9.758   0.256   9.645
 2353WAT     H2 7302   9.649   0.354   9.573
 2354WAT      O 7303   0.032   6.079   7.229
 2354WAT     H1 7304   0.074   6.030   7.306
 2354WAT     H2 7305  -0.067   6.071   7.235
 2355WAT      O 7306   5.881   9.666   6.950
 2355WAT     H1 7307   5.860   9.655   6.853
 2355WAT     H2 7308   5.851   9.756   6.981
 2356WAT      O 7309   8.775   5.923   3.987
 2356WAT     H1 7310   8.762   5.840   3.933
 2356WAT     H2 7311   8.799   5.999   3.927
 2357WAT      O 7312   1.290   0.533   0.090
 2357WAT     H1 7313   1.277   0.615   0.146
 2357WAT     H2 7314   1.234   0.458   0.126
 2358WAT      O 7315   8.505   0.260   8.999
 2358WAT     H1 7316   8.417   0.219   8.974
 2358WAT     H2 7317   8.578   0.217   8.946
 2359WAT      O 7318   3.525   6.125   7.662
 2359WAT     H1 7319   3.595   6.074   7.611
 2359WAT     H2 7320   3.569   6.201   7.710
 2360WAT      O 7321   1.963   6.603   8.030
 2360WAT     H1 7322   1.922   6.639   8.114
 2360WAT     H2 7323   1.962   6.503   8.033
 2361WAT      O 7324   6.308   5.787   3.249
 2361WAT     H1 7325   6.289   5.758   3.343
 2361WAT     H2 7326   6.374   5.724   3.207
 2362WAT      O 7327   0.329   8.798   2.334
 2362WAT     H1 7328   0.260   8.735   2.299
 2362WAT     H2 7329   0.379   8.754   2.409
 2363WAT      O 7330   6.617   1.015   7.340
 2363WAT     H1 7331   6.631   1.016   7.241
 2363WAT     H2 7332   6.523   0.987   7.360
 2364WAT      O 7333   9.423   9.702   1.646
 2364WAT     H1 7334   9.324   9.705   1.633
 2364WAT     H2 7335   9.463   9.786   1.610
 2365WAT      O 7336   0.035   0.021   8.698
 2365WAT     H1 7337  -0.064   0.008   8.697
 2365WAT     H2 7338   0.066   0.037   8.792
 2366WAT      O 7339   2.445   8.626   6.758
 2366WAT     H1 7340   2.423   8.542   6.708
 2366WAT     H2 7341   2.542   8.647   6.747
 2367WAT      O 7342   8.337   4.889   3.753
 2367WAT     H1 7343   8.321   4.843   3.666
 2367WAT     H2 7344   8.382   4.827   3.817
 2368WAT      O 7345   7.964   9.260   6.941
 2368WAT     H1 7346   7.995   9.262   7.036
 2368WAT     H2 7347   8.039   9.231   6.882
 2369WAT      O 7348   5.296   0.227   2.952
 2369WAT     H1 7349   5.228   0.186   3.013
 2369WAT     H2 7350   5.263   0.317   2.922
 2370WAT      O 7351   6.720   1.729   3.972
 2370WAT     H1 7352   6.714   1.665   4.049
 2370WAT     H2 7353   6.800   1.708   3.917
 2371WAT      O 7354   8.338   6.815   2.219
 2371WAT     H1 7355   8.302   6.899   2.180
 2371WAT     H2 7356   8.266   6.745   2.221
 2372WAT      O 7357   8.300   0.884   7.513
 2372WAT     H1 7358   8.372   0.922   7.455
 2372WAT     H2 7359   8.211   0.919   7.483
 2373WAT      O 7360   4.445   7.748   5.202
 2373WAT     H1 7361   4.359   7.702   5.222
 2373WAT     H2 7362   4.514   7.681   5.177
 2374WAT      O 7363   1.051   0.848   9.733
 2374WAT     H1 7364   1.001   0.825   9.816
 2374WAT     H2 7365   1.015   0.934   9.695
 2375WAT      O 7366   9.250   4.732   3.937
 2375WAT     H1 7367   9.239   4.640   3.900
 2375WAT     H2 7368   9.243   4.728   4.037
 2376WAT      O 7369   5.421   9.337   0.294
 2376WAT     H1 7370   5.483   9.407   0.261
 2376WAT     H2 7371   5.470   9.250   0.301
 2377WAT      O 7372   6.654   3.888   5.071
 2377WAT     H1 7373   6.753   3.888   5.061
 2377WAT     H2 7374   6.627   3.956   5.140
 2378WAT      O 7375   5.469   1.340   3.898
 2378WAT     H1 7376   5.408   1.413   3.867
 2378WAT     H2 7377   5.534   1.319   3.826
 2379WAT      O 7378   4.413   7.716   4.553
 2379WAT     H1 7379   4.433   7.711   4.456
 2379WAT     H2 7380   4.328   7.767   4.567
 2380WAT      O 7381   5.570   2.535   1.674
 2380WAT     H1 7382   5.509   2.519   1.751
 2380WAT     H2 7383   5.617   2.450   1.649
 2381WAT      O 7384   2.643   1.341   7.611
 2381WAT     H1 7385   2.666   1.264   7.671
 2381WAT     H2 7386   2.551   1.328   7.574
 2382WAT      O 7387   5.393   0.967   0.688
 2382WAT     H1 7388   5.400   1.013   0.600
 2382WAT     H2 7389   5.453   0.887   0.689
 2383WAT      O 7390   2.350   3.717   2.676
 2383WAT     H1 7391   2.293   3.791   2.712
 2383WAT     H2 7392   2.320   3.694   2.583
 2384WAT      O 7393   5.864   1.099   1.911
 2384WAT     H1 7394   5.850   1.181   1.856
 2384WAT     H2 7395   5.921   1.121   1.991
 2385WAT      O 7396   8.290   6.133   4.471
 2385WAT     H1 7397   8.333   6.200   4.533
 2385WAT     H2 7398   8.356   6.106   4.401
 2386WAT      O 7399   8.313   0.613   7.758
 2386WAT     H1 7400   8.363   0.691   7.722
 2386WAT     H2 7401   8.217   0.638   7.772
 2387WAT      O 7402   7.199   7.158   6.723
 2387WAT     H1 7403   7.213   7.093   6.648
 2387WAT     H2 7404   7.174   7.247   6.686
 2388WAT      O 7405   8.672   3.351   0.244
 2388WAT     H1 7406   8.602   3.396   0.300
 2388WAT     H2 7407   8.715   3.418   0.184
 2389WAT      O 7408   1.943   5.952   5.735
 2389WAT     H1 7409   2.024   5.936   5.792
 2389WAT     H2 7410   1.958   6.035   5.680
 2390WAT      O 7411   4.467   5.413   4.586
 2390WAT     H1 7412   4.498   5.506   4.566
 2390WAT     H2 7413   4.493   5.353   4.511
 2391WAT      O 7414   2.419   0.159   5.174
 2391WAT     H1 7415   2.419   0.094   5.250
 2391WAT     H2 7416   2.434   0.110   5.088
 2392WAT      O 7417   1.066   3.975   4.333
 2392WAT     H1 7418   1.102   3.883   4.351
 2392WAT     H2 7419   1.055   3.988   4.235
 2393WAT      O 7420   4.129   0.680   5.064
 2393WAT     H1 7421   4.152   0.688   5.161
 2393WAT     H2 7422   4.089   0.766   5.032
 2394WAT      O 7423   5.007   6.610   2.744
 2394WAT     H1 7424   4.936   6.540   2.755
 2394WAT     H2 7425   5.080   6.594   2.811
 2395WAT      O 7426   9.653   8.473   2.629
 2395WAT     H1 7427   9.658   8.555   2.572
 2395WAT     H2 7428   9.674   8.392   2.574
 2396WAT      O 7429   8.116   4.579   1.752
 2396WAT     H1 7430   8.146   4.498   1.801
 2396WAT     H2 7431   8.053   4.553   1.678
 2397WAT      O 7432   1.213   7.285   3.107
 2397WAT     H1 7433   1.179   7.191   3.103
 2397WAT     H2 7434   1.307   7.284   3.142
 2398WAT      O 7435   5.825   0.704   0.657
 2398WAT     H1 7436   5.822   0.804   0.651
 2398WAT     H2 7437   5.852   0.677   0.750
 2399WAT      O 7438   9.860   3.185   3.384
 2399WAT     H1 7439   9.782   3.239   3.414
 2399WAT     H2 7440   9.926   3.245   3.339
 2400WAT      O 7441   4.642   0.991   5.760
 2400WAT     H1 7442   4.679   0.992   5.667
 2400WAT     H2 7443   4.715   1.008   5.825
 2401WAT      O 7444   9.622   7.743   3.510
 2401WAT     H1 7445   9.571   7.697   3.436
 2401WAT     H2 7446   9.677   7.675   3.558
 2402WAT      O 7447   8.447   4.226   1.793
 2402WAT     H1 7448   8.399   4.251   1.709
 2402WAT     H2 7449   8.493   4.137   1.780
 2403WAT      O 7450   6.818   6.296   9.807
 2403WAT     H1 7451   6.809   6.274   9.904
 2403WAT     H2 7452   6.757   6.372   9.784
 2404WAT      O 7453   8.904   6.901   9.261
 2404WAT     H1 7454   8.952   6.859   9.184
 2404WAT     H2 7455   8.964   6.905   9.340
 2405WAT      O 7456   0.677   5.713   8.154
 2405WAT     H1 7457   0.740   5.636   8.140
 2405WAT     H2 7458   0.719   5.780   8.215
 2406WAT      O 7459   5.152   5.112   1.442
 2406WAT     H1 7460   5.173   5.209   1.449
 2406WAT     H2 7461   5.204   5.072   1.367
 2407WAT      O 7462   1.687   0.587   0.687
 2407WAT     H1 7463   1.701   0.603   0.785
 2407WAT     H2 7464   1.748   0.646   0.634
 2408WAT      O 7465   6.340   0.829   6.512
 2408WAT     H1 7466   6.364   0.925   6.497
 2408WAT     H2 7467   6.308   0.817   6.606
 2409WAT      O 7468   9.692   9.634   8.062
 2409WAT     H1 7469   9.650   9.569   8.125
 2409WAT     H2 7470   9.789   9.610   8.049
 2410WAT      O 7471   4.406   7.977   1.428
 2410WAT     H1 7472   4.322   8.014   1.468
 2410WAT     H2 7473   4.443   7.906   1.489
 2411WAT      O 7474   6.116   2.610   7.983
 2411WAT     H1 7475   6.027   2.574   7.956
 2411WAT     H2 7476   6.104   2.699   8.027
 2412WAT      O 7477   8.495   0.978   5.442
 2412WAT     H1 7478   8.439   1.051   5.403
 2412WAT     H2 7479   8.498   0.900   5.379
 2413WAT      O 7480   0.692   2.649   5.094
 2413WAT     H1 7481   0.612   2.644   5.155
 2413WAT     H2 7482   0.718   2.556   5.066
 2414WAT      O 7483   2.485   6.628   6.044
 2414WAT     H1 7484   2.397   6.674   6.060
 2414WAT     H2 7485   2.545   6.645   6.122
 2415WAT      O 7486   8.009   1.937   0.075
 2415WAT     H1 7487   8.090   1.887   0.106
 2415WAT     H2 7488   7.985   1.909  -0.018
 2416WAT      O 7489   6.372   9.722   5.173
 2416WAT     H1 7490   6.315   9.655   5.125
 2416WAT     H2 7491   6.449   9.676   5.217
 2417WAT      O 7492   8.302   8.930   4.061
 2417WAT     H1 7493   8.203   8.935   4.068
 2417WAT     H2 7494   8.328   8.900   3.969
 2418WAT      O 7495   8.437   7.698   4.794
 2418WAT     H1 7496   8.361   7.726   4.851
 2418WAT     H2 7497   8.523   7.719   4.840
 2419WAT      O 7498   9.747   0.258   7.107
 2419WAT     H1 7499   9.693   0.322   7.052
 2419WAT     H2 7500   9.781   0.184   7.049
 2420WAT      O 7501   9.882   0.382   8.963
 2420WAT     H1 7502   9.819   0.384   8.885
 2420WAT     H2 7503   9.960   0.442   8.945
 2421WAT      O 7504   8.933   5.001   7.555
 2421WAT     H1 7505   8.876   5.027   7.633
 2421WAT     H2 7506   9.026   4.983   7.587
 2422WAT      O 7507   6.745   9.304   4.838
 2422WAT     H1 7508   6.705   9.333   4.925
 2422WAT     H2 7509   6.769   9.207   4.844
 2423WAT      O 7510   3.508   0.813   5.375
 2423WAT     H1 7511   3.554   0.902   5.373
 2423WAT     H2 7512   3.544   0.755   5.303
 2424WAT      O 7513   4.865   5.713   7.441
 2424WAT     H1 7514   4.869   5.812   7.438
 2424WAT     H2 7515   4.949   5.677   7.481
 2425WAT      O 7516   9.069   4.179   4.086
 2425WAT     H1 7517   9.020   4.264   4.104
 2425WAT     H2 7518   9.009   4.116   4.036
 2426WAT      O 7519   6.630   2.248   7.122
 2426WAT     H1 7520   6.709   2.299   7.157
 2426WAT     H2 7521   6.556   2.253   7.189
 2427WAT      O 7522   2.210   2.943   4.053
 2427WAT     H1 7523   2.182   2.855   4.091
 2427WAT     H2 7524   2.259   2.928   3.967
 2428WAT      O 7525   9.239   7.261   8.068
 2428WAT     H1 7526   9.238   7.255   8.168
 2428WAT     H2 7527   9.177   7.193   8.029
 2429WAT      O 7528   2.809   9.499   2.838
 2429WAT     H1 7529   2.818   9.566   2.911
 2429WAT     H2 7530   2.848   9.537   2.754
 2430WAT      O 7531   7.781   2.194   3.808
 2430WAT     H1 7532   7.726   2.140   3.745
 2430WAT     H2 7533   7.754   2.290   3.804
 2431WAT      O 7534   1.304   8.556   2.018
 2431WAT     H1 7535   1.315   8.592   1.926
 2431WAT     H2 7536   1.233   8.608   2.066
 2432WAT      O 7537   0.156   7.812   2.448
 2432WAT     H1 7538   0.059   7.808   2.473
 2432WAT     H2 7539   0.166   7.791   2.351
 2433WAT      O 7540   8.179   0.136   3.249
 2433WAT     H1 7541   8.182   0.065   3.179
 2433WAT     H2 7542   8.152   0.095   3.336
 2434WAT      O 7543   5.150   2.194   9.293
 2434WAT     H1 7544   5.239   2.209   9.249
 2434WAT     H2 7545   5.164   2.153   9.383
 2435WAT      O 7546   7.698   1.147   3.576
 2435WAT     H1 7547   7.719   1.049   3.574
 2435WAT     H2 7548   7.768   1.195   3.629
 2436WAT      O 7549   5.522   5.523   8.239
 2436WAT     H1 7550   5.423   5.524   8.252
 2436WAT     H2 7551   5.544   5.554   8.147
 2437WAT      O 7552   2.655   0.754   2.617
 2437WAT     H1 7553   2.628   0.686   2.685
 2437WAT     H2 7554   2.754   0.769   2.624
 2438WAT      O 7555   6.382   8.934   4.014
 2438WAT     H1 7556   6.423   8.949   4.104
 2438WAT     H2 7557   6.375   9.021   3.966
 2439WAT      O 7558   3.976   1.054   8.924
 2439WAT     H1 7559   3.944   1.025   8.834
 2439WAT     H2 7560   3.953   0.984   8.991
 2440WAT      O 7561   1.556   6.334   8.565
 2440WAT     H1 7562   1.517   6.359   8.654
 2440WAT     H2 7563   1.619   6.405   8.535
 2441WAT      O 7564   8.300   3.050   3.759
 2441WAT     H1 7565   8.245   3.100   3.826
 2441WAT     H2 7566   8.384   3.101   3.741
 2442WAT      O 7567   6.615   5.407   1.171
 2442WAT     H1 7568   6.662   5.448   1.093
 2442WAT     H2 7569   6.609   5.308   1.157
 2443WAT      O 7570   3.946   2.483   3.325
 2443WAT     H1 7571   3.901   2.572   3.329
 2443WAT     H2 7572   4.002   2.477   3.242
 2444WAT      O 7573   3.881   6.617   1.007
 2444WAT     H1 7574   3.813   6.589   1.075
 2444WAT     H2 7575   3.841   6.687   0.947
 2445WAT      O 7576   4.211   9.106   6.268
 2445WAT     H1 7577   4.240   9.077   6.177
 2445WAT     H2 7578   4.270   9.179   6.300
 2446WAT      O 7579   1.359   6.811   8.660
 2446WAT     H1 7580   1.304   6.863   8.596
 2446WAT     H2 7581   1.312   6.805   8.748
 2447WAT      O 7582   1.551   1.996   4.447
 2447WAT     H1 7583   1.620   1.937   4.489
 2447WAT     H2 7584   1.522   1.957   4.360
 2448WAT      O 7585   2.578   0.389   6.385
 2448WAT     H1 7586   2.546   0.309   6.437
 2448WAT     H2 7587   2.570   0.369   6.287
 2449WAT      O 7588   9.816   7.610   7.269
 2449WAT     H1 7589   9.857   7.519   7.264
 2449WAT     H2 7590   9.837   7.651   7.358
 2450WAT      O 7591   0.995   0.116   6.674
 2450WAT     H1 7592   1.007   0.202   6.624
 2450WAT     H2 7593   0.910   0.072   6.645
 2451WAT      O 7594   3.297   5.808   8.484
 2451WAT     H1 7595   3.389   5.846   8.483
 2451WAT     H2 7596   3.302   5.708   8.474
 2452WAT      O 7597   6.267   4.037   8.155
 2452WAT     H1 7598   6.229   4.106   8.094
 2452WAT     H2 7599   6.354   4.005   8.119
 2453WAT      O 7600   8.569   3.484   3.343
 2453WAT     H1 7601   8.479   3.502   3.304
 2453WAT     H2 7602   8.602   3.395   3.312
 2454WAT      O 7603   3.233   5.982   4.551
 2454WAT     H1 7604   3.169   5.959   4.477
 2454WAT     H2 7605   3.276   6.070   4.531
 2455WAT      O 7606   5.943   0.780   8.745
 2455WAT     H1 7607   6.038   0.811   8.748
 2455WAT     H2 7608   5.887   0.838   8.804
 2456WAT      O 7609   9.161   0.636   1.089
 2456WAT     H1 7610   9.071   0.615   1.127
 2456WAT     H2 7611   9.202   0.552   1.053
 2457WAT      O 7612   4.233   2.792   5.633
 2457WAT     H1 7613   4.254   2.890   5.623
 2457WAT     H2 7614   4.150   2.771   5.582
 2458WAT      O 7615   1.801   8.760   4.291
 2458WAT     H1 7616   1.781   8.853   4.260
 2458WAT     H2 7617   1.822   8.703   4.211
 2459WAT      O 7618   6.843   2.863   2.620
 2459WAT     H1 7619   6.921   2.889   2.562
 2459WAT     H2 7620   6.758   2.898   2.580
 2460WAT      O 7621   6.588   4.800   8.763
 2460WAT     H1 7622   6.598   4.829   8.858
 2460WAT     H2 7623   6.622   4.872   8.702
 2461WAT      O 7624   1.550   3.718   9.493
 2461WAT     H1 7625   1.616   3.652   9.457
 2461WAT     H2 7626   1.570   3.809   9.456
 2462WAT      O 7627   8.564   8.432   4.807
 2462WAT     H1 7628   8.472   8.413   4.774
 2462WAT     H2 7629   8.560   8.500   4.880
 2463WAT      O 7630   9.885   4.374   0.424
 2463WAT     H1 7631   9.860   4.294   0.370
 2463WAT     H2 7632   9.864   4.358   0.521
 2464WAT      O 7633   4.764   7.978   2.607
 2464WAT     H1 7634   4.749   8.006   2.702
 2464WAT     H2 7635   4.707   7.899   2.586
 2465WAT      O 7636   0.296   9.157   1.511
 2465WAT     H1 7637   0.387   9.185   1.543
 2465WAT     H2 7638   0.295   9.155   1.411
 2466WAT      O 7639   6.854   8.632   6.709
 2466WAT     H1 7640   6.911   8.605   6.786
 2466WAT     H2 7641   6.910   8.683   6.643
 2467WAT      O 7642   3.623   9.152   3.564
 2467WAT     H1 7643   3.609   9.240   3.610
 2467WAT     H2 7644   3.690   9.163   3.490
 2468WAT      O 7645   2.296   1.246   5.584
 2468WAT     H1 7646   2.304   1.149   5.559
 2468WAT     H2 7647   2.229   1.256   5.657
 2469WAT      O 7648   9.281   9.337   3.979
 2469WAT     H1 7649   9.352   9.300   4.039
 2469WAT     H2 7650   9.207   9.375   4.036
 2470WAT      O 7651   6.396   2.117   0.972
 2470WAT     H1 7652   6.456   2.182   0.926
 2470WAT     H2 7653   6.310   2.109   0.922
 2471WAT      O 7654   5.835   5.904   3.152
 2471WAT     H1 7655   5.871   5.812   3.170
 2471WAT     H2 7656   5.746   5.897   3.108
 2472WAT      O 7657   7.820   5.262   4.529
 2472WAT     H1 7658   7.898   5.295   4.582
 2472WAT     H2 7659   7.779   5.338   4.478
 2473WAT      O 7660   1.588   3.669   7.090
 2473WAT     H1 7661   1.550   3.722   7.166
 2473WAT     H2 7662   1.575   3.718   7.004
 2474WAT      O 7663   8.474   0.527   8.921
 2474WAT     H1 7664   8.569   0.554   8.905
 2474WAT     H2 7665   8.472   0.439   8.968
 2475WAT      O 7666   6.679   8.044   3.285
 2475WAT     H1 7667   6.680   8.140   3.311
 2475WAT     H2 7668   6.757   8.024   3.225
 2476WAT      O 7669   1.571   4.693   6.030
 2476WAT     H1 7670   1.577   4.638   6.114
 2476WAT     H2 7671   1.496   4.758   6.038
 2477WAT      O 7672   7.171   9.542   9.299
 2477WAT     H1 7673   7.131   9.450   9.289
 2477WAT     H2 7674   7.149   9.597   9.219
 2478WAT      O 7675   5.139   4.542   1.995
 2478WAT     H1 7676   5.052   4.514   1.954
 2478WAT     H2 7677   5.138   4.641   2.010
 2479WAT      O 7678   4.371   7.634   2.060
 2479WAT     H1 7679   4.372   7.679   1.971
 2479WAT     H2 7680   4.420   7.547   2.055
 2480WAT      O 7681   1.990   2.459   6.282
 2480WAT     H1 7682   1.928   2.463   6.204
 2480WAT     H2 7683   2.070   2.404   6.259
 2481WAT      O 7684   3.408   2.992   9.203
 2481WAT     H1 7685   3.439   2.914   9.149
 2481WAT     H2 7686   3.336   2.963   9.266
 2482WAT      O 7687   4.103   1.305   4.934
 2482WAT     H1 7688   4.083   1.352   5.020
 2482WAT     H2 7689   4.020   1.258   4.902
 2483WAT      O 7690   6.553   3.359   6.304
 2483WAT     H1 7691   6.469   3.310   6.280
 2483WAT     H2 7692   6.632   3.301   6.286
 2484WAT      O 7693   1.211   3.643   2.788
 2484WAT     H1 7694   1.215   3.645   2.688
 2484WAT     H2 7695   1.236   3.552   2.820
 2485WAT      O 7696   8.547   7.430   0.104
 2485WAT     H1 7697   8.489   7.382   0.039
 2485WAT     H2 7698   8.576   7.368   0.177
 2486WAT      O 7699   3.309   1.985   4.756
 2486WAT     H1 7700   3.303   1.985   4.656
 2486WAT     H2 7701   3.314   2.079   4.790
 2487WAT      O 7702   9.051   2.240   0.989
 2487WAT     H1 7703   8.955   2.227   0.965
 2487WAT     H2 7704   9.087   2.321   0.942
 2488WAT      O 7705   3.982   3.453   4.947
 2488WAT     H1 7706   3.946   3.361   4.960
 2488WAT     H2 7707   3.991   3.471   4.849
 2489WAT      O 7708   6.067   8.879   6.661
 2489WAT     H1 7709   6.017   8.800   6.695
 2489WAT     H2 7710   6.124   8.852   6.583
 2490WAT      O 7711   2.086   5.399   3.544
 2490WAT     H1 7712   2.097   5.472   3.611
 2490WAT     H2 7713   2.042   5.435   3.461
 2491WAT      O 7714   2.630   1.998   3.709
 2491WAT     H1 7715   2.638   1.962   3.616
 2491WAT     H2 7716   2.704   1.961   3.766
 2492WAT      O 7717   6.587   7.094   9.058
 2492WAT     H1 7718   6.591   7.012   9.001
 2492WAT     H2 7719   6.494   7.130   9.059
 2493WAT      O 7720   6.040   2.571   3.869
 2493WAT     H1 7721   6.061   2.475   3.849
 2493WAT     H2 7722   5.941   2.583   3.872
 2494WAT      O 7723   1.544   2.580   0.285
 2494WAT     H1 7724   1.621   2.523   0.310
 2494WAT     H2 7725   1.508   2.551   0.196
 2495WAT      O 7726   3.873   1.418   1.422
 2495WAT     H1 7727   3.828   1.436   1.334
 2495WAT     H2 7728   3.810   1.436   1.497
 2496WAT      O 7729   9.043   6.633   1.498
 2496WAT     H1 7730   9.054   6.719   1.448
 2496WAT     H2 7731   9.057   6.649   1.595
 2497WAT      O 7732   0.787   1.446   7.567
 2497WAT     H1 7733   0.861   1.442   7.500
 2497WAT     H2 7734   0.707   1.490   7.527
 2498WAT      O 7735   3.784   8.438   4.349
 2498WAT     H1 7736   3.792   8.537   4.352
 2498WAT     H2 7737   3.816   8.399   4.436
 2499WAT      O 7738   5.027   1.559   7.768
 2499WAT     H1 7739   5.011   1.586   7.863
 2499WAT     H2 7740   4.957   1.494   7.739
 2500WAT      O 7741   3.275   2.996   8.376
 2500WAT     H1 7742   3.354   3.043   8.415
 2500WAT     H2 7743   3.237   2.934   8.444
 2501WAT      O 7744   0.005   5.925   5.117
 2501WAT     H1 7745  -0.092   5.903   5.104
 2501WAT     H2 7746   0.057   5.841   5.129
 2502WAT      O 7747   7.618   9.801   1.574
 2502WAT     H1 7748   7.587   9.822   1.481
 2502WAT     H2 7749   7.713   9.829   1.584
 2503WAT      O 7750   8.443   3.174   7.327
 2503WAT     H1 7751   8.505   3.227   7.269
 2503WAT     H2 7752   8.349   3.183   7.293
 2504WAT      O 7753   7.451   7.581   8.934
 2504WAT     H1 7754   7.475   7.516   9.006
 2504WAT     H2 7755   7.509   7.564   8.854
 2505WAT      O 7756   2.535   2.185   0.585
 2505WAT     H1 7757   2.472   2.231   0.648
 2505WAT     H2 7758   2.582   2.112   0.633
 2506WAT      O 7759   9.764   1.968   3.717
 2506WAT     H1 7760   9.694   1.899   3.735
 2506WAT     H2 7761   9.854   1.926   3.723
 2507WAT      O 7762   0.405   2.169   8.433
 2507WAT     H1 7763   0.457   2.095   8.478
 2507WAT     H2 7764   0.393   2.147   8.336
 2508WAT      O 7765   1.203   4.371   5.466
 2508WAT     H1 7766   1.155   4.398   5.549
 2508WAT     H2 7767   1.156   4.409   5.386
 2509WAT      O 7768   7.047   4.203   3.140
 2509WAT     H1 7769   7.026   4.111   3.173
 2509WAT     H2 7770   6.964   4.258   3.137
 2510WAT      O 7771   9.090   8.351   6.039
 2510WAT     H1 7772   9.157   8.277   6.048
 2510WAT     H2 7773   9.138   8.439   6.044
 2511WAT      O 7774   4.344   8.453   9.079
 2511WAT     H1 7775   4.408   8.421   9.009
 2511WAT     H2 7776   4.372   8.544   9.111
 2512WAT      O 7777   9.363   6.647   6.827
 2512WAT     H1 7778   9.390   6.568   6.882
 2512WAT     H2 7779   9.399   6.637   6.734
 2513WAT      O 7780   2.781   5.756   4.192
 2513WAT     H1 7781   2.697   5.718   4.153
 2513WAT     H2 7782   2.860   5.714   4.148
 2514WAT      O 7783   6.256   5.156   1.076
 2514WAT     H1 7784   6.173   5.116   1.114
 2514WAT     H2 7785   6.236   5.247   1.040
 2515WAT      O 7786   0.837   6.768   3.246
 2515WAT     H1 7787   0.840   6.844   3.310
 2515WAT     H2 7788   0.796   6.688   3.290
 2516WAT      O 7789   4.084   0.918   7.885
 2516WAT     H1 7790   4.109   0.980   7.959
 2516WAT     H2 7791   4.147   0.841   7.884
 2517WAT      O 7792   5.145   4.024   6.086
 2517WAT     H1 7793   5.062   3.991   6.131
 2517WAT     H2 7794   5.177   4.107   6.133
 2518WAT      O 7795   3.681   1.093   0.365
 2518WAT     H1 7796   3.777   1.097   0.393
 2518WAT     H2 7797   3.624   1.078   0.446
 2519WAT      O 7798   6.937   4.044   8.559
 2519WAT     H1 7799   6.840   4.023   8.551
 2519WAT     H2 7800   6.985   3.966   8.599
 2520WAT      O 7801   6.265   6.875   0.340
 2520WAT     H1 7802   6.207   6.924   0.274
 2520WAT     H2 7803   6.209   6.846   0.418
 2521WAT      O 7804   2.528   2.548   6.067
 2521WAT     H1 7805   2.592   2.572   5.994
 2521WAT     H2 7806   2.577   2.501   6.140
 2522WAT      O 7807   5.242   6.195   1.113
 2522WAT     H1 7808   5.324   6.149   1.147
 2522WAT     H2 7809   5.165   6.130   1.115
 2523WAT      O 7810   5.462   1.689   7.866
 2523WAT     H1 7811   5.393   1.678   7.795
 2523WAT     H2 7812   5.434   1.764   7.927
 2524WAT      O 7813   0.686   9.151   0.165
 2524WAT     H1 7814   0.608   9.109   0.211
 2524WAT     H2 7815   0.758   9.172   0.232
 2525WAT      O 7816   6.151   7.262   1.195
 2525WAT     H1 7817   6.150   7.361   1.211
 2525WAT     H2 7818   6.057   7.230   1.178
 2526WAT      O 7819   5.347   9.482   1.480
 2526WAT     H1 7820   5.414   9.409   1.471
 2526WAT     H2 7821   5.255   9.443   1.490
 2527WAT      O 7822   2.272   6.192   2.170
 2527WAT     H1 7823   2.340   6.206   2.097
 2527WAT     H2 7824   2.309   6.225   2.257
 2528WAT      O 7825   6.482   7.865   9.146
 2528WAT     H1 7826   6.521   7.812   9.222
 2528WAT     H2 7827   6.501   7.962   9.160
 2529WAT      O 7828   5.210   2.244   4.186
 2529WAT     H1 7829   5.285   2.310   4.175
 2529WAT     H2 7830   5.141   2.259   4.116
 2530WAT      O 7831   7.371   0.904   4.330
 2530WAT     H1 7832   7.462   0.866   4.312
 2530WAT     H2 7833   7.364   0.930   4.426
 2531WAT      O 7834   3.483   8.182   5.704
 2531WAT     H1 7835   3.423   8.257   5.675
 2531WAT     H2 7836   3.559   8.219   5.757
 2532WAT      O 7837   1.225   1.534   6.262
 2532WAT     H1 7838   1.162   1.590   6.316
 2532WAT     H2 7839   1.311   1.523   6.311
 2533WAT      O 7840   1.638   4.669   0.104
 2533WAT     H1 7841   1.720   4.639   0.153
 2533WAT     H2 7842   1.665   4.728   0.028
 2534WAT      O 7843   9.751   3.656   5.602
 2534WAT     H1 7844   9.844   3.618   5.603
 2534WAT     H2 7845   9.755   3.753   5.626
 2535WAT      O 7846   4.741   8.299   8.694
 2535WAT     H1 7847   4.824   8.346   8.665
 2535WAT     H2 7848   4.662   8.340   8.649
 2536WAT      O 7849   4.987   2.858   9.018
 2536WAT     H1 7850   4.926   2.924   8.973
 2536WAT     H2 7851   4.962   2.765   8.990
 2537WAT      O 7852   5.176   9.412   0.623
 2537WAT     H1 7853   5.227   9.326   0.617
 2537WAT     H2 7854   5.220   9.472   0.690
 2538WAT      O 7855   9.630   5.652   1.337
 2538WAT     H1 7856   9.728   5.639   1.324
 2538WAT     H2 7857   9.584   5.563   1.333
 2539WAT      O 7858   0.918   0.782   1.711
 2539WAT     H1 7859   0.826   0.820   1.706
 2539WAT     H2 7860   0.939   0.733   1.627
 2540WAT      O 7861   5.971   2.626   3.546
 2540WAT     H1 7862   5.935   2.565   3.474
 2540WAT     H2 7863   5.912   2.620   3.626
 2541WAT      O 7864   0.926   4.296   6.819
 2541WAT     H1 7865   0.913   4.274   6.916
 2541WAT     H2 7866   1.014   4.342   6.806
 2542WAT      O 7867   4.975   6.670   6.712
 2542WAT     H1 7868   5.011   6.718   6.792
 2542WAT     H2 7869   5.040   6.676   6.636
 2543WAT      O 7870   9.291   6.670   4.512
 2543WAT     H1 7871   9.230   6.735   4.558
 2543WAT     H2 7872   9.289   6.687   4.414
 2544WAT      O 7873   7.952   5.184   3.324
 2544WAT     H1 7874   7.933   5.280   3.345
 2544WAT     H2 7875   7.866   5.134   3.318
 2545WAT      O 7876   9.758   7.955   1.738
 2545WAT     H1 7877   9.718   7.983   1.651
 2545WAT     H2 7878   9.753   7.855   1.747
 2546WAT      O 7879   8.047   1.790   0.637
 2546WAT     H1 7880   7.995   1.842   0.569
 2546WAT     H2 7881   7.990   1.776   0.718
 2547WAT      O 7882   6.709   8.764   9.334
 2547WAT     H1 7883   6.753   8.744   9.422
 2547WAT     H2 7884   6.746   8.849   9.297
 2548WAT      O 7885   8.058   0.681   7.813
 2548WAT     H1 7886   8.033   0.722   7.725
 2548WAT     H2 7887   8.009   0.594   7.824
 2549WAT      O 7888   6.160   3.203   7.593
 2549WAT     H1 7889   6.129   3.127   7.650
 2549WAT     H2 7890   6.184   3.281   7.651
 2550WAT      O 7891   6.610   7.551   4.869
 2550WAT     H1 7892   6.606   7.601   4.783
 2550WAT     H2 7893   6.580   7.457   4.854
 2551WAT      O 7894   2.050   6.786   4.321
 2551WAT     H1 7895   2.083   6.800   4.227
 2551WAT     H2 7896   2.112   6.725   4.369
 2552WAT      O 7897   1.410   7.098   9.824
 2552WAT     H1 7898   1.379   7.193   9.831
 2552WAT     H2 7899   1.331   7.038   9.821
 2553WAT      O 7900   7.978   1.910   2.657
 2553WAT     H1 7901   7.922   1.947   2.731
 2553WAT     H2 7902   8.066   1.958   2.654
 2554WAT      O 7903   7.754   6.415   7.425
 2554WAT     H1 7904   7.821   6.384   7.492
 2554WAT     H2 7905   7.697   6.339   7.397
 2555WAT      O 7906   3.240   7.961   2.671
 2555WAT     H1 7907   3.239   7.940   2.769
 2555WAT     H2 7908   3.330   7.936   2.634
 2556WAT      O 7909   1.596   7.392   9.014
 2556WAT     H1 7910   1.530   7.437   8.954
 2556WAT     H2 7911   1.645   7.321   8.962
 2557WAT      O 7912   0.819   7.285   7.021
 2557WAT     H1 7913   0.737   7.248   6.977
 2557WAT     H2 7914   0.900   7.240   6.984
 2558WAT      O 7915   2.314   4.095   6.038
 2558WAT     H1 7916   2.300   4.033   6.116
 2558WAT     H2 7917   2.296   4.046   5.953
 2559WAT      O 7918   6.017   5.033   1.653
 2559WAT     H1 7919   6.086   5.058   1.585
 2559WAT     H2 7920   6.000   5.112   1.712
 2560WAT      O 7921   6.870   5.257   2.090
 2560WAT     H1 7922   6.796   5.323   2.090
 2560WAT     H2 7923   6.955   5.301   2.119
 2561WAT      O 7924   1.201   1.749   0.261
 2561WAT     H1 7925   1.245   1.661   0.243
 2561WAT     H2 7926   1.264   1.808   0.312
 2562WAT      O 7927   1.320   8.522   7.016
 2562WAT     H1 7928   1.276   8.514   7.106
 2562WAT     H2 7929   1.400   8.462   7.013
 2563WAT      O 7930   0.542   9.630   7.156
 2563WAT     H1 7931   0.612   9.700   7.166
 2563WAT     H2 7932   0.580   9.541   7.181
 2564WAT      O 7933   3.444   5.108   6.529
 2564WAT     H1 7934   3.463   5.149   6.618
 2564WAT     H2 7935   3.528   5.065   6.494
 2565WAT      O 7936   0.635   3.595   7.273
 2565WAT     H1 7937   0.725   3.564   7.242
 2565WAT     H2 7938   0.582   3.517   7.304
 2566WAT      O 7939   8.801   4.851   0.141
 2566WAT     H1 7940   8.830   4.945   0.160
 2566WAT     H2 7941   8.745   4.849   0.059
 2567WAT      O 7942   7.288   4.631   6.193
 2567WAT     H1 7943   7.228   4.670   6.124
 2567WAT     H2 7944   7.234   4.574   6.255
 2568WAT      O 7945   3.693   6.539   0.811
 2568WAT     H1 7946   3.776   6.551   0.865
 2568WAT     H2 7947   3.656   6.447   0.827
 2569WAT      O 7948   9.380   3.688   3.875
 2569WAT     H1 7949   9.298   3.692   3.818
 2569WAT     H2 7950   9.391   3.597   3.913
 2570WAT      O 7951   9.184   7.898   7.133
 2570WAT     H1 7952   9.117   7.956   7.179
 2570WAT     H2 7953   9.276   7.924   7.160
 2571WAT      O 7954   4.838   0.983   6.602
 2571WAT     H1 7955   4.862   1.004   6.507
 2571WAT     H2 7956   4.793   1.062   6.643
 2572WAT      O 7957   7.953   7.124   1.327
 2572WAT     H1 7958   8.033   7.114   1.387
 2572WAT     H2 7959   7.983   7.132   1.232
 2573WAT      O 7960   0.440   6.670   6.171
 2573WAT     H1 7961   0.428   6.585   6.121
 2573WAT     H2 7962   0.537   6.693   6.174
 2574WAT      O 7963   8.431   4.111   6.305
 2574WAT     H1 7964   8.350   4.058   6.280
 2574WAT     H2 7965   8.422   4.142   6.399
 2575WAT      O 7966   3.722   3.715   4.227
 2575WAT     H1 7967   3.791   3.663   4.275
 2575WAT     H2 7968   3.764   3.760   4.148
 2576WAT      O 7969   9.029   7.038   3.881
 2576WAT     H1 7970   9.009   6.941   3.869
 2576WAT     H2 7971   9.049   7.079   3.793
 2577WAT      O 7972   9.166   5.242   9.157
 2577WAT     H1 7973   9.121   5.159   9.125
 2577WAT     H2 7974   9.123   5.321   9.115
 2578WAT      O 7975   3.981   7.303   0.127
 2578WAT     H1 7976   3.986   7.371   0.053
 2578WAT     H2 7977   3.942   7.218   0.092
 2579WAT      O 7978   0.199   5.408   4.048
 2579WAT     H1 7979   0.269   5.337   4.051
 2579WAT     H2 7980   0.209   5.461   3.964
 2580WAT      O 7981   2.896   6.809   7.884
 2580WAT     H1 7982   2.878   6.885   7.947
 2580WAT     H2 7983   2.985   6.822   7.841
 2581WAT      O 7984   4.166   5.301   3.711
 2581WAT     H1 7985   4.086   5.241   3.711
 2581WAT     H2 7986   4.167   5.356   3.627
 2582WAT      O 7987   3.652   2.008   6.810
 2582WAT     H1 7988   3.600   1.996   6.726
 2582WAT     H2 7989   3.624   2.093   6.855
 2583WAT      O 7990   5.446   7.519   1.585
 2583WAT     H1 7991   5.503   7.600   1.603
 2583WAT     H2 7992   5.465   7.486   1.493
 2584WAT      O 7993   5.050   1.687   5.363
 2584WAT     H1 7994   5.044   1.745   5.282
 2584WAT     H2 7995   4.970   1.703   5.421
 2585WAT      O 7996   0.571   7.028   1.689
 2585WAT     H1 7997   0.475   7.044   1.710
 2585WAT     H2 7998   0.624   7.023   1.773
 2586WAT      O 7999   7.666   6.234   2.462
 2586WAT     H1 8000   7.604   6.168   2.503
 2586WAT     H2 8001   7.759   6.219   2.495
 2587WAT      O 8002   4.029   7.513   3.557
 2587WAT     H1 8003   4.098   7.462   3.608
 2587WAT     H2 8004   3.940   7.468   3.567
 2588WAT      O 8005   3.295   3.993   6.599
 2588WAT     H1 8006   3.328   4.005   6.506
 2588WAT     H2 8007   3.338   4.062   6.658
 2589WAT      O 8008   8.847   6.119   5.526
 2589WAT     H1 8009   8.923   6.179   5.501
 2589WAT     H2 8010   8.882   6.030   5.556
 2590WAT      O 8011   0.707   5.920   3.577
 2590WAT     H1 8012   0.681   5.921   3.673
 2590WAT     H2 8013   0.799   5.958   3.567
 2591WAT      O 8014   6.136   7.185   4.051
 2591WAT     H1 8015   6.103   7.279   4.057
 2591WAT     H2 8016   6.114   7.146   3.961
 2592WAT      O 8017   8.363   7.310   7.550
 2592WAT     H1 8018   8.298   7.249   7.505
 2592WAT     H2 8019   8.318   7.397   7.571
 2593WAT      O 8020   9.758   1.672   6.254
 2593WAT     H1 8021   9.843   1.660   6.306
 2593WAT     H2 8022   9.735   1.587   6.207
 2594WAT      O 8023   2.192   7.689   9.705
 2594WAT     H1 8024   2.166   7.668   9.799
 2594WAT     H2 8025   2.147   7.625   9.643
 2595WAT      O 8026   9.317   4.087   9.072
 2595WAT     H1 8027   9.390   4.140   9.116
 2595WAT     H2 8028   9.355   4.003   9.033
 2596WAT      O 8029   8.443   0.842   3.878
 2596WAT     H1 8030   8.409   0.750   3.892
 2596WAT     H2 8031   8.443   0.863   3.780
 2597WAT      O 8032   1.790   4.824   6.846
 2597WAT     H1 8033   1.784   4.725   6.834
 2597WAT     H2 8034   1.737   4.869   6.774
 2598WAT      O 8035   1.689   2.877   0.590
 2598WAT     H1 8036   1.707   2.865   0.493
 2598WAT     H2 8037   1.590   2.869   0.607
 2599WAT      O 8038   4.688   9.134   5.520
 2599WAT     H1 8039   4.588   9.136   5.517
 2599WAT     H2 8040   4.718   9.086   5.602
 2600WAT      O 8041   5.627   6.506   8.294
 2600WAT     H1 8042   5.637   6.605   8.293
 2600WAT     H2 8043   5.631   6.471   8.200
 2601WAT      O 8044   1.452   9.210   3.925
 2601WAT     H1 8045   1.440   9.200   3.826
 2601WAT     H2 8046   1.372   9.257   3.963
 2602WAT      O 8047   0.069   7.356   7.240
 2602WAT     H1 8048   0.026   7.272   7.206
 2602WAT     H2 8049   0.123   7.334   7.322
 2603WAT      O 8050   6.160   2.439   2.538
 2603WAT     H1 8051   6.179   2.350   2.579
 2603WAT     H2 8052   6.151   2.428   2.438
 2604WAT      O 8053   8.511   0.048   0.577
 2604WAT     H1 8054   8.579   0.101   0.526
 2604WAT     H2 8055   8.541   0.038   0.672
 2605WAT      O 8056   1.336   5.373   5.897
 2605WAT     H1 8057   1.425   5.360   5.853
 2605WAT     H2 8058   1.264   5.371   5.828
 2606WAT      O 8059   6.457   7.895   3.259
 2606WAT     H1 8060   6.385   7.935   3.316
 2606WAT     H2 8061   6.543   7.944   3.276
 2607WAT      O 8062   7.166   0.542   3.751
 2607WAT     H1 8063   7.252   0.592   3.740
 2607WAT     H2 8064   7.092   0.607   3.771
 2608WAT      O 8065   7.329   2.138   8.582
 2608WAT     H1 8066   7.258   2.157   8.649
 2608WAT     H2 8067   7.392   2.215   8.575
 2609WAT      O 8068   5.695   6.357   1.359
 2609WAT     H1 8069   5.738   6.447   1.361
 2609WAT     H2 8070   5.597   6.366   1.378
 2610WAT      O 8071   1.017   0.222   7.968
 2610WAT     H1 8072   1.036   0.140   8.022
 2610WAT     H2 8073   0.966   0.197   7.886
 2611WAT      O 8074   5.057   9.390   5.881
 2611WAT     H1 8075   5.143   9.440   5.886
 2611WAT     H2 8076   5.004   9.423   5.803
 2612WAT      O 8077   9.164   3.412   5.059
 2612WAT     H1 8078   9.188   3.441   4.966
 2612WAT     H2 8079   9.089   3.469   5.093
 2613WAT      O 8080   5.065   0.305   4.295
 2613WAT     H1 8081   5.047   0.268   4.204
 2613WAT     H2 8082   4.979   0.309   4.346
 2614WAT      O 8083   8.105   8.941   9.796
 2614WAT     H1 8084   8.054   9.014   9.839
 2614WAT     H2 8085   8.056   8.910   9.714
 2615WAT      O 8086   3.632   3.984   5.972
 2615WAT     H1 8087   3.571   3.966   6.049
 2615WAT     H2 8088   3.578   3.988   5.887
 2616WAT      O 8089   6.990   6.772   6.387
 2616WAT     H1 8090   7.035   6.765   6.298
 2616WAT     H2 8091   7.035   6.844   6.441
 2617WAT      O 8092   3.670   1.829   9.761
 2617WAT     H1 8093   3.722   1.813   9.677
 2617WAT     H2 8094   3.672   1.926   9.785
 2618WAT      O 8095   4.857   0.406   6.087
 2618WAT     H1 8096   4.928   0.339   6.063
 2618WAT     H2 8097   4.879   0.493   6.044
 2619WAT      O 8098   9.497   0.146   6.474
 2619WAT     H1 8099   9.454   0.115   6.390
 2619WAT     H2 8100   9.531   0.067   6.526
 2620WAT      O 8101   2.958   8.362   0.150
 2620WAT     H1 8102   2.918   8.294   0.212
 2620WAT     H2 8103   2.943   8.454   0.187
 2621WAT      O 8104   4.947   9.768   0.318
 2621WAT     H1 8105   4.853   9.794   0.341
 2621WAT     H2 8106   5.001   9.764   0.402
 2622WAT      O 8107   0.780   6.262   6.833
 2622WAT     H1 8108   0.733   6.345   6.803
 2622WAT     H2 8109   0.720   6.183   6.817
 2623WAT      O 8110   7.681   4.845   0.555
 2623WAT     H1 8111   7.712   4.788   0.632
 2623WAT     H2 8112   7.731   4.932   0.556
 2624WAT      O 8113   3.397   1.172   9.048
 2624WAT     H1 8114   3.476   1.188   8.989
 2624WAT     H2 8115   3.410   1.086   9.098
 2625WAT      O 8116   4.249   9.604   1.553
 2625WAT     H1 8117   4.249   9.671   1.479
 2625WAT     H2 8118   4.174   9.625   1.616
 2626WAT      O 8119   3.275   7.218   9.706
 2626WAT     H1 8120   3.191   7.185   9.663
 2626WAT     H2 8121   3.330   7.140   9.736
 2627WAT      O 8122   0.869   0.163   1.042
 2627WAT     H1 8123   0.919   0.077   1.041
 2627WAT     H2 8124   0.790   0.156   0.981
 2628WAT      O 8125   2.917   4.440   6.710
 2628WAT     H1 8126   2.820   4.429   6.730
 2628WAT     H2 8127   2.928   4.484   6.621
 2629WAT      O 8128   0.232   9.074   4.290
 2629WAT     H1 8129   0.257   9.095   4.195
 2629WAT     H2 8130   0.160   9.136   4.320
 2630WAT      O 8131   5.151   0.447   2.827
 2630WAT     H1 8132   5.103   0.445   2.740
 2630WAT     H2 8133   5.182   0.540   2.847
 2631WAT      O 8134   3.709   5.184   0.024
 2631WAT     H1 8135   3.706   5.186  -0.076
 2631WAT     H2 8136   3.650   5.111   0.058
 2632WAT      O 8137   2.097   1.280   5.778
 2632WAT     H1 8138   1.999   1.292   5.792
 2632WAT     H2 8139   2.146   1.346   5.835
 2633WAT      O 8140   1.146   7.445   4.386
 2633WAT     H1 8141   1.121   7.541   4.377
 2633WAT     H2 8142   1.070   7.387   4.356
 2634WAT      O 8143   8.974   9.415   7.790
 2634WAT     H1 8144   8.881   9.384   7.768
 2634WAT     H2 8145   9.037   9.337   7.786
 2635WAT      O 8146   0.030   2.295   0.720
 2635WAT     H1 8147  -0.051   2.246   0.752
 2635WAT     H2 8148   0.069   2.348   0.795
 2636WAT      O 8149   5.437   7.602   8.239
 2636WAT     H1 8150   5.440   7.613   8.338
 2636WAT     H2 8151   5.488   7.521   8.213
 2637WAT      O 8152   0.846   0.647   9.835
 2637WAT     H1 8153   0.794   0.607   9.911
 2637WAT     H2 8154   0.790   0.714   9.788
 2638WAT      O 8155   4.323   6.171   1.655
 2638WAT     H1 8156   4.317   6.270   1.657
 2638WAT     H2 8157   4.256   6.134   1.590
 2639WAT      O 8158   9.405   1.233   0.340
 2639WAT     H1 8159   9.427   1.224   0.243
 2639WAT     H2 8160   9.306   1.234   0.353
 2640WAT      O 8161   4.434   4.179   1.454
 2640WAT     H1 8162   4.409   4.256   1.512
 2640WAT     H2 8163   4.359   4.114   1.449
 2641WAT      O 8164   9.696   2.754   2.808
 2641WAT     H1 8165   9.771   2.716   2.754
 2641WAT     H2 8166   9.663   2.838   2.765
 2642WAT      O 8167   3.367   3.266   3.925
 2642WAT     H1 8168   3.342   3.307   4.013
 2642WAT     H2 8169   3.339   3.327   3.851
 2643WAT      O 8170   7.913   7.588   0.239
 2643WAT     H1 8171   7.891   7.567   0.144
 2643WAT     H2 8172   7.848   7.542   0.300
 2644WAT      O 8173   1.126   3.815   5.260
 2644WAT     H1 8174   1.046   3.876   5.261
 2644WAT     H2 8175   1.140   3.777   5.351
 2645WAT      O 8176   5.446   8.621   7.473
 2645WAT     H1 8177   5.404   8.534   7.445
 2645WAT     H2 8178   5.537   8.603   7.510
 2646WAT      O 8179   3.789   1.832   4.772
 2646WAT     H1 8180   3.844   1.900   4.723
 2646WAT     H2 8181   3.753   1.765   4.707
 2647WAT      O 8182   1.652   6.226   7.077
 2647WAT     H1 8183   1.744   6.209   7.042
 2647WAT     H2 8184   1.637   6.324   7.088
 2648WAT      O 8185   1.525   1.383   7.333
 2648WAT     H1 8186   1.611   1.357   7.377
 2648WAT     H2 8187   1.518   1.336   7.245
 2649WAT      O 8188   3.456   4.491   9.452
 2649WAT     H1 8189   3.551   4.497   9.422
 2649WAT     H2 8190   3.407   4.573   9.424
 2650WAT      O 8191   2.419   1.820   5.886
 2650WAT     H1 8192   2.474   1.764   5.824
 2650WAT     H2 8193   2.466   1.827   5.974
 2651WAT      O 8194   6.894   5.532   4.187
 2651WAT     H1 8195   6.842   5.448   4.174
 2651WAT     H2 8196   6.885   5.563   4.281
 2652WAT      O 8197   6.332   6.222   2.396
 2652WAT     H1 8198   6.418   6.227   2.346
 2652WAT     H2 8199   6.333   6.288   2.472
 2653WAT      O 8200   1.349   4.870   8.113
 2653WAT     H1 8201   1.261   4.896   8.153
 2653WAT     H2 8202   1.409   4.834   8.184
 2654WAT      O 8203   4.893   8.855   3.595
 2654WAT     H1 8204   4.894   8.773   3.537
 2654WAT     H2 8205   4.823   8.845   3.665
 2655WAT      O 8206   6.593   1.268   0.400
 2655WAT     H1 8207   6.615   1.345   0.339
 2655WAT     H2 8208   6.574   1.187   0.345
 2656WAT      O 8209   3.952   1.585   7.601
 2656WAT     H1 8210   3.893   1.624   7.672
 2656WAT     H2 8211   3.896   1.533   7.537
 2657WAT      O 8212   3.872   0.064   5.564
 2657WAT     H1 8213   3.838   0.089   5.655
 2657WAT     H2 8214   3.880  -0.035   5.558
 2658WAT      O 8215   8.024   5.307   1.266
 2658WAT     H1 8216   8.112   5.294   1.311
 2658WAT     H2 8217   8.028   5.390   1.209
 2659WAT      O 8218   5.549   8.020   7.321
 2659WAT     H1 8219   5.574   7.924   7.310
 2659WAT     H2 8220   5.623   8.078   7.288
 2660WAT      O 8221   7.184   4.011   1.841
 2660WAT     H1 8222   7.235   3.941   1.891
 2660WAT     H2 8223   7.087   3.987   1.839
 2661WAT      O 8224   4.435   4.661   2.097
 2661WAT     H1 8225   4.447   4.648   2.196
 2661WAT     H2 8226   4.338   4.658   2.075
 2662WAT      O 8227   2.071   6.772   0.568
 2662WAT     H1 8228   2.096   6.739   0.660
 2662WAT     H2 8229   2.154   6.797   0.519
 2663WAT      O 8230   2.478   6.804   4.952
 2663WAT     H1 8231   2.539   6.761   4.886
 2663WAT     H2 8232   2.418   6.869   4.905
 2664WAT      O 8233   1.474   0.308   9.010
 2664WAT     H1 8234   1.433   0.329   8.922
 2664WAT     H2 8235   1.402   0.297   9.079
 2665WAT      O 8236   8.798   3.186   8.237
 2665WAT     H1 8237   8.806   3.243   8.154
 2665WAT     H2 8238   8.864   3.218   8.305
 2666WAT      O 8239   5.103   0.181   8.411
 2666WAT     H1 8240   5.073   0.187   8.316
 2666WAT     H2 8241   5.200   0.158   8.414
 2667WAT      O 8242   2.363   1.844   4.146
 2667WAT     H1 8243   2.437   1.829   4.211
 2667WAT     H2 8244   2.276   1.849   4.195
 2668WAT      O 8245   9.492   7.494   8.110
 2668WAT     H1 8246   9.547   7.411   8.125
 2668WAT     H2 8247   9.520   7.564   8.175
 2669WAT      O 8248   4.509   2.525   4.204
 2669WAT     H1 8249   4.460   2.495   4.122
 2669WAT     H2 8250   4.597   2.566   4.178
 2670WAT      O 8251   8.764   3.621   6.446
 2670WAT     H1 8252   8.851   3.666   6.427
 2670WAT     H2 8253   8.768   3.526   6.415
 2671WAT      O 8254   5.853   2.706   9.846
 2671WAT     H1 8255   5.867   2.775   9.774
 2671WAT     H2 8256   5.877   2.745   9.935
 2672WAT      O 8257   6.465   7.594   2.516
 2672WAT     H1 8258   6.474   7.598   2.417
 2672WAT     H2 8259   6.547   7.632   2.559
 2673WAT      O 8260   8.819   3.597   0.160
 2673WAT     H1 8261   8.801   3.627   0.066
 2673WAT     H2 8262   8.757   3.645   0.223
 2674WAT      O 8263   0.587   8.800   3.907
 2674WAT     H1 8264   0.640   8.733   3.855
 2674WAT     H2 8265   0.646   8.847   3.972
 2675WAT      O 8266   0.200   4.088   2.718
 2675WAT     H1 8267   0.195   4.102   2.620
 2675WAT     H2 8268   0.186   3.991   2.739
 2676WAT      O 8269   7.797   6.915   1.315
 2676WAT     H1 8270   7.868   6.856   1.277
 2676WAT     H2 8271   7.834   7.008   1.326
 2677WAT      O 8272   6.460   5.327   0.490
 2677WAT     H1 8273   6.530   5.371   0.546
 2677WAT     H2 8274   6.501   5.291   0.407
 2678WAT      O 8275   7.424   0.026   4.742
 2678WAT     H1 8276   7.517   0.026   4.779
 2678WAT     H2 8277   7.368  -0.041   4.792
 2679WAT      O 8278   0.201   0.172   4.462
 2679WAT     H1 8279   0.139   0.107   4.417
 2679WAT     H2 8280   0.224   0.137   4.553
 2680WAT      O 8281   2.565   6.103   5.187
 2680WAT     H1 8282   2.556   6.102   5.087
 2680WAT     H2 8283   2.483   6.063   5.228
 2681WAT      O 8284   0.323   3.357   9.351
 2681WAT     H1 8285   0.366   3.278   9.308
 2681WAT     H2 8286   0.369   3.377   9.438
 2682WAT      O 8287   2.178   1.730   9.844
 2682WAT     H1 8288   2.080   1.751   9.850
 2682WAT     H2 8289   2.195   1.673   9.763
 2683WAT      O 8290   7.629   0.888   5.490
 2683WAT     H1 8291   7.633   0.970   5.433
 2683WAT     H2 8292   7.542   0.842   5.475
 2684WAT      O 8293   4.906   0.999   0.371
 2684WAT     H1 8294   4.918   0.996   0.272
 2684WAT     H2 8295   4.866   0.913   0.403
 2685WAT      O 8296   4.833   6.185   3.899
 2685WAT     H1 8297   4.792   6.166   3.988
 2685WAT     H2 8298   4.784   6.135   3.828
 2686WAT      O 8299   4.217   8.203   5.487
 2686WAT     H1 8300   4.127   8.165   5.506
 2686WAT     H2 8301   4.251   8.166   5.400
 2687WAT      O 8302   6.132   2.361   0.610
 2687WAT     H1 8303   6.077   2.437   0.647
 2687WAT     H2 8304   6.072   2.286   0.583
 2688WAT      O 8305   1.896   4.657   1.650
 2688WAT     H1 8306   1.900   4.664   1.550
 2688WAT     H2 8307   1.948   4.732   1.691
 2689WAT      O 8308   4.685   8.878   0.253
 2689WAT     H1 8309   4.784   8.866   0.264
 2689WAT     H2 8310   4.646   8.798   0.208
 2690WAT      O 8311   7.150   9.668   5.937
 2690WAT     H1 8312   7.083   9.683   6.009
 2690WAT     H2 8313   7.187   9.575   5.944
 2691WAT      O 8314   5.514   7.825   9.386
 2691WAT     H1 8315   5.477   7.825   9.293
 2691WAT     H2 8316   5.522   7.730   9.418
 2692WAT      O 8317   9.848   4.978   8.403
 2692WAT     H1 8318   9.880   4.926   8.324
 2692WAT     H2 8319   9.756   4.948   8.427
 2693WAT      O 8320   8.031   5.165   8.512
 2693WAT     H1 8321   7.984   5.079   8.493
 2693WAT     H2 8322   7.998   5.203   8.599
 2694WAT      O 8323   8.901   1.704   6.485
 2694WAT     H1 8324   8.915   1.802   6.493
 2694WAT     H2 8325   8.806   1.685   6.461
 2695WAT      O 8326   8.502   6.452   5.773
 2695WAT     H1 8327   8.569   6.498   5.832
 2695WAT     H2 8328   8.549   6.383   5.717
 2696WAT      O 8329   6.103   6.761   9.185
 2696WAT     H1 8330   6.073   6.764   9.280
 2696WAT     H2 8331   6.037   6.711   9.130
 2697WAT      O 8332   5.077   7.029   0.050
 2697WAT     H1 8333   5.000   6.966   0.035
 2697WAT     H2 8334   5.043   7.123   0.050
 2698WAT      O 8335   8.079   7.484   5.269
 2698WAT     H1 8336   8.093   7.579   5.298
 2698WAT     H2 8337   8.087   7.424   5.349
 2699WAT      O 8338   7.113   2.613   3.882
 2699WAT     H1 8339   7.050   2.678   3.924
 2699WAT     H2 8340   7.182   2.663   3.829
 2700WAT      O 8341   0.395   9.176   2.515
 2700WAT     H1 8342   0.336   9.151   2.438
 2700WAT     H2 8343   0.371   9.267   2.548
 2701WAT      O 8344   1.634   2.440   8.381
 2701WAT     H1 8345   1.701   2.485   8.321
 2701WAT     H2 8346   1.647   2.341   8.377
 2702WAT      O 8347   8.946   9.298   1.225
 2702WAT     H1 8348   9.022   9.250   1.269
 2702WAT     H2 8349   8.879   9.323   1.295
 2703WAT      O 8350   6.725   6.399   8.386
 2703WAT     H1 8351   6.773   6.481   8.414
 2703WAT     H2 8352   6.791   6.331   8.355
 2704WAT      O 8353   3.936   3.248   7.746
 2704WAT     H1 8354   4.023   3.263   7.794
 2704WAT     H2 8355   3.872   3.321   7.770
 2705WAT      O 8356   4.954   3.059   0.858
 2705WAT     H1 8357   5.013   3.021   0.929
 2705WAT     H2 8358   4.861   3.024   0.870
 2706WAT      O 8359   8.409   4.947   2.965
 2706WAT     H1 8360   8.471   4.888   2.914
 2706WAT     H2 8361   8.356   4.892   3.030
 2707WAT      O 8362   7.073   6.451   4.988
 2707WAT     H1 8363   7.002   6.436   4.919
 2707WAT     H2 8364   7.030   6.460   5.078
 2708WAT      O 8365   9.444   3.827   7.228
 2708WAT     H1 8366   9.509   3.904   7.225
 2708WAT     H2 8367   9.362   3.854   7.279
 2709WAT      O 8368   4.374   1.324   7.430
 2709WAT     H1 8369   4.331   1.246   7.475
 2709WAT     H2 8370   4.395   1.394   7.499
 2710WAT      O 8371   6.770   5.490   0.961
 2710WAT     H1 8372   6.744   5.563   0.899
 2710WAT     H2 8373   6.798   5.410   0.908
 2711WAT      O 8374   4.606   2.292   7.477
 2711WAT     H1 8375   4.627   2.389   7.479
 2711WAT     H2 8376   4.542   2.272   7.403
 2712WAT      O 8377   7.523   2.412   4.459
 2712WAT     H1 8378   7.545   2.322   4.495
 2712WAT     H2 8379   7.544   2.481   4.528
 2713WAT      O 8380   6.394   3.694   4.145
 2713WAT     H1 8381   6.312   3.690   4.088
 2713WAT     H2 8382   6.368   3.698   4.241
 2714WAT      O 8383   9.870   4.052   4.395
 2714WAT     H1 8384   9.887   3.957   4.369
 2714WAT     H2 8385   9.946   4.109   4.364
 2715WAT      O 8386   5.889   9.469   9.135
 2715WAT     H1 8387   5.978   9.436   9.105
 2715WAT     H2 8388   5.855   9.537   9.070
 2716WAT      O 8389   5.228   4.463   7.504
 2716WAT     H1 8390   5.278   4.390   7.456
 2716WAT     H2 8391   5.241   4.451   7.603
 2717WAT      O 8392   1.952   2.218   0.686
 2717WAT     H1 8393   1.916   2.302   0.645
 2717WAT     H2 8394   2.047   2.205   0.656
 2718WAT      O 8395   6.023   5.117   4.855
 2718WAT     H1 8396   5.926   5.131   4.835
 2718WAT     H2 8397   6.041   5.141   4.950
 2719WAT      O 8398   4.273   7.841   6.060
 2719WAT     H1 8399   4.275   7.939   6.039
 2719WAT     H2 8400   4.179   7.809   6.061
 2720WAT      O 8401   0.746   9.576   7.450
 2720WAT     H1 8402   0.790   9.512   7.513
 2720WAT     H2 8403   0.722   9.529   7.365
 2721WAT      O 8404   6.622   5.560   6.024
 2721WAT     H1 8405   6.623   5.467   6.060
 2721WAT     H2 8406   6.618   5.556   5.924
 2722WAT      O 8407   0.210   6.288   7.584
 2722WAT     H1 8408   0.226   6.195   7.615
 2722WAT     H2 8409   0.293   6.324   7.541
 2723WAT      O 8410   7.074   9.643   6.859
 2723WAT     H1 8411   7.115   9.727   6.894
 2723WAT     H2 8412   7.001   9.666   6.795
 2724WAT      O 8413   4.643   2.142   1.309
 2724WAT     H1 8414   4.651   2.136   1.409
 2724WAT     H2 8415   4.733   2.163   1.270
 2725WAT      O 8416   7.501   5.800   9.295
 2725WAT     H1 8417   7.404   5.778   9.288
 2725WAT     H2 8418   7.514   5.872   9.364
 2726WAT      O 8419   7.257   8.795   8.833
 2726WAT     H1 8420   7.353   8.820   8.819
 2726WAT     H2 8421   7.250   8.728   8.906
 2727WAT      O 8422   8.526   0.127   3.523
 2727WAT     H1 8423   8.611   0.149   3.474
 2727WAT     H2 8424   8.518   0.184   3.604
 2728WAT      O 8425   7.449   9.736   7.208
 2728WAT     H1 8426   7.388   9.658   7.220
 2728WAT     H2 8427   7.427   9.807   7.276
 2729WAT      O 8428   9.707   2.397   2.419
 2729WAT     H1 8429   9.713   2.483   2.368
 2729WAT     H2 8430   9.758   2.326   2.371
 2730WAT      O 8431   2.734   9.066   5.103
 2730WAT     H1 8432   2.753   9.065   5.005
 2730WAT     H2 8433   2.806   9.118   5.150
 2731WAT      O 8434   1.856   3.683   7.065
 2731WAT     H1 8435   1.871   3.781   7.075
 2731WAT     H2 8436   1.758   3.664   7.070
 2732WAT      O 8437   4.744   3.803   2.745
 2732WAT     H1 8438   4.826   3.758   2.782
 2732WAT     H2 8439   4.768   3.895   2.715
 2733WAT      O 8440   6.280   9.339   4.346
 2733WAT     H1 8441   6.202   9.277   4.349
 2733WAT     H2 8442   6.284   9.383   4.257
 2734WAT      O 8443   0.165   4.533   2.721
 2734WAT     H1 8444   0.168   4.519   2.623
 2734WAT     H2 8445   0.086   4.590   2.745
 2735WAT      O 8446   3.417   5.524   8.173
 2735WAT     H1 8447   3.408   5.604   8.114
 2735WAT     H2 8448   3.329   5.477   8.179
 2736WAT      O 8449   6.400   3.181   8.033
 2736WAT     H1 8450   6.399   3.276   8.001
 2736WAT     H2 8451   6.419   3.120   7.956
 2737WAT      O 8452   5.246   4.793   7.516
 2737WAT     H1 8453   5.306   4.804   7.437
 2737WAT     H2 8454   5.277   4.716   7.571
 2738WAT      O 8455   5.458   7.549   4.405
 2738WAT     H1 8456   5.456   7.627   4.342
 2738WAT     H2 8457   5.373   7.546   4.457
 2739WAT      O 8458   8.860   8.030   8.159
 2739WAT     H1 8459   8.945   8.008   8.111
 2739WAT     H2 8460   8.818   8.109   8.115
 2740WAT      O 8461   9.028   5.695   9.664
 2740WAT     H1 8462   8.930   5.714   9.660
 2740WAT     H2 8463   9.049   5.616   9.606
 2741WAT      O 8464   2.167   2.973   4.758
 2741WAT     H1 8465   2.070   2.956   4.778
 2741WAT     H2 8466   2.180   2.977   4.659
 2742WAT      O 8467   3.986   8.116   1.023
 2742WAT     H1 8468   3.910   8.169   0.986
 2742WAT     H2 8469   4.068   8.173   1.027
 2743WAT      O 8470   3.826   9.088   7.680
 2743WAT     H1 8471   3.878   9.018   7.729
 2743WAT     H2 8472   3.887   9.134   7.615
 2744WAT      O 8473   0.879   4.102   7.787
 2744WAT     H1 8474   0.947   4.094   7.859
 2744WAT     H2 8475   0.840   4.013   7.766
 2745WAT      O 8476   1.663   9.235   3.381
 2745WAT     H1 8477   1.759   9.230   3.353
 2745WAT     H2 8478   1.656   9.288   3.466
 2746WAT      O 8479   8.941   5.157   6.528
 2746WAT     H1 8480   8.894   5.090   6.471
 2746WAT     H2 8481   9.021   5.115   6.571
 2747WAT      O 8482   4.393   4.043   0.379
 2747WAT     H1 8483   4.473   4.092   0.345
 2747WAT     H2 8484   4.310   4.085   0.343
 2748WAT      O 8485   0.339   9.261   8.982
 2748WAT     H1 8486   0.413   9.307   9.031
 2748WAT     H2 8487   0.304   9.321   8.910
 2749WAT      O 8488   8.057   3.666   1.009
 2749WAT     H1 8489   8.046   3.640   0.913
 2749WAT     H2 8490   8.003   3.605   1.066
 2750WAT      O 8491   3.152   6.786   3.568
 2750WAT     H1 8492   3.216   6.846   3.519
 2750WAT     H2 8493   3.196   6.751   3.650
 2751WAT      O 8494   7.785   7.234   2.060
 2751WAT     H1 8495   7.870   7.194   2.027
 2751WAT     H2 8496   7.729   7.163   2.102
 2752WAT      O 8497   3.265   2.586   8.706
 2752WAT     H1 8498   3.309   2.498   8.723
 2752WAT     H2 8499   3.225   2.620   8.791
 2753WAT      O 8500   2.573   7.692   6.661
 2753WAT     H1 8501   2.549   7.785   6.691
 2753WAT     H2 8502   2.576   7.631   6.740
 2754WAT      O 8503   4.213   7.180   3.779
 2754WAT     H1 8504   4.284   7.200   3.710
 2754WAT     H2 8505   4.142   7.250   3.775
 2755WAT      O 8506   3.352   8.320   9.589
 2755WAT     H1 8507   3.263   8.365   9.593
 2755WAT     H2 8508   3.386   8.306   9.682
 2756WAT      O 8509   3.566   0.423   2.871
 2756WAT     H1 8510   3.540   0.509   2.915
 2756WAT     H2 8511   3.486   0.385   2.825
 2757WAT      O 8512   8.392   9.225   0.612
 2757WAT     H1 8513   8.318   9.271   0.661
 2757WAT     H2 8514   8.473   9.285   0.611
 2758WAT      O 8515   1.644   3.362   9.008
 2758WAT     H1 8516   1.718   3.366   8.941
 2758WAT     H2 8517   1.572   3.301   8.975
 2759WAT      O 8518   8.577   9.239   3.737
 2759WAT     H1 8519   8.613   9.147   3.752
 2759WAT     H2 8520   8.477   9.236   3.735
 2760WAT      O 8521   0.304   3.723   8.991
 2760WAT     H1 8522   0.321   3.816   9.023
 2760WAT     H2 8523   0.319   3.719   8.892
 2761WAT      O 8524   7.980   2.522   7.574
 2761WAT     H1 8525   8.015   2.528   7.668
 2761WAT     H2 8526   7.933   2.608   7.550
 2762WAT      O 8527   9.083   5.471   1.064
 2762WAT     H1 8528   9.060   5.567   1.076
 2762WAT     H2 8529   9.015   5.426   1.007
 2763WAT      O 8530   4.013   0.279   1.496
 2763WAT     H1 8531   4.097   0.237   1.461
 2763WAT     H2 8532   3.934   0.225   1.466
 2764WAT      O 8533   0.128   8.846   1.966
 2764WAT     H1 8534   0.152   8.755   1.999
 2764WAT     H2 8535   0.187   8.871   1.890
 2765WAT      O 8536   4.532   8.459   9.571
 2765WAT     H1 8537   4.450   8.471   9.627
 2765WAT     H2 8538   4.532   8.525   9.496
 2766WAT      O 8539   1.530   4.273   2.731
 2766WAT     H1 8540   1.582   4.338   2.787
 2766WAT     H2 8541   1.591   4.203   2.695
 2767WAT      O 8542   4.876   5.288   5.068
 2767WAT     H1 8543   4.937   5.366   5.074
 2767WAT     H2 8544   4.860   5.264   4.972
 2768WAT      O 8545   2.438   4.592   9.877
 2768WAT     H1 8546   2.536   4.606   9.895
 2768WAT     H2 8547   2.396   4.679   9.851
 2769WAT      O 8548   8.193   2.099   5.818
 2769WAT     H1 8549   8.274   2.149   5.787
 2769WAT     H2 8550   8.158   2.141   5.902
 2770WAT      O 8551   9.018   4.791   0.818
 2770WAT     H1 8552   9.099   4.846   0.799
 2770WAT     H2 8553   8.936   4.840   0.788
 2771WAT      O 8554   9.425   5.225   4.039
 2771WAT     H1 8555   9.490   5.158   4.076
 2771WAT     H2 8556   9.396   5.287   4.112
 2772WAT      O 8557   5.814   8.191   1.223
 2772WAT     H1 8558   5.875   8.223   1.296
 2772WAT     H2 8559   5.764   8.111   1.256
 2773WAT      O 8560   9.787   1.575   8.716
 2773WAT     H1 8561   9.841   1.610   8.792
 2773WAT     H2 8562   9.728   1.500   8.748
 2774WAT      O 8563   1.914   5.282   0.148
 2774WAT     H1 8564   1.897   5.359   0.209
 2774WAT     H2 8565   1.830   5.259   0.099
 2775WAT      O 8566   3.920   2.208   4.560
 2775WAT     H1 8567   3.994   2.275   4.556
 2775WAT     H2 8568   3.952   2.120   4.525
 2776WAT      O 8569   6.853   5.027   4.073
 2776WAT     H1 8570   6.866   5.124   4.055
 2776WAT     H2 8571   6.941   4.986   4.099
 2777WAT      O 8572   1.182   8.924   1.806
 2777WAT     H1 8573   1.281   8.914   1.815
 2777WAT     H2 8574   1.136   8.867   1.874
 2778WAT      O 8575   0.535   6.517   6.535
 2778WAT     H1 8576   0.478   6.596   6.514
 2778WAT     H2 8577   0.597   6.499   6.459
 2779WAT      O 8578   3.732   3.691   4.675
 2779WAT     H1 8579   3.747   3.611   4.617
 2779WAT     H2 8580   3.820   3.728   4.705
 2780WAT      O 8581   5.014   8.288   8.300
 2780WAT     H1 8582   5.046   8.351   8.370
 2780WAT     H2 8583   4.988   8.201   8.343
 2781WAT      O 8584   1.726   4.011   3.844
 2781WAT     H1 8585   1.821   3.989   3.823
 2781WAT     H2 8586   1.677   3.927   3.870
 2782WAT      O 8587   9.007   1.353   6.556
 2782WAT     H1 8588   9.084   1.398   6.601
 2782WAT     H2 8589   8.923   1.373   6.608
 2783WAT      O 8590   1.757   7.847   2.890
 2783WAT     H1 8591   1.811   7.920   2.847
 2783WAT     H2 8592   1.785   7.835   2.985
 2784WAT      O 8593   7.297   7.823   4.671
 2784WAT     H1 8594   7.397   7.819   4.674
 2784WAT     H2 8595   7.262   7.734   4.641
 2785WAT      O 8596   1.984   4.552   2.616
 2785WAT     H1 8597   1.934   4.568   2.701
 2785WAT     H2 8598   1.982   4.455   2.594
 2786WAT      O 8599   3.019   0.131   9.648
 2786WAT     H1 8600   2.928   0.105   9.682
 2786WAT     H2 8601   3.089   0.095   9.709
 2787WAT      O 8602   8.199   1.283   4.279
 2787WAT     H1 8603   8.155   1.345   4.213
 2787WAT     H2 8604   8.257   1.218   4.229
 2788WAT      O 8605   0.705   2.054   5.784
 2788WAT     H1 8606   0.724   1.990   5.710
 2788WAT     H2 8607   0.620   2.102   5.766
 2789WAT      O 8608   8.638   2.410   3.124
 2789WAT     H1 8609   8.656   2.392   3.027
 2789WAT     H2 8610   8.658   2.506   3.144
 2790WAT      O 8611   2.296   9.002   0.242
 2790WAT     H1 8612   2.281   9.087   0.191
 2790WAT     H2 8613   2.394   8.992   0.259
 2791WAT      O 8614   3.357   5.675   4.851
 2791WAT     H1 8615   3.351   5.651   4.754
 2791WAT     H2 8616   3.431   5.741   4.865
 2792WAT      O 8617   7.008   1.011   8.329
 2792WAT     H1 8618   7.102   1.045   8.329
 2792WAT     H2 8619   7.009   0.912   8.316
 2793WAT      O 8620   5.080   2.558   8.699
 2793WAT     H1 8621   5.001   2.578   8.757
 2793WAT     H2 8622   5.083   2.622   8.623
 2794WAT      O 8623   6.083   5.880   1.130
 2794WAT     H1 8624   6.088   5.780   1.120
 2794WAT     H2 8625   6.035   5.919   1.051
 2795WAT      O 8626   0.764   3.880   6.971
 2795WAT     H1 8627   0.860   3.901   6.950
 2795WAT     H2 8628   0.713   3.868   6.886
 2796WAT      O 8629   6.559   8.760   2.625
 2796WAT     H1 8630   6.616   8.732   2.702
 2796WAT     H2 8631   6.520   8.680   2.580
 2797WAT      O 8632   0.867   3.503   7.180
 2797WAT     H1 8633   0.891   3.410   7.151
 2797WAT     H2 8634   0.947   3.547   7.220
 2798WAT      O 8635   4.167   8.613   7.837
 2798WAT     H1 8636   4.100   8.653   7.899
 2798WAT     H2 8637   4.127   8.533   7.792
 2799WAT      O 8638   4.177   8.708   5.243
 2799WAT     H1 8639   4.132   8.709   5.333
 2799WAT     H2 8640   4.257   8.768   5.245
 2800WAT      O 8641   2.150   2.907   5.119
 2800WAT     H1 8642   2.113   3.000   5.129
 2800WAT     H2 8643   2.249   2.912   5.109
 2801WAT      O 8644   4.855   3.466   2.222
 2801WAT     H1 8645   4.912   3.389   2.191
 2801WAT     H2 8646   4.784   3.484   2.155
 2802WAT      O 8647   5.018   4.571   7.393
 2802WAT     H1 8648   4.993   4.536   7.303
 2802WAT     H2 8649   5.095   4.519   7.429
 2803WAT      O 8650   8.081   3.960   2.700
 2803WAT     H1 8651   8.058   4.014   2.781
 2803WAT     H2 8652   8.174   3.925   2.709
 2804WAT      O 8653   6.206   5.932   8.613
 2804WAT     H1 8654   6.107   5.933   8.598
 2804WAT     H2 8655   6.234   6.017   8.657
 2805WAT      O 8656   0.186   0.096   1.638
 2805WAT     H1 8657   0.166   0.138   1.726
 2805WAT     H2 8658   0.178  -0.004   1.645
 2806WAT      O 8659   5.419   5.268   2.673
 2806WAT     H1 8660   5.394   5.173   2.652
 2806WAT     H2 8661   5.518   5.278   2.666
 2807WAT      O 8662   2.202   1.782   3.219
 2807WAT     H1 8663   2.162   1.781   3.310
 2807WAT     H2 8664   2.292   1.826   3.222
 2808WAT      O 8665   3.758   6.071   8.557
 2808WAT     H1 8666   3.854   6.076   8.529
 2808WAT     H2 8667   3.744   6.126   8.639
 2809WAT      O 8668   7.125   1.627   9.682
 2809WAT     H1 8669   7.091   1.721   9.685
 2809WAT     H2 8670   7.053   1.566   9.649
 2810WAT      O 8671   5.221   3.282   0.036
 2810WAT     H1 8672   5.232   3.187   0.066
 2810WAT     H2 8673   5.295   3.338   0.075
 2811WAT      O 8674   9.839   4.406   1.676
 2811WAT     H1 8675   9.797   4.374   1.591
 2811WAT     H2 8676   9.880   4.328   1.724
 2812WAT      O 8677   5.406   0.303   9.152
 2812WAT     H1 8678   5.337   0.249   9.104
 2812WAT     H2 8679   5.409   0.276   9.248
 2813WAT      O 8680   5.699   3.024   3.348
 2813WAT     H1 8681   5.679   3.095   3.281
 2813WAT     H2 8682   5.797   3.023   3.368
 2814WAT      O 8683   9.295   3.305   9.330
 2814WAT     H1 8684   9.388   3.324   9.360
 2814WAT     H2 8685   9.231   3.335   9.400
 2815WAT      O 8686   0.638   6.996   7.083
 2815WAT     H1 8687   0.588   6.917   7.049
 2815WAT     H2 8688   0.652   6.988   7.182
 2816WAT      O 8689   9.817   2.199   1.515
 2816WAT     H1 8690   9.832   2.258   1.435
 2816WAT     H2 8691   9.866   2.113   1.502
 2817WAT      O 8692   7.041   4.750   7.782
 2817WAT     H1 8693   7.113   4.681   7.774
 2817WAT     H2 8694   6.975   4.721   7.850
 2818WAT      O 8695   1.017   8.363   7.683
 2818WAT     H1 8696   1.081   8.440   7.685
 2818WAT     H2 8697   0.936   8.388   7.630
 2819WAT      O 8698   7.289   8.379   6.319
 2819WAT     H1 8699   7.208   8.426   6.283
 2819WAT     H2 8700   7.339   8.337   6.243
 2820WAT      O 8701   1.903   6.579   3.525
 2820WAT     H1 8702   1.839   6.625   3.463
 2820WAT     H2 8703   1.989   6.630   3.527
 2821WAT      O 8704   7.240   7.784   0.457
 2821WAT     H1 8705   7.297   7.862   0.485
 2821WAT     H2 8706   7.229   7.722   0.535
 2822WAT      O 8707   5.869   5.440   3.686
 2822WAT     H1 8708   5.873   5.468   3.590
 2822WAT     H2 8709   5.828   5.349   3.693
 2823WAT      O 8710   5.018   9.739   7.861
 2823WAT     H1 8711   5.101   9.711   7.908
 2823WAT     H2 8712   4.969   9.806   7.916
 2824WAT      O 8713   2.075   5.673   6.173
 2824WAT     H1 8714   2.102   5.685   6.269
 2824WAT     H2 8715   2.130   5.601   6.131
 2825WAT      O 8716   7.390   4.686   1.714
 2825WAT     H1 8717   7.349   4.747   1.646
 2825WAT     H2 8718   7.485   4.668   1.690
 2826WAT      O 8719   8.532   0.570   2.913
 2826WAT     H1 8720   8.535   0.539   3.008
 2826WAT     H2 8721   8.616   0.541   2.866
 2827WAT      O 8722   6.304   7.633   0.528
 2827WAT     H1 8723   6.269   7.541   0.510
 2827WAT     H2 8724   6.270   7.696   0.458
 2828WAT      O 8725   7.064   4.405   7.979
 2828WAT     H1 8726   7.007   4.324   7.990
 2828WAT     H2 8727   7.022   4.482   8.027
 2829WAT      O 8728   3.678   8.296   1.176
 2829WAT     H1 8729   3.607   8.285   1.245
 2829WAT     H2 8730   3.742   8.368   1.204
 2830WAT      O 8731   8.758   5.448   0.055
 2830WAT     H1 8732   8.680   5.413   0.003
 2830WAT     H2 8733   8.837   5.457  -0.005
 2831WAT      O 8734   0.030   5.765   3.996
 2831WAT     H1 8735  -0.054   5.718   3.971
 2831WAT     H2 8736   0.107   5.724   3.948
 2832WAT      O 8737   3.091   1.122   2.847
 2832WAT     H1 8738   3.165   1.184   2.875
 2832WAT     H2 8739   3.087   1.117   2.747
 2833WAT      O 8740   3.891  -0.002   7.484
 2833WAT     H1 8741   3.961   0.064   7.511
 2833WAT     H2 8742   3.811   0.008   7.543
 2834WAT      O 8743   9.737   5.459   2.574
 2834WAT     H1 8744   9.818   5.406   2.550
 2834WAT     H2 8745   9.663   5.397   2.600
 2835WAT      O 8746   5.950   6.622   7.830
 2835WAT     H1 8747   5.869   6.634   7.888
 2835WAT     H2 8748   5.996   6.536   7.853
 2836WAT      O 8749   7.080   6.103   3.147
 2836WAT     H1 8750   7.046   6.186   3.192
 2836WAT     H2 8751   7.179   6.109   3.136
 2837WAT      O 8752   5.560   4.738   2.809
 2837WAT     H1 8753   5.550   4.702   2.902
 2837WAT     H2 8754   5.657   4.754   2.791
 2838WAT      O 8755   8.087   5.535   2.331
 2838WAT     H1 8756   8.139   5.505   2.412
 2838WAT     H2 8757   8.037   5.457   2.293
 2839WAT      O 8758   0.584   6.379   8.155
 2839WAT     H1 8759   0.505   6.391   8.215
 2839WAT     H2 8760   0.650   6.452   8.172
 2840WAT      O 8761   4.836   6.459   0.091
 2840WAT     H1 8762   4.785   6.475   0.175
 2840WAT     H2 8763   4.930   6.493   0.102
 2841WAT      O 8764   7.347   4.909   8.818
 2841WAT     H1 8765   7.371   4.912   8.721
 2841WAT     H2 8766   7.357   4.815   8.852
 2842WAT      O 8767   5.677   8.053   0.887
 2842WAT     H1 8768   5.690   8.034   0.789
 2842WAT     H2 8769   5.766   8.077   0.927
 2843WAT      O 8770   2.162   9.391   8.513
 2843WAT     H1 8771   2.123   9.323   8.452
 2843WAT     H2 8772   2.234   9.350   8.568
 2844WAT      O 8773   5.891   1.003   4.972
 2844WAT     H1 8774   5.881   1.091   5.020
 2844WAT     H2 8775   5.822   0.998   4.899
 2845WAT      O 8776   5.347   0.149   5.197
 2845WAT     H1 8777   5.429   0.104   5.162
 2845WAT     H2 8778   5.312   0.214   5.129
 2846WAT      O 8779   7.980   1.851   6.092
 2846WAT     H1 8780   8.065   1.903   6.097
 2846WAT     H2 8781   7.912   1.903   6.041
 2847WAT      O 8782   2.483   3.547   2.286
 2847WAT     H1 8783   2.579   3.550   2.311
 2847WAT     H2 8784   2.428   3.592   2.356
 2848WAT      O 8785   3.626   1.540   9.462
 2848WAT     H1 8786   3.587   1.455   9.498
 2848WAT     H2 8787   3.554   1.609   9.456
 2849WAT      O 8788   2.068   6.884   7.380
 2849WAT     H1 8789   2.116   6.966   7.349
 2849WAT     H2 8790   2.111   6.851   7.464
 2850WAT      O 8791   9.001   0.275   4.945
 2850WAT     H1 8792   8.906   0.270   4.914
 2850WAT     H2 8793   9.038   0.183   4.956
 2851WAT      O 8794   3.625   3.753   6.270
 2851WAT     H1 8795   3.663   3.731   6.180
 2851WAT     H2 8796   3.576   3.840   6.265
 2852WAT      O 8797   7.611   1.363   5.077
 2852WAT     H1 8798   7.575   1.450   5.112
 2852WAT     H2 8799   7.681   1.328   5.139
 2853WAT      O 8800   5.159   3.473   0.526
 2853WAT     H1 8801   5.081   3.484   0.463
 2853WAT     H2 8802   5.135   3.405   0.596
 2854WAT      O 8803   8.115   4.328   6.200
 2854WAT     H1 8804   8.059   4.246   6.210
 2854WAT     H2 8805   8.103   4.387   6.280
 2855WAT      O 8806   3.580   4.783   9.579
 2855WAT     H1 8807   3.621   4.859   9.529
 2855WAT     H2 8808   3.600   4.697   9.532
 2856WAT      O 8809   8.431   9.591   1.242
 2856WAT     H1 8810   8.523   9.560   1.267
 2856WAT     H2 8811   8.363   9.538   1.292
 2857WAT      O 8812   7.462   0.371   8.453
 2857WAT     H1 8813   7.413   0.336   8.533
 2857WAT     H2 8814   7.474   0.297   8.387
 2858WAT      O 8815   2.838   7.931   7.619
 2858WAT     H1 8816   2.772   7.970   7.683
 2858WAT     H2 8817   2.804   7.944   7.525
 2859WAT      O 8818   5.977   8.939   0.146
 2859WAT     H1 8819   5.983   8.940   0.046
 2859WAT     H2 8820   6.002   8.848   0.180
 2860WAT      O 8821   2.935   4.255   4.520
 2860WAT     H1 8822   2.980   4.200   4.591
 2860WAT     H2 8823   2.975   4.233   4.431
 2861WAT      O 8824   0.157   9.473   2.829
 2861WAT     H1 8825   0.120   9.414   2.757
 2861WAT     H2 8826   0.124   9.567   2.814
 2862WAT      O 8827   0.645   7.808   9.606
 2862WAT     H1 8828   0.670   7.833   9.512
 2862WAT     H2 8829   0.723   7.823   9.666
 2863WAT      O 8830   5.216   5.521   5.360
 2863WAT     H1 8831   5.175   5.475   5.439
 2863WAT     H2 8832   5.279   5.592   5.391
 2864WAT      O 8833   6.659   5.958   9.520
 2864WAT     H1 8834   6.735   5.895   9.537
 2864WAT     H2 8835   6.683   6.049   9.555
 2865WAT      O 8836   6.591   8.418   1.701
 2865WAT     H1 8837   6.587   8.518   1.697
 2865WAT     H2 8838   6.587   8.382   1.608
 2866WAT      O 8839   7.022   7.333   3.961
 2866WAT     H1 8840   7.070   7.246   3.971
 2866WAT     H2 8841   7.027   7.364   3.866
 2867WAT      O 8842   8.063   7.154   1.986
 2867WAT     H1 8843   8.141   7.094   1.965
 2867WAT     H2 8844   8.030   7.197   1.902
 2868WAT      O 8845   7.139   9.228   1.468
 2868WAT     H1 8846   7.148   9.272   1.557
 2868WAT     H2 8847   7.059   9.264   1.420
 2869WAT      O 8848   8.628   8.408   3.805
 2869WAT     H1 8849   8.701   8.420   3.872
 2869WAT     H2 8850   8.662   8.432   3.714
 2870WAT      O 8851   2.748   1.836   3.918
 2870WAT     H1 8852   2.679   1.764   3.923
 2870WAT     H2 8853   2.836   1.800   3.950
 2871WAT      O 8854   1.956   8.965   5.103
 2871WAT     H1 8855   1.865   8.931   5.080
 2871WAT     H2 8856   2.004   8.897   5.160
 2872WAT      O 8857   5.546   7.917   5.003
 2872WAT     H1 8858   5.552   8.002   4.950
 2872WAT     H2 8859   5.453   7.907   5.039
 2873WAT      O 8860   7.032   0.362   6.681
 2873WAT     H1 8861   7.073   0.451   6.701
 2873WAT     H2 8862   7.095   0.289   6.706
 2874WAT      O 8863   1.867   8.932   6.426
 2874WAT     H1 8864   1.944   8.939   6.488
 2874WAT     H2 8865   1.809   9.013   6.434
 2875WAT      O 8866   2.530   0.127   6.505
 2875WAT     H1 8867   2.599   0.091   6.568
 2875WAT     H2 8868   2.457   0.060   6.495
 2876WAT      O 8869   6.747   4.948   5.814
 2876WAT     H1 8870   6.831   5.001   5.809
 2876WAT     H2 8871   6.756   4.867   5.755
 2877WAT      O 8872   5.353   3.064   3.517
 2877WAT     H1 8873   5.447   3.076   3.550
 2877WAT     H2 8874   5.319   3.152   3.484
 2878WAT      O 8875   8.062   9.101   2.896
 2878WAT     H1 8876   8.112   9.024   2.857
 2878WAT     H2 8877   8.022   9.074   2.984
 2879WAT      O 8878   8.880   8.183   6.134
 2879WAT     H1 8879   8.844   8.229   6.215
 2879WAT     H2 8880   8.954   8.238   6.095
 2880WAT      O 8881   2.333   8.557   3.289
 2880WAT     H1 8882   2.396   8.500   3.342
 2880WAT     H2 8883   2.286   8.620   3.350
 2881WAT      O 8884   2.660   3.792   6.115
 2881WAT     H1 8885   2.643   3.887   6.140
 2881WAT     H2 8886   2.758   3.775   6.111
 2882WAT      O 8887   4.449   3.095   2.888
 2882WAT     H1 8888   4.476   3.088   2.792
 2882WAT     H2 8889   4.532   3.096   2.945
 2883WAT      O 8890   9.690   0.219   1.724
 2883WAT     H1 8891   9.694   0.311   1.762
 2883WAT     H2 8892   9.718   0.153   1.794
 2884WAT      O 8893   8.147   9.784   3.070
 2884WAT     H1 8894   8.051   9.793   3.042
 2884WAT     H2 8895   8.203   9.758   2.991
 2885WAT      O 8896   1.379   8.985   3.452
 2885WAT     H1 8897   1.316   8.913   3.421
 2885WAT     H2 8898   1.447   9.002   3.381
 2886WAT      O 8899   7.543   3.994   4.634
 2886WAT     H1 8900   7.623   4.009   4.691
 2886WAT     H2 8901   7.480   3.932   4.681
 2887WAT      O 8902   2.892   6.461   2.363
 2887WAT     H1 8903   2.925   6.555   2.357
 2887WAT     H2 8904   2.967   6.399   2.339
 2888WAT      O 8905   4.265   4.484   8.355
 2888WAT     H1 8906   4.190   4.534   8.311
 2888WAT     H2 8907   4.299   4.537   8.433
 2889WAT      O 8908   9.797   3.434   2.039
 2889WAT     H1 8909   9.732   3.485   1.983
 2889WAT     H2 8910   9.856   3.498   2.088
 2890WAT      O 8911   1.624   9.644   6.719
 2890WAT     H1 8912   1.565   9.622   6.797
 2890WAT     H2 8913   1.698   9.705   6.749
 2891WAT      O 8914   7.589   5.083   7.140
 2891WAT     H1 8915   7.523   5.155   7.119
 2891WAT     H2 8916   7.681   5.121   7.140
 2892WAT      O 8917   1.534   3.911   6.408
 2892WAT     H1 8918   1.459   3.853   6.439
 2892WAT     H2 8919   1.561   3.884   6.315
 2893WAT      O 8920   5.566   4.279   0.433
 2893WAT     H1 8921   5.603   4.364   0.396
 2893WAT     H2 8922   5.638   4.209   0.432
 2894WAT      O 8923   7.971   1.447   4.893
 2894WAT     H1 8924   7.925   1.491   4.969
 2894WAT     H2 8925   8.066   1.428   4.917
 2895WAT      O 8926   9.682   4.314   6.089
 2895WAT     H1 8927   9.742   4.275   6.019
 2895WAT     H2 8928   9.602   4.355   6.045
 2896WAT      O 8929   3.091   4.903   7.346
 2896WAT     H1 8930   3.178   4.914   7.298
 2896WAT     H2 8931   3.103   4.925   7.442
 2897WAT      O 8932   8.058   6.146   5.061
 2897WAT     H1 8933   7.976   6.088   5.059
 2897WAT     H2 8934   8.102   6.144   4.971
 2898WAT      O 8935   5.903   9.309   8.731
 2898WAT     H1 8936   5.882   9.263   8.645
 2898WAT     H2 8937   5.990   9.358   8.722
 2899WAT      O 8938   2.591   9.038   0.294
 2899WAT     H1 8939   2.648   9.078   0.223
 2899WAT     H2 8940   2.643   8.968   0.343
 2900WAT      O 8941   0.851   7.009   3.383
 2900WAT     H1 8942   0.881   7.078   3.449
 2900WAT     H2 8943   0.755   7.023   3.361
 2901WAT      O 8944   5.824   5.809   7.735
 2901WAT     H1 8945   5.853   5.754   7.813
 2901WAT     H2 8946   5.890   5.798   7.660
 2902WAT      O 8947   4.108   4.360   9.212
 2902WAT     H1 8948   4.137   4.286   9.152
 2902WAT     H2 8949   4.041   4.326   9.278
 2903WAT      O 8950   1.865   3.026   7.743
 2903WAT     H1 8951   1.942   3.080   7.711
 2903WAT     H2 8952   1.898   2.947   7.795
 2904WAT      O 8953   4.604   7.679   3.788
 2904WAT     H1 8954   4.530   7.747   3.791
 2904WAT     H2 8955   4.691   7.723   3.812
 2905WAT      O 8956   0.811   5.863   6.726
 2905WAT     H1 8957   0.831   5.804   6.805
 2905WAT     H2 8958   0.893   5.913   6.699
 2906WAT      O 8959   8.607   3.941   2.115
 2906WAT     H1 8960   8.695   3.973   2.080
 2906WAT     H2 8961   8.555   4.018   2.153
 2907WAT      O 8962   0.473   8.371   8.872
 2907WAT     H1 8963   0.524   8.289   8.846
 2907WAT     H2 8964   0.518   8.415   8.949
 2908WAT      O 8965   7.935   5.751   9.662
 2908WAT     H1 8966   7.841   5.719   9.652
 2908WAT     H2 8967   7.936   5.850   9.675
 2909WAT      O 8968   3.926   3.549   4.337
 2909WAT     H1 8969   3.966   3.457   4.329
 2909WAT     H2 8970   3.999   3.617   4.327
 2910WAT      O 8971   5.039   6.355   4.254
 2910WAT     H1 8972   4.944   6.337   4.280
 2910WAT     H2 8973   5.100   6.314   4.322
 2911WAT      O 8974   8.043   9.406   4.031
 2911WAT     H1 8975   8.037   9.478   4.100
 2911WAT     H2 8976   7.958   9.403   3.978
 2912WAT      O 8977   7.850   2.586   5.849
 2912WAT     H1 8978   7.948   2.587   5.827
 2912WAT     H2 8979   7.819   2.680   5.865
 2913WAT      O 8980   1.811   9.813   6.229
 2913WAT     H1 8981   1.718   9.818   6.266
 2913WAT     H2 8982   1.876   9.802   6.304
 2914WAT      O 8983   5.514   1.545   7.346
 2914WAT     H1 8984   5.534   1.583   7.256
 2914WAT     H2 8985   5.445   1.472   7.337
 2915WAT      O 8986   5.983   4.752   7.871
 2915WAT     H1 8987   6.081   4.768   7.854
 2915WAT     H2 8988   5.949   4.820   7.936
 2916WAT      O 8989   6.745   5.116   7.049
 2916WAT     H1 8990   6.711   5.048   6.984
 2916WAT     H2 8991   6.836   5.147   7.021
 2917WAT      O 8992   9.671   9.640   0.445
 2917WAT     H1 8993   9.758   9.597   0.418
 2917WAT     H2 8994   9.664   9.730   0.404
 2918WAT      O 8995   8.341   4.301   4.307
 2918WAT     H1 8996   8.272   4.230   4.289
 2918WAT     H2 8997   8.295   4.384   4.338
 2919WAT      O 8998   4.287   6.784   0.455
 2919WAT     H1 8999   4.196   6.818   0.479
 2919WAT     H2 9000   4.342   6.857   0.416
 2920WAT      O 9001   5.568   9.206   1.263
 2920WAT     H1 9002   5.626   9.135   1.223
 2920WAT     H2 9003   5.579   9.207   1.362
 2921WAT      O 9004   4.391   3.411   8.158
 2921WAT     H1 9005   4.348   3.328   8.122
 2921WAT     H2 9006   4.335   3.490   8.135
 2922WAT      O 9007   4.724   0.402   8.190
 2922WAT     H1 9008   4.645   0.430   8.243
 2922WAT     H2 9009   4.783   0.482   8.173
 2923WAT      O 9010   6.482   2.294   5.113
 2923WAT     H1 9011   6.461   2.379   5.066
 2923WAT     H2 9012   6.573   2.263   5.087
 2924WAT      O 9013   2.927   4.906   6.455
 2924WAT     H1 9014   2.917   4.989   6.510
 2924WAT     H2 9015   2.861   4.838   6.486
 2925WAT      O 9016   3.184   6.823   3.045
 2925WAT     H1 9017   3.201   6.773   3.131
 2925WAT     H2 9018   3.241   6.905   3.043
 2926WAT      O 9019   9.504   8.774   4.127
 2926WAT     H1 9020   9.494   8.874   4.121
 2926WAT     H2 9021   9.601   8.750   4.123
 2927WAT      O 9022   8.285   1.329   2.627
 2927WAT     H1 9023   8.355   1.399   2.613
 2927WAT     H2 9024   8.222   1.330   2.550
 2928WAT      O 9025   0.791   5.973   5.222
 2928WAT     H1 9026   0.868   6.031   5.198
 2928WAT     H2 9027   0.796   5.949   5.320
 2929WAT      O 9028   1.931   4.023   7.947
 2929WAT     H1 9029   1.837   3.993   7.937
 2929WAT     H2 9030   1.982   3.957   8.001
 2930WAT      O 9031   9.813   6.380   9.289
 2930WAT     H1 9032   9.844   6.293   9.252
 2930WAT     H2 9033   9.868   6.405   9.368
 2931WAT      O 9034   8.540   2.488   4.970
 2931WAT     H1 9035   8.539   2.389   4.960
 2931WAT     H2 9036   8.625   2.524   4.931
 2932WAT      O 9037   4.952   7.015   8.350
 2932WAT     H1 9038   5.038   7.023   8.401
 2932WAT     H2 9039   4.906   7.104   8.349
 2933WAT      O 9040   9.325   0.204   4.356
 2933WAT     H1 9041   9.260   0.270   4.394
 2933WAT     H2 9042   9.368   0.152   4.430
 2934WAT      O 9043   2.596   0.440   5.261
 2934WAT     H1 9044   2.525   0.415   5.327
 2934WAT     H2 9045   2.648   0.358   5.236
 2935WAT      O 9046   8.751   7.694   9.737
 2935WAT     H1 9047   8.652   7.691   9.750
 2935WAT     H2 9048   8.794   7.735   9.817
 2936WAT      O 9049   3.198   3.936   4.999
 2936WAT     H1 9050   3.129   3.970   5.063
 2936WAT     H2 9051   3.258   4.011   4.972
 2937WAT      O 9052   1.973   1.922   8.294
 2937WAT     H1 9053   1.956   2.018   8.269
 2937WAT     H2 9054   1.887   1.879   8.321
 2938WAT      O 9055   8.073   8.168   0.010
 2938WAT     H1 9056   7.988   8.152  -0.041
 2938WAT     H2 9057   8.050   8.199   0.103
 2939WAT      O 9058   7.341   6.098   8.050
 2939WAT     H1 9059   7.325   6.073   8.146
 2939WAT     H2 9060   7.435   6.072   8.025
 2940WAT      O 9061   4.704   0.981   3.024
 2940WAT     H1 9062   4.621   0.926   3.021
 2940WAT     H2 9063   4.781   0.929   2.987
 2941WAT      O 9064   1.314   8.396   6.319
 2941WAT     H1 9065   1.272   8.373   6.407
 2941WAT     H2 9066   1.252   8.371   6.245
 2942WAT      O 9067   8.540   9.295   9.778
 2942WAT     H1 9068   8.630   9.308   9.819
 2942WAT     H2 9069   8.469   9.313   9.846
 2943WAT      O 9070   6.036   9.188   7.032
 2943WAT     H1 9071   6.129   9.225   7.043
 2943WAT     H2 9072   5.974   9.237   7.094
 2944WAT      O 9073   1.695   4.434   4.210
 2944WAT     H1 9074   1.677   4.495   4.287
 2944WAT     H2 9075   1.793   4.425   4.197
 2945WAT      O 9076   9.148   1.998   5.454
 2945WAT     H1 9077   9.058   2.040   5.441
 2945WAT     H2 9078   9.215   2.046   5.398
 2946WAT      O 9079   6.200   7.293   5.975
 2946WAT     H1 9080   6.165   7.268   5.885
 2946WAT     H2 9081   6.189   7.217   6.038
 2947WAT      O 9082   1.627   9.444   7.849
 2947WAT     H1 9083   1.655   9.407   7.760
 2947WAT     H2 9084   1.707   9.482   7.895
 2948WAT      O 9085   3.504   8.345   8.011
 2948WAT     H1 9086   3.586   8.363   8.066
 2948WAT     H2 9087   3.532   8.312   7.921
 2949WAT      O 9088   5.329   1.854   6.126
 2949WAT     H1 9089   5.402   1.822   6.186
 2949WAT     H2 9090   5.272   1.777   6.098
 2950WAT      O 9091   5.220   9.155   1.326
 2950WAT     H1 9092   5.169   9.196   1.251
 2950WAT     H2 9093   5.239   9.059   1.304
 2951WAT      O 9094   8.700   0.604   6.417
 2951WAT     H1 9095   8.712   0.701   6.396
 2951WAT     H2 9096   8.627   0.566   6.360
 2952WAT      O 9097   1.969   7.202   4.570
 2952WAT     H1 9098   2.012   7.154   4.646
 2952WAT     H2 9099   1.870   7.188   4.573
 2953WAT      O 9100   0.128   8.465   7.753
 2953WAT     H1 9101   0.107   8.367   7.749
 2953WAT     H2 9102   0.121   8.504   7.661
 2954WAT      O 9103   7.123   3.995   7.429
 2954WAT     H1 9104   7.166   3.914   7.390
 2954WAT     H2 9105   7.114   3.984   7.528
 2955WAT      O 9106   2.474   4.491   4.180
 2955WAT     H1 9107   2.376   4.489   4.159
 2955WAT     H2 9108   2.496   4.417   4.244
 2956WAT      O 9109   1.525   7.742   0.377
 2956WAT     H1 9110   1.490   7.651   0.357
 2956WAT     H2 9111   1.449   7.802   0.404
 2957WAT      O 9112   1.729   3.958   4.782
 2957WAT     H1 9113   1.711   3.924   4.690
 2957WAT     H2 9114   1.765   3.884   4.839
 2958WAT      O 9115   7.208   0.034   6.951
 2958WAT     H1 9116   7.200   0.108   7.019
 2958WAT     H2 9117   7.290  -0.020   6.970
 2959WAT      O 9118   4.591   7.470   1.275
 2959WAT     H1 9119   4.637   7.382   1.265
 2959WAT     H2 9120   4.494   7.455   1.296
 2960WAT      O 9121   7.497   7.530   6.367
 2960WAT     H1 9122   7.560   7.454   6.388
 2960WAT     H2 9123   7.500   7.549   6.269
 2961WAT      O 9124   4.461   5.928   4.970
 2961WAT     H1 9125   4.412   6.015   4.974
 2961WAT     H2 9126   4.480   5.896   5.062
 2962WAT      O 9127   2.855   4.148   9.251
 2962WAT     H1 9128   2.809   4.171   9.336
 2962WAT     H2 9129   2.942   4.196   9.246
 2963WAT      O 9130   0.265   7.402   2.069
 2963WAT     H1 9131   0.305   7.311   2.069
 2963WAT     H2 9132   0.319   7.462   2.009
 2964WAT      O 9133   4.820   3.200   6.461
 2964WAT     H1 9134   4.797   3.281   6.408
 2964WAT     H2 9135   4.913   3.209   6.497
 2965WAT      O 9136   9.311   2.755   4.089
 2965WAT     H1 9137   9.252   2.687   4.046
 2965WAT     H2 9138   9.397   2.761   4.038
 2966WAT      O 9139   0.458   2.106   5.708
 2966WAT     H1 9140   0.394   2.039   5.674
 2966WAT     H2 9141   0.437   2.196   5.668
 2967WAT      O 9142   6.432   2.749   8.210
 2967WAT     H1 9143   6.429   2.844   8.243
 2967WAT     H2 9144   6.392   2.689   8.278
 2968WAT      O 9145   9.092   7.733   1.804
 2968WAT     H1 9146   9.141   7.812   1.841
 2968WAT     H2 9147   9.072   7.749   1.707
 2969WAT      O 9148   3.288   1.187   3.226
 2969WAT     H1 9149   3.271   1.285   3.221
 2969WAT     H2 9150   3.238   1.147   3.303
 2970WAT      O 9151   7.109   5.007   7.745
 2970WAT     H1 9152   7.179   5.043   7.807
 2970WAT     H2 9153   7.089   4.913   7.769
 2971WAT      O 9154   3.241   5.534   8.442
 2971WAT     H1 9155   3.313   5.468   8.419
 2971WAT     H2 9156   3.158   5.512   8.390
 2972WAT      O 9157   7.717   3.913   0.768
 2972WAT     H1 9158   7.625   3.884   0.791
 2972WAT     H2 9159   7.753   3.971   0.842
 2973WAT      O 9160   4.970   6.073   8.439
 2973WAT     H1 9161   4.870   6.062   8.438
 2973WAT     H2 9162   5.004   6.054   8.531
 2974WAT      O 9163   0.610   8.002   6.492
 2974WAT     H1 9164   0.513   7.980   6.500
 2974WAT     H2 9165   0.659   7.963   6.570
 2975WAT      O 9166   7.286   5.842   0.817
 2975WAT     H1 9167   7.239   5.775   0.874
 2975WAT     H2 9168   7.242   5.846   0.727
 2976WAT      O 9169   6.161   6.983   6.372
 2976WAT     H1 9170   6.151   7.064   6.430
 2976WAT     H2 9171   6.243   6.933   6.399
 2977WAT      O 9172   4.950   7.463   3.790
 2977WAT     H1 9173   5.037   7.513   3.781
 2977WAT     H2 9174   4.902   7.465   3.702
 2978WAT      O 9175   5.993   8.525   2.047
 2978WAT     H1 9176   5.939   8.552   1.968
 2978WAT     H2 9177   6.088   8.556   2.035
 2979WAT      O 9178   3.059   1.975   6.166
 2979WAT     H1 9179   3.125   1.911   6.205
 2979WAT     H2 9180   2.985   1.992   6.232
 2980WAT      O 9181   6.856   6.908   2.887
 2980WAT     H1 9182   6.906   6.823   2.872
 2980WAT     H2 9183   6.781   6.891   2.951
 2981WAT      O 9184   6.536   1.570   8.369
 2981WAT     H1 9185   6.474   1.590   8.444
 2981WAT     H2 9186   6.484   1.543   8.288
 2982WAT      O 9187   8.504   6.888   7.814
 2982WAT     H1 9188   8.589   6.842   7.789
 2982WAT     H2 9189   8.505   6.981   7.777
 2983WAT      O 9190   1.022   8.633   9.772
 2983WAT     H1 9191   0.925   8.607   9.764
 2983WAT     H2 9192   1.064   8.633   9.682
 2984WAT      O 9193   4.692   9.484   6.972
 2984WAT     H1 9194   4.630   9.510   6.898
 2984WAT     H2 9195   4.786   9.509   6.947
 2985WAT      O 9196   6.270   5.773   2.903
 2985WAT     H1 9197   6.351   5.717   2.921
 2985WAT     H2 9198   6.278   5.860   2.951
 2986WAT      O 9199   3.090   6.486   4.455
 2986WAT     H1 9200   3.051   6.483   4.363
 2986WAT     H2 9201   3.040   6.421   4.513
 2987WAT      O 9202   5.479   9.365   0.782
 2987WAT     H1 9203   5.528   9.400   0.702
 2987WAT     H2 9204   5.444   9.442   0.836
 2988WAT      O 9205   7.381   4.430   0.420
 2988WAT     H1 9206   7.475   4.444   0.390
 2988WAT     H2 9207   7.375   4.348   0.477
 2989WAT      O 9208   9.401   8.494   8.336
 2989WAT     H1 9209   9.497   8.491   8.363
 2989WAT     H2 9210   9.350   8.549   8.402
 2990WAT      O 9211   6.262   5.674   8.517
 2990WAT     H1 9212   6.245   5.760   8.564
 2990WAT     H2 9213   6.181   5.650   8.462
 2991WAT      O 9214   3.550   2.226   5.335
 2991WAT     H1 9215   3.456   2.200   5.314
 2991WAT     H2 9216   3.572   2.201   5.429
 2992WAT      O 9217   7.269   8.075   8.689
 2992WAT     H1 9218   7.327   7.997   8.712
 2992WAT     H2 9219   7.210   8.097   8.767
 2993WAT      O 9220   5.515   0.347   2.478
 2993WAT     H1 9221   5.497   0.435   2.434
 2993WAT     H2 9222   5.602   0.350   2.526
 2994WAT      O 9223   8.510   4.570   9.146
 2994WAT     H1 9224   8.413   4.589   9.135
 2994WAT     H2 9225   8.530   4.477   9.114
 2995WAT      O 9226   4.586   9.361   3.503
 2995WAT     H1 9227   4.632   9.448   3.521
 2995WAT     H2 9228   4.599   9.300   3.581
 2996WAT      O 9229   8.308   5.091   6.044
 2996WAT     H1 9230   8.398   5.088   6.087
 2996WAT     H2 9231   8.308   5.032   5.963
 2997WAT      O 9232   0.823   7.510   1.364
 2997WAT     H1 9233   0.752   7.456   1.409
 2997WAT     H2 9234   0.801   7.607   1.369
 2998WAT      O 9235   0.252   4.416   8.650
 2998WAT     H1 9236   0.326   4.430   8.584
 2998WAT     H2 9237   0.255   4.322   8.683
 2999WAT      O 9238   3.847   0.526   8.611
 2999WAT     H1 9239   3.918   0.589   8.579
 2999WAT     H2 9240   3.851   0.520   8.711
 3000WAT      O 9241   1.919   5.238   0.791
 3000WAT     H1 9242   1.946   5.331   0.770
 3000WAT     H2 9243   1.851   5.207   0.725
 3001WAT      O 9244   4.301   0.139   6.939
 3001WAT     H1 9245   4.252   0.061   6.899
 3001WAT     H2 9246   4.334   0.113   7.030
 3002WAT      O 9247   1.294   9.488   2.363
 3002WAT     H1 9248   1.337   9.405   2.400
 3002WAT     H2 9249   1.220   9.463   2.301
 3003WAT      O 9250   4.324   2.822   6.619
 3003WAT     H1 9251   4.323   2.751   6.689
 3003WAT     H2 9252   4.418   2.838   6.589
 3004WAT      O 9253   6.177   8.986   6.208
 3004WAT     H1 9254   6.082   8.953   6.202
 3004WAT     H2 9255   6.199   9.041   6.127
 3005WAT      O 9256   9.395   2.980   6.949
 3005WAT     H1 9257   9.338   3.003   7.027
 3005WAT     H2 9258   9.473   2.926   6.979
 3006WAT      O 9259   6.306   4.282   9.542
 3006WAT     H1 9260   6.394   4.322   9.519
 3006WAT     H2 9261   6.249   4.277   9.460
 3007WAT      O 9262   2.246   4.298   4.367
 3007WAT     H1 9263   2.334   4.251   4.357
 3007WAT     H2 9264   2.182   4.238   4.415
 3008WAT      O 9265   0.740   8.023   4.027
 3008WAT     H1 9266   0.670   7.952   4.025
 3008WAT     H2 9267   0.725   8.084   4.105
 3009WAT      O 9268   9.754   7.310   1.772
 3009WAT     H1 9269   9.837   7.254   1.767
 3009WAT     H2 9270   9.774   7.394   1.823
 3010WAT      O 9271   8.301   6.412   6.344
 3010WAT     H1 9272   8.342   6.423   6.435
 3010WAT     H2 9273   8.241   6.490   6.325
 3011WAT      O 9274   5.341   0.252   6.260
 3011WAT     H1 9275   5.438   0.228   6.261
 3011WAT     H2 9276   5.319   0.295   6.172
 3012WAT      O 9277   8.696   9.555   7.551
 3012WAT     H1 9278   8.695   9.472   7.496
 3012WAT     H2 9279   8.759   9.621   7.510
 3013WAT      O 9280   1.633   3.924   6.154
 3013WAT     H1 9281   1.699   3.953   6.085
 3013WAT     H2 9282   1.565   3.864   6.113
 3014WAT      O 9283   7.728   8.752   5.661
 3014WAT     H1 9284   7.763   8.840   5.692
 3014WAT     H2 9285   7.646   8.766   5.605
 3015WAT      O 9286   9.457   6.256   1.079
 3015WAT     H1 9287   9.395   6.314   1.026
 3015WAT     H2 9288   9.497   6.311   1.153
 3016WAT      O 9289   1.455   7.446   0.206
 3016WAT     H1 9290   1.462   7.348   0.188
 3016WAT     H2 9291   1.518   7.496   0.147
 3017WAT      O 9292   2.666   4.033   0.523
 3017WAT     H1 9293   2.580   4.073   0.490
 3017WAT     H2 9294   2.743   4.081   0.482
 3018WAT      O 9295   9.834   0.850   9.587
 3018WAT     H1 9296   9.925   0.826   9.554
 3018WAT     H2 9297   9.774   0.870   9.509
 3019WAT      O 9298   7.566   3.211   4.180
 3019WAT     H1 9299   7.660   3.223   4.212
 3019WAT     H2 9300   7.565   3.160   4.094
 3020WAT      O 9301   4.911   6.456   2.364
 3020WAT     H1 9302   4.995   6.448   2.418
 3020WAT     H2 9303   4.899   6.551   2.335
 3021WAT      O 9304   0.116   5.948   5.917
 3021WAT     H1 9305   0.097   6.023   5.980
 3021WAT     H2 9306   0.168   5.981   5.839
 3022WAT      O 9307   3.916   3.836   8.070
 3022WAT     H1 9308   3.985   3.764   8.070
 3022WAT     H2 9309   3.828   3.797   8.099
 3023WAT      O 9310   3.649   7.166   9.311
 3023WAT     H1 9311   3.636   7.248   9.256
 3023WAT     H2 9312   3.596   7.174   9.396
 3024WAT      O 9313   4.925   1.929   7.318
 3024WAT     H1 9314   5.014   1.951   7.277
 3024WAT     H2 9315   4.939   1.876   7.402
 3025WAT      O 9316   0.114   3.862   1.558
 3025WAT     H1 9317   0.119   3.767   1.588
 3025WAT     H2 9318   0.080   3.919   1.633
 3026WAT      O 9319   1.932   1.093   1.510
 3026WAT     H1 9320   1.935   1.084   1.609
 3026WAT     H2 9321   1.841   1.123   1.481
 3027WAT      O 9322   7.172   3.168   5.030
 3027WAT     H1 9323   7.088   3.201   5.072
 3027WAT     H2 9324   7.151   3.093   4.967
 3028WAT      O 9325   2.991   4.486   1.546
 3028WAT     H1 9326   2.972   4.447   1.456
 3028WAT     H2 9327   3.081   4.457   1.577
 3029WAT      O 9328   5.787   1.034   3.200
 3029WAT     H1 9329   5.702   0.994   3.164
 3029WAT     H2 9330   5.800   1.125   3.161
 3030WAT      O 9331   6.653   3.573   2.922
 3030WAT     H1 9332   6.744   3.564   2.883
 3030WAT     H2 9333   6.638   3.503   2.991
 3031WAT      O 9334   6.263   8.024   7.642
 3031WAT     H1 9335   6.296   8.061   7.555
 3031WAT     H2 9336   6.335   8.033   7.711
 3032WAT      O 9337   2.476   1.088   3.006
 3032WAT     H1 9338   2.445   0.999   2.971
 3032WAT     H2 9339   2.531   1.133   2.936
 3033WAT      O 9340   1.123   1.566   3.344
 3033WAT     H1 9341   1.138   1.610   3.433
 3033WAT     H2 9342   1.153   1.628   3.272
 3034WAT      O 9343   8.731   8.717   5.600
 3034WAT     H1 9344   8.677   8.759   5.528
 3034WAT     H2 9345   8.694   8.743   5.689
 3035WAT      O 9346   4.232   4.234   3.969
 3035WAT     H1 9347   4.161   4.284   3.921
 3035WAT     H2 9348   4.314   4.291   3.977
 3036WAT      O 9349   7.364   2.799   3.334
 3036WAT     H1 9350   7.287   2.838   3.283
 3036WAT     H2 9351   7.439   2.781   3.271
 3037WAT      O 9352   7.765   7.261   0.565
 3037WAT     H1 9353   7.827   7.202   0.512
 3037WAT     H2 9354   7.728   7.209   0.642
 3038WAT      O 9355   4.457   4.797   0.300
 3038WAT     H1 9356   4.447   4.830   0.394
 3038WAT     H2 9357   4.394   4.720   0.285
 3039WAT      O 9358   7.967   6.268   3.185
 3039WAT     H1 9359   8.038   6.328   3.223
 3039WAT     H2 9360   7.877   6.302   3.213
 3040WAT      O 9361   2.815   7.701   8.361
 3040WAT     H1 9362   2.880   7.777   8.354
 3040WAT     H2 9363   2.851   7.631   8.422
 3041WAT      O 9364   8.352   7.882   8.881
 3041WAT     H1 9365   8.256   7.906   8.865
 3041WAT     H2 9366   8.362   7.783   8.882
 3042WAT      O 9367   5.777   1.969   9.213
 3042WAT     H1 9368   5.699   2.005   9.265
 3042WAT     H2 9369   5.861   1.980   9.266
 3043WAT      O 9370   5.414   3.465   0.123
 3043WAT     H1 9371   5.373   3.509   0.203
 3043WAT     H2 9372   5.512   3.453   0.137
 3044WAT      O 9373   2.863   4.964   9.506
 3044WAT     H1 9374   2.948   4.912   9.517
 3044WAT     H2 9375   2.839   4.970   9.409
 3045WAT      O 9376   6.007   2.408   5.570
 3045WAT     H1 9377   6.079   2.357   5.523
 3045WAT     H2 9378   5.970   2.477   5.509
 3046WAT      O 9379   3.561   6.874   2.563
 3046WAT     H1 9380   3.534   6.782   2.537
 3046WAT     H2 9381   3.580   6.929   2.482
 3047WAT      O 9382   6.755   4.660   0.652
 3047WAT     H1 9383   6.841   4.709   0.639
 3047WAT     H2 9384   6.743   4.640   0.749
 3048WAT      O 9385   7.875   9.751   3.031
 3048WAT     H1 9386   7.820   9.789   2.957
 3048WAT     H2 9387   7.816   9.696   3.091
 3049WAT      O 9388   8.861   3.947   6.902
 3049WAT     H1 9389   8.954   3.958   6.936
 3049WAT     H2 9390   8.834   3.851   6.909
 3050WAT      O 9391   2.450   7.787   4.181
 3050WAT     H1 9392   2.469   7.824   4.090
 3050WAT     H2 9393   2.413   7.859   4.240
 3051WAT      O 9394   6.686   1.087   4.581
 3051WAT     H1 9395   6.615   1.151   4.611
 3051WAT     H2 9396   6.776   1.132   4.586
 3052WAT      O 9397   3.246   0.726   7.800
 3052WAT     H1 9398   3.234   0.753   7.896
 3052WAT     H2 9399   3.343   0.732   7.775
 3053WAT      O 9400   2.214   9.380   7.472
 3053WAT     H1 9401   2.152   9.302   7.461
 3053WAT     H2 9402   2.271   9.366   7.553
 3054WAT      O 9403   8.890   6.067   1.269
 3054WAT     H1 9404   8.890   6.116   1.183
 3054WAT     H2 9405   8.889   6.132   1.345
 3055WAT      O 9406   4.731   2.890   0.234
 3055WAT     H1 9407   4.689   2.940   0.310
 3055WAT     H2 9408   4.830   2.898   0.240
 3056WAT      O 9409   9.551   6.590   4.478
 3056WAT     H1 9410   9.454   6.598   4.497
 3056WAT     H2 9411   9.576   6.653   4.404
 3057WAT      O 9412   7.606   5.479   0.413
 3057WAT     H1 9413   7.609   5.557   0.476
 3057WAT     H2 9414   7.517   5.434   0.421
 3058WAT      O 9415   5.679   7.409   5.465
 3058WAT     H1 9416   5.600   7.349   5.462
 3058WAT     H2 9417   5.657   7.495   5.419
 3059WAT      O 9418   4.945   7.392   7.202
 3059WAT     H1 9419   4.970   7.316   7.142
 3059WAT     H2 9420   4.847   7.388   7.222
 3060WAT      O 9421   0.122   0.062   4.087
 3060WAT     H1 9422   0.033   0.071   4.042
 3060WAT     H2 9423   0.108   0.052   4.186
 3061WAT      O 9424   5.235   1.020   1.125
 3061WAT     H1 9425   5.285   0.958   1.186
 3061WAT     H2 9426   5.147   0.979   1.102
 3062WAT      O 9427   6.779   9.544   7.438
 3062WAT     H1 9428   6.736   9.631   7.411
 3062WAT     H2 9429   6.752   9.473   7.373
 3063WAT      O 9430   7.671   2.338   2.137
 3063WAT     H1 9431   7.585   2.366   2.094
 3063WAT     H2 9432   7.654   2.304   2.229
 3064WAT      O 9433   9.317   5.190   0.584
 3064WAT     H1 9434   9.321   5.214   0.681
 3064WAT     H2 9435   9.272   5.102   0.573
 3065WAT      O 9436   8.027   2.247   2.076
 3065WAT     H1 9437   8.126   2.251   2.092
 3065WAT     H2 9438   7.979   2.283   2.155
 3066WAT      O 9439   8.398   1.088   2.855
 3066WAT     H1 9440   8.420   1.002   2.902
 3066WAT     H2 9441   8.344   1.069   2.773
 3067WAT      O 9442   7.860   5.826   5.312
 3067WAT     H1 9443   7.891   5.732   5.298
 3067WAT     H2 9444   7.760   5.830   5.301
 3068WAT      O 9445   8.670   0.216   1.324
 3068WAT     H1 9446   8.749   0.244   1.270
 3068WAT     H2 9447   8.619   0.298   1.352
 3069WAT      O 9448   3.378   8.146   4.221
 3069WAT     H1 9449   3.334   8.151   4.131
 3069WAT     H2 9450   3.477   8.153   4.210
 3070WAT      O 9451   9.667   5.904   1.717
 3070WAT     H1 9452   9.613   5.983   1.688
 3070WAT     H2 9453   9.608   5.825   1.728
 3071WAT      O 9454   5.612   1.818   5.559
 3071WAT     H1 9455   5.546   1.882   5.522
 3071WAT     H2 9456   5.691   1.868   5.594
 3072WAT      O 9457   1.675   9.058   6.261
 3072WAT     H1 9458   1.591   9.004   6.252
 3072WAT     H2 9459   1.734   9.041   6.183
 3073WAT      O 9460   4.423   4.728   2.660
 3073WAT     H1 9461   4.397   4.633   2.675
 3073WAT     H2 9462   4.360   4.770   2.594
 3074WAT      O 9463   9.420   0.103   6.869
 3074WAT     H1 9464   9.460   0.189   6.836
 3074WAT     H2 9465   9.459   0.079   6.957
 3075WAT      O 9466   2.928   3.800   8.497
 3075WAT     H1 9467   2.832   3.827   8.510
 3075WAT     H2 9468   2.979   3.878   8.461
 3076WAT      O 9469   6.947   0.206   3.425
 3076WAT     H1 9470   6.986   0.193   3.334
 3076WAT     H2 9471   7.015   0.248   3.486
 3077WAT      O 9472   6.426   0.792   0.974
 3077WAT     H1 9473   6.336   0.824   1.002
 3077WAT     H2 9474   6.416   0.715   0.911
 3078WAT      O 9475   2.592   1.344   4.775
 3078WAT     H1 9476   2.506   1.323   4.822
 3078WAT     H2 9477   2.628   1.260   4.733
 3079WAT      O 9478   8.291   2.730   2.579
 3079WAT     H1 9479   8.389   2.745   2.590
 3079WAT     H2 9480   8.254   2.797   2.515
 3080WAT      O 9481   7.055   1.666   1.881
 3080WAT     H1 9482   7.013   1.602   1.817
 3080WAT     H2 9483   7.030   1.760   1.857
 3081WAT      O 9484   4.446   3.680   9.124
 3081WAT     H1 9485   4.528   3.622   9.132
 3081WAT     H2 9486   4.391   3.672   9.207
 3082WAT      O 9487   3.695   1.774   8.302
 3082WAT     H1 9488   3.780   1.770   8.250
 3082WAT     H2 9489   3.637   1.697   8.278
 3083WAT      O 9490   3.395   8.932   8.454
 3083WAT     H1 9491   3.333   8.868   8.499
 3083WAT     H2 9492   3.429   8.998   8.520
 3084WAT      O 9493   9.431   1.725   5.008
 3084WAT     H1 9494   9.366   1.693   4.940
 3084WAT     H2 9495   9.485   1.648   5.043
 3085WAT      O 9496   8.121   7.053   5.393
 3085WAT     H1 9497   8.186   6.979   5.407
 3085WAT     H2 9498   8.039   7.036   5.447
 3086WAT      O 9499   3.274   6.603   9.242
 3086WAT     H1 9500   3.224   6.686   9.219
 3086WAT     H2 9501   3.325   6.572   9.162
 3087WAT      O 9502   7.847   8.802   8.771
 3087WAT     H1 9503   7.893   8.799   8.860
 3087WAT     H2 9504   7.910   8.839   8.702
 3088WAT      O 9505   3.889   6.248   9.625
 3088WAT     H1 9506   3.926   6.208   9.709
 3088WAT     H2 9507   3.899   6.348   9.629
 3089WAT      O 9508   3.474   4.763   0.561
 3089WAT     H1 9509   3.494   4.836   0.627
 3089WAT     H2 9510   3.375   4.747   0.558
 3090WAT      O 9511   9.771   4.597   5.190
 3090WAT     H1 9512   9.681   4.637   5.209
 3090WAT     H2 9513   9.795   4.533   5.263
 3091WAT      O 9514   6.927   4.048   7.725
 3091WAT     H1 9515   6.943   4.141   7.693
 3091WAT     H2 9516   7.014   4.006   7.753
 3092WAT      O 9517   4.014   9.552   0.594
 3092WAT     H1 9518   3.995   9.649   0.607
 3092WAT     H2 9519   4.111   9.540   0.573
 3093WAT      O 9520   2.367   1.983   7.719
 3093WAT     H1 9521   2.297   1.991   7.790
 3093WAT     H2 9522   2.411   1.893   7.725
 3094WAT      O 9523   6.172   2.877   7.501
 3094WAT     H1 9524   6.118   2.903   7.582
 3094WAT     H2 9525   6.111   2.858   7.424
 3095WAT      O 9526   0.045   0.655   1.532
 3095WAT     H1 9527   0.124   0.599   1.508
 3095WAT     H2 9528  -0.039   0.601   1.523
 3096WAT      O 9529   9.378   9.359   6.745
 3096WAT     H1 9530   9.326   9.380   6.662
 3096WAT     H2 9531   9.318   9.314   6.811
 3097WAT      O 9532   7.658   9.192   1.594
 3097WAT     H1 9533   7.728   9.263   1.602
 3097WAT     H2 9534   7.640   9.154   1.684
 3098WAT      O 9535   6.039   8.072   4.322
 3098WAT     H1 9536   6.114   8.093   4.259
 3098WAT     H2 9537   6.054   8.120   4.409
 3099WAT      O 9538   8.979   6.784   8.207
 3099WAT     H1 9539   8.898   6.752   8.257
 3099WAT     H2 9540   8.958   6.791   8.110
 3100WAT      O 9541   9.812   3.691   0.241
 3100WAT     H1 9542   9.788   3.780   0.280
 3100WAT     H2 9543   9.803   3.695   0.141
 3101WAT      O 9544   1.028   8.410   2.452
 3101WAT     H1 9545   1.089   8.330   2.445
 3101WAT     H2 9546   0.933   8.380   2.450
 3102WAT      O 9547   8.772   5.298   0.953
 3102WAT     H1 9548   8.866   5.281   0.923
 3102WAT     H2 9549   8.738   5.382   0.911
 3103WAT      O 9550   1.700   6.710   3.384
 3103WAT     H1 9551   1.729   6.758   3.467
 3103WAT     H2 9552   1.738   6.756   3.304
 3104WAT      O 9553   1.814   3.972   1.769
 3104WAT     H1 9554   1.891   3.924   1.726
 3104WAT     H2 9555   1.823   3.967   1.868
 3105WAT      O 9556   9.598   8.042   7.767
 3105WAT     H1 9557   9.572   7.956   7.811
 3105WAT     H2 9558   9.540   8.116   7.802
 3106WAT      O 9559   1.283   1.391   7.398
 3106WAT     H1 9560   1.272   1.411   7.495
 3106WAT     H2 9561   1.379   1.402   7.372
 3107WAT      O 9562   6.473   9.617   3.432
 3107WAT     H1 9563   6.479   9.712   3.464
 3107WAT     H2 9564   6.460   9.556   3.510
 3108WAT      O 9565   4.338   0.393   7.244
 3108WAT     H1 9566   4.249   0.371   7.284
 3108WAT     H2 9567   4.410   0.353   7.301
 3109WAT      O 9568   9.551   1.735   1.743
 3109WAT     H1 9569   9.564   1.662   1.676
 3109WAT     H2 9570   9.627   1.800   1.736
 3110WAT      O 9571   5.272   8.689   7.830
 3110WAT     H1 9572   5.188   8.690   7.776
 3110WAT     H2 9573   5.339   8.750   7.788
 3111WAT      O 9574   5.002   0.172   4.068
 3111WAT     H1 9575   4.980   0.224   3.985
 3111WAT     H2 9576   4.987   0.074   4.051
 3112WAT      O 9577   2.113   2.230   3.399
 3112WAT     H1 9578   2.185   2.217   3.467
 3112WAT     H2 9579   2.046   2.156   3.408
 3113WAT      O 9580   1.278   2.273   7.694
 3113WAT     H1 9581   1.248   2.238   7.783
 3113WAT     H2 9582   1.378   2.271   7.690
 3114WAT      O 9583   3.845   8.738   3.480
 3114WAT     H1 9584   3.882   8.784   3.560
 3114WAT     H2 9585   3.781   8.799   3.433
 3115WAT      O 9586   7.412   1.198   1.109
 3115WAT     H1 9587   7.482   1.150   1.162
 3115WAT     H2 9588   7.377   1.137   1.038
 3116WAT      O 9589   6.988   3.824   2.481
 3116WAT     H1 9590   7.081   3.791   2.490
 3116WAT     H2 9591   6.924   3.748   2.493
 3117WAT      O 9592   8.228   1.476   1.631
 3117WAT     H1 9593   8.213   1.507   1.537
 3117WAT     H2 9594   8.318   1.506   1.662
 3118WAT      O 9595   4.876   7.839   1.319
 3118WAT     H1 9596   4.809   7.776   1.358
 3118WAT     H2 9597   4.866   7.929   1.362
 3119WAT      O 9598   1.498   5.083   7.685
 3119WAT     H1 9599   1.473   5.176   7.658
 3119WAT     H2 9600   1.513   5.080   7.784
 3120WAT      O 9601   8.963   4.164   6.725
 3120WAT     H1 9602   8.950   4.199   6.818
 3120WAT     H2 9603   8.920   4.073   6.718
 3121WAT      O 9604   4.834   9.277   1.485
 3121WAT     H1 9605   4.752   9.228   1.515
 3121WAT     H2 9606   4.903   9.211   1.456
 3122WAT      O 9607   7.258   6.223   1.924
 3122WAT     H1 9608   7.187   6.288   1.951
 3122WAT     H2 9609   7.247   6.199   1.828
 3123WAT      O 9610   3.697   1.329   3.320
 3123WAT     H1 9611   3.691   1.289   3.229
 3123WAT     H2 9612   3.790   1.364   3.335
 3124WAT      O 9613   6.457   8.145   6.511
 3124WAT     H1 9614   6.515   8.102   6.442
 3124WAT     H2 9615   6.368   8.100   6.512
 3125WAT      O 9616   8.616   3.406   5.464
 3125WAT     H1 9617   8.578   3.447   5.547
 3125WAT     H2 9618   8.615   3.306   5.473
 3126WAT      O 9619   1.927   1.071   0.767
 3126WAT     H1 9620   1.980   1.151   0.793
 3126WAT     H2 9621   1.976   1.021   0.695
 3127WAT      O 9622   9.032   1.894   0.846
 3127WAT     H1 9623   9.021   1.970   0.781
 3127WAT     H2 9624   9.023   1.807   0.797
 3128WAT      O 9625   3.249   4.556   8.596
 3128WAT     H1 9626   3.179   4.583   8.662
 3128WAT     H2 9627   3.336   4.542   8.644
 3129WAT      O 9628   7.692   6.287   7.038
 3129WAT     H1 9629   7.770   6.244   6.993
 3129WAT     H2 9630   7.712   6.383   7.055
 3130WAT      O 9631   4.131   3.742   1.894
 3130WAT     H1 9632   4.152   3.687   1.974
 3130WAT     H2 9633   4.195   3.819   1.887
 3131WAT      O 9634   5.201   7.871   9.765
 3131WAT     H1 9635   5.290   7.905   9.735
 3131WAT     H2 9636   5.215   7.793   9.826
 3132WAT      O 9637   6.394   2.166   1.958
 3132WAT     H1 9638   6.315   2.172   1.897
 3132WAT     H2 9639   6.387   2.081   2.012
 3133WAT      O 9640   1.037   3.150   3.145
 3133WAT     H1 9641   0.961   3.125   3.085
 3133WAT     H2 9642   1.099   3.072   3.154
 3134WAT      O 9643   1.587   0.816   6.207
 3134WAT     H1 9644   1.594   0.749   6.134
 3134WAT     H2 9645   1.669   0.811   6.265
 3135WAT      O 9646   1.965   1.407   4.443
 3135WAT     H1 9647   1.956   1.371   4.350
 3135WAT     H2 9648   2.052   1.377   4.482
 3136WAT      O 9649   8.228   6.265   3.649
 3136WAT     H1 9650   8.198   6.230   3.737
 3136WAT     H2 9651   8.179   6.350   3.628
 3137WAT      O 9652   9.793   0.623   7.997
 3137WAT     H1 9653   9.877   0.678   7.992
 3137WAT     H2 9654   9.783   0.571   7.912
 3138WAT      O 9655   5.893   9.038   2.999
 3138WAT     H1 9656   5.970   9.093   2.966
 3138WAT     H2 9657   5.807   9.077   2.965
 3139WAT      O 9658   4.913   1.090   5.298
 3139WAT     H1 9659   4.919   1.057   5.204
 3139WAT     H2 9660   4.991   1.056   5.351
 3140WAT      O 9661   4.995   2.728   1.159
 3140WAT     H1 9662   5.053   2.692   1.233
 3140WAT     H2 9663   5.053   2.762   1.085
 3141WAT      O 9664   2.302   1.139   6.893
 3141WAT     H1 9665   2.311   1.138   6.793
 3141WAT     H2 9666   2.308   1.046   6.928
 3142WAT      O 9667   4.880   2.582   2.768
 3142WAT     H1 9668   4.830   2.539   2.843
 3142WAT     H2 9669   4.816   2.637   2.713
 3143WAT      O 9670   4.897   0.713   8.632
 3143WAT     H1 9671   4.973   0.650   8.618
 3143WAT     H2 9672   4.882   0.767   8.549
 3144WAT      O 9673   5.798   9.329   1.434
 3144WAT     H1 9674   5.747   9.415   1.440
 3144WAT     H2 9675   5.744   9.256   1.476
 3145WAT      O 9676   5.391   1.862   2.903
 3145WAT     H1 9677   5.487   1.834   2.894
 3145WAT     H2 9678   5.337   1.785   2.936
 3146WAT      O 9679   9.505   4.131   6.485
 3146WAT     H1 9680   9.576   4.178   6.432
 3146WAT     H2 9681   9.459   4.197   6.545
 3147WAT      O 9682   9.448   6.241   5.343
 3147WAT     H1 9683   9.368   6.272   5.292
 3147WAT     H2 9684   9.531   6.273   5.298
 3148WAT      O 9685   7.160   6.341   1.071
 3148WAT     H1 9686   7.093   6.301   1.009
 3148WAT     H2 9687   7.243   6.363   1.019
 3149WAT      O 9688   0.566   2.363   2.589
 3149WAT     H1 9689   0.638   2.373   2.520
 3149WAT     H2 9690   0.511   2.282   2.568
 3150WAT      O 9691   8.557   8.263   6.353
 3150WAT     H1 9692   8.503   8.230   6.430
 3150WAT     H2 9693   8.557   8.194   6.280
 3151WAT      O 9694   1.174   1.315   6.652
 3151WAT     H1 9695   1.123   1.397   6.677
 3151WAT     H2 9696   1.120   1.234   6.675
 3152WAT      O 9697   3.291   9.676   3.912
 3152WAT     H1 9698   3.344   9.707   3.833
 3152WAT     H2 9699   3.236   9.752   3.947
 3153WAT      O 9700   3.101   6.430   3.699
 3153WAT     H1 9701   3.003   6.427   3.713
 3153WAT     H2 9702   3.132   6.343   3.660
 3154WAT      O 9703   4.232   9.055   1.414
 3154WAT     H1 9704   4.253   9.102   1.328
 3154WAT     H2 9705   4.232   9.121   1.489
 3155WAT      O 9706   3.986   0.551   0.356
 3155WAT     H1 9707   3.923   0.566   0.432
 3155WAT     H2 9708   4.019   0.457   0.358
 3156WAT      O 9709   9.528   8.183   6.465
 3156WAT     H1 9710   9.615   8.144   6.437
 3156WAT     H2 9711   9.472   8.201   6.384
 3157WAT      O 9712   0.653   2.447   8.924
 3157WAT     H1 9713   0.697   2.521   8.874
 3157WAT     H2 9714   0.691   2.359   8.894
 3158WAT      O 9715   2.777   1.879   0.511
 3158WAT     H1 9716   2.766   1.935   0.429
 3158WAT     H2 9717   2.749   1.931   0.591
 3159WAT      O 9718   0.654   4.632   3.940
 3159WAT     H1 9719   0.719   4.566   3.977
 3159WAT     H2 9720   0.660   4.633   3.840
 3160WAT      O 9721   9.824   8.923   7.747
 3160WAT     H1 9722   9.891   8.927   7.821
 3160WAT     H2 9723   9.777   9.011   7.740
 3161WAT      O 9724   2.460   2.561   7.201
 3161WAT     H1 9725   2.549   2.587   7.164
 3161WAT     H2 9726   2.461   2.463   7.224
 3162WAT      O 9727   0.180   3.543   7.375
 3162WAT     H1 9728   0.143   3.598   7.450
 3162WAT     H2 9729   0.221   3.604   7.307
 3163WAT      O 9730   2.885   0.842   4.814
 3163WAT     H1 9731   2.941   0.911   4.860
 3163WAT     H2 9732   2.788   0.867   4.822
 3164WAT      O 9733   9.519   0.475   4.303
 3164WAT     H1 9734   9.458   0.402   4.273
 3164WAT     H2 9735   9.487   0.563   4.267
 3165WAT      O 9736   8.546   0.995   9.367
 3165WAT     H1 9737   8.515   0.920   9.426
 3165WAT     H2 9738   8.636   0.973   9.329
 3166WAT      O 9739   6.288   3.032   0.665
 3166WAT     H1 9740   6.300   2.935   0.681
 3166WAT     H2 9741   6.247   3.047   0.575
 3167WAT      O 9742   6.663   0.455   9.736
 3167WAT     H1 9743   6.718   0.430   9.816
 3167WAT     H2 9744   6.678   0.389   9.662
 3168WAT      O 9745   8.968   5.634   1.872
 3168WAT     H1 9746   8.885   5.592   1.907
 3168WAT     H2 9747   9.030   5.653   1.949
 3169WAT      O 9748   1.866   2.787   7.958
 3169WAT     H1 9749   1.962   2.791   7.986
 3169WAT     H2 9750   1.807   2.795   8.038
 3170WAT      O 9751   2.020   5.649   1.218
 3170WAT     H1 9752   1.982   5.561   1.190
 3170WAT     H2 9753   2.119   5.641   1.229
 3171WAT      O 9754   7.322   4.204   1.223
 3171WAT     H1 9755   7.314   4.247   1.134
 3171WAT     H2 9756   7.331   4.275   1.294
 3172WAT      O 9757   4.039   7.341   8.987
 3172WAT     H1 9758   4.052   7.403   8.909
 3172WAT     H2 9759   3.964   7.277   8.966
 3173WAT      O 9760   6.560   5.104   1.414
 3173WAT     H1 9761   6.576   5.138   1.507
 3173WAT     H2 9762   6.474   5.053   1.412
 3174WAT      O 9763   0.721   9.510   1.977
 3174WAT     H1 9764   0.809   9.556   1.965
 3174WAT     H2 9765   0.687   9.528   2.069
 3175WAT      O 9766   6.094   2.395   1.083
 3175WAT     H1 9767   6.152   2.384   1.002
 3175WAT     H2 9768   6.012   2.446   1.059
 3176WAT      O 9769   8.706   4.823   6.972
 3176WAT     H1 9770   8.705   4.920   7.000
 3176WAT     H2 9771   8.781   4.808   6.908
 3177WAT      O 9772   5.219   0.399   2.042
 3177WAT     H1 9773   5.295   0.462   2.056
 3177WAT     H2 9774   5.133   0.449   2.046
 3178WAT      O 9775   3.747   1.952   8.601
 3178WAT     H1 9776   3.789   1.893   8.532
 3178WAT     H2 9777   3.652   1.970   8.575
 3179WAT      O 9778   9.456   7.439   9.848
 3179WAT     H1 9779   9.375   7.473   9.801
 3179WAT     H2 9780   9.533   7.433   9.784
 3180WAT      O 9781   0.643   3.420   5.870
 3180WAT     H1 9782   0.702   3.374   5.804
 3180WAT     H2 9783   0.622   3.512   5.838
 3181WAT      O 9784   9.585   9.662   9.281
 3181WAT     H1 9785   9.643   9.694   9.206
 3181WAT     H2 9786   9.538   9.740   9.322
 3182WAT      O 9787   7.109   2.198   4.556
 3182WAT     H1 9788   7.144   2.281   4.511
 3182WAT     H2 9789   7.111   2.210   4.655
 3183WAT      O 9790   0.947   3.935   8.230
 3183WAT     H1 9791   1.031   3.905   8.275
 3183WAT     H2 9792   0.912   3.860   8.174
 3184WAT      O 9793   7.992   6.110   4.273
 3184WAT     H1 9794   8.068   6.162   4.235
 3184WAT     H2 9795   8.013   6.084   4.368
 3185WAT      O 9796   2.386   7.806   5.925
 3185WAT     H1 9797   2.437   7.864   5.989
 3185WAT     H2 9798   2.289   7.830   5.928
 3186WAT      O 9799   8.542   1.031   8.541
 3186WAT     H1 9800   8.519   1.128   8.548
 3186WAT     H2 9801   8.530   1.000   8.447
 3187WAT      O 9802   9.255   9.388   0.387
 3187WAT     H1 9803   9.296   9.467   0.341
 3187WAT     H2 9804   9.252   9.311   0.323
 3188WAT      O 9805   8.771   0.999   9.882
 3188WAT     H1 9806   8.795   0.951   9.966
 3188WAT     H2 9807   8.673   0.991   9.866
 3189WAT      O 9808   4.611   9.412   9.471
 3189WAT     H1 9809   4.624   9.442   9.566
 3189WAT     H2 9810   4.641   9.483   9.409
 3190WAT      O 9811   2.487   9.230   1.628
 3190WAT     H1 9812   2.549   9.193   1.558
 3190WAT     H2 9813   2.534   9.299   1.681
 3191WAT      O 9814   4.121   5.024   0.282
 3191WAT     H1 9815   4.141   4.967   0.362
 3191WAT     H2 9816   4.185   5.001   0.208
 3192WAT      O 9817   1.387   4.138   1.940
 3192WAT     H1 9818   1.294   4.153   1.971
 3192WAT     H2 9819   1.449   4.203   1.984
 3193WAT      O 9820   2.630   1.317   3.682
 3193WAT     H1 9821   2.730   1.307   3.675
 3193WAT     H2 9822   2.607   1.414   3.686
 3194WAT      O 9823   5.451   5.399   7.142
 3194WAT     H1 9824   5.428   5.393   7.239
 3194WAT     H2 9825   5.418   5.485   7.104
 3195WAT      O 9826   3.654   1.046   5.382
 3195WAT     H1 9827   3.591   1.074   5.455
 3195WAT     H2 9828   3.748   1.050   5.416
 3196WAT      O 9829   5.579   2.608   3.339
 3196WAT     H1 9830   5.622   2.537   3.284
 3196WAT     H2 9831   5.647   2.648   3.401
 3197WAT      O 9832   9.144   1.253   0.295
 3197WAT     H1 9833   9.113   1.330   0.351
 3197WAT     H2 9834   9.075   1.234   0.224
 3198WAT      O 9835   9.505   0.936   9.599
 3198WAT     H1 9836   9.574   0.901   9.662
 3198WAT     H2 9837   9.504   1.036   9.603
 3199WAT      O 9838   5.355   0.781   7.322
 3199WAT     H1 9839   5.428   0.725   7.362
 3199WAT     H2 9840   5.345   0.866   7.375
 3200WAT      O 9841   3.292   0.349   8.718
 3200WAT     H1 9842   3.356   0.272   8.713
 3200WAT     H2 9843   3.206   0.323   8.674
 3201WAT      O 9844   6.238   7.263   6.302
 3201WAT     H1 9845   6.278   7.313   6.379
 3201WAT     H2 9846   6.164   7.318   6.262
 3202WAT      O 9847   8.952   1.352   5.616
 3202WAT     H1 9848   8.914   1.320   5.529
 3202WAT     H2 9849   8.982   1.274   5.671
 3203WAT      O 9850   8.798   6.251   7.979
 3203WAT     H1 9851   8.783   6.288   8.071
 3203WAT     H2 9852   8.896   6.252   7.958
 3204WAT      O 9853   0.090   4.957   7.544
 3204WAT     H1 9854   0.166   5.020   7.559
 3204WAT     H2 9855   0.096   4.919   7.452
 3205WAT      O 9856   3.253   2.585   7.288
 3205WAT     H1 9857   3.215   2.508   7.237
 3205WAT     H2 9858   3.352   2.573   7.299
 3206WAT      O 9859   6.762   4.313   0.241
 3206WAT     H1 9860   6.662   4.310   0.243
 3206WAT     H2 9861   6.796   4.329   0.334
 3207WAT      O 9862   5.364   9.456   8.121
 3207WAT     H1 9863   5.307   9.373   8.126
 3207WAT     H2 9864   5.454   9.436   8.159
 3208WAT      O 9865   9.731   6.589   1.990
 3208WAT     H1 9866   9.693   6.678   1.965
 3208WAT     H2 9867   9.824   6.581   1.955
 3209WAT      O 9868   7.658   9.415   0.588
 3209WAT     H1 9869   7.740   9.467   0.610
 3209WAT     H2 9870   7.627   9.365   0.669
 3210WAT      O 9871   3.592   1.423   7.965
 3210WAT     H1 9872   3.642   1.506   7.990
 3210WAT     H2 9873   3.531   1.442   7.889
 3211WAT      O 9874   8.884   1.664   9.032
 3211WAT     H1 9875   8.877   1.565   9.038
 3211WAT     H2 9876   8.865   1.704   9.122
 3212WAT      O 9877   2.813   3.140   9.526
 3212WAT     H1 9878   2.743   3.072   9.546
 3212WAT     H2 9879   2.885   3.099   9.470
 3213WAT      O 9880   6.689   5.573   0.707
 3213WAT     H1 9881   6.649   5.665   0.699
 3213WAT     H2 9882   6.720   5.543   0.617
 3214WAT      O 9883   6.220   1.737   2.106
 3214WAT     H1 9884   6.241   1.716   2.011
 3214WAT     H2 9885   6.272   1.818   2.134
 3215WAT      O 9886   0.891   2.609   1.084
 3215WAT     H1 9887   0.931   2.654   1.164
 3215WAT     H2 9888   0.959   2.548   1.043
 3216WAT      O 9889   3.492   3.658   8.988
 3216WAT     H1 9890   3.591   3.658   8.978
 3216WAT     H2 9891   3.451   3.620   8.905
 3217WAT      O 9892   9.756   7.078   2.830
 3217WAT     H1 9893   9.812   7.160   2.815
 3217WAT     H2 9894   9.665   7.105   2.861
 3218WAT      O 9895   5.992   7.051   7.372
 3218WAT     H1 9896   5.983   7.091   7.281
 3218WAT     H2 9897   6.075   6.994   7.375
 3219WAT      O 9898   8.542   8.111   4.402
 3219WAT     H1 9899   8.557   8.030   4.458
 3219WAT     H2 9900   8.504   8.084   4.314
 3220WAT      O 9901   9.254   1.073   9.209
 3220WAT     H1 9902   9.251   0.974   9.221
 3220WAT     H2 9903   9.335   1.110   9.255
 3221WAT      O 9904   6.082   9.717   3.875
 3221WAT     H1 9905   6.101   9.811   3.903
 3221WAT     H2 9906   6.002   9.715   3.816
 3222WAT      O 9907   9.622   2.003   4.701
 3222WAT     H1 9908   9.703   2.014   4.644
 3222WAT     H2 9909   9.579   2.092   4.715
 3223WAT      O 9910   1.852   3.086   3.875
 3223WAT     H1 9911   1.800   3.152   3.821
 3223WAT     H2 9912   1.875   3.127   3.964
 3224WAT      O 9913   1.269   0.484   1.679
 3224WAT     H1 9914   1.319   0.427   1.745
 3224WAT     H2 9915   1.224   0.559   1.728
 3225WAT      O 9916   1.105   2.238   6.853
 3225WAT     H1 9917   1.197   2.274   6.868
 3225WAT     H2 9918   1.054   2.238   6.939
 3226WAT      O 9919   8.486   4.830   0.556
 3226WAT     H1 9920   8.526   4.739   0.569
 3226WAT     H2 9921   8.431   4.830   0.472
 3227WAT      O 9922   6.975   2.848   8.127
 3227WAT     H1 9923   7.038   2.908   8.177
 3227WAT     H2 9924   6.914   2.803   8.192
 3228WAT      O 9925   4.019   8.143   9.170
 3228WAT     H1 9926   4.104   8.192   9.189
 3228WAT     H2 9927   4.005   8.137   9.071
 3229WAT      O 9928   9.041   1.587   3.910
 3229WAT     H1 9929   8.959   1.581   3.853
 3229WAT     H2 9930   9.051   1.503   3.963
 3230WAT      O 9931   9.203   8.170   2.044
 3230WAT     H1 9932   9.171   8.190   2.137
 3230WAT     H2 9933   9.289   8.120   2.049
 3231WAT      O 9934   9.526   4.251   1.145
 3231WAT     H1 9935   9.459   4.252   1.220
 3231WAT     H2 9936   9.610   4.206   1.176
 3232WAT      O 9937   5.048   3.843   0.395
 3232WAT     H1 9938   5.139   3.879   0.415
 3232WAT     H2 9939   4.985   3.867   0.468
 3233WAT      O 9940   9.194   5.520   2.579
 3233WAT     H1 9941   9.200   5.479   2.670
 3233WAT     H2 9942   9.226   5.615   2.584
 3234WAT      O 9943   3.671   7.049   3.909
 3234WAT     H1 9944   3.760   7.063   3.954
 3234WAT     H2 9945   3.641   6.955   3.924
 3235WAT      O 9946   1.222   3.008   0.713
 3235WAT     H1 9947   1.177   3.031   0.800
 3235WAT     H2 9948   1.161   2.951   0.658
 3236WAT      O 9949   1.794   4.332   8.812
 3236WAT     H1 9950   1.695   4.339   8.798
 3236WAT     H2 9951   1.813   4.294   8.902
 3237WAT      O 9952   6.019   9.213   4.350
 3237WAT     H1 9953   6.018   9.116   4.374
 3237WAT     H2 9954   5.933   9.255   4.378
 3238WAT      O 9955   1.299   9.358   8.374
 3238WAT     H1 9956   1.344   9.376   8.287
 3238WAT     H2 9957   1.228   9.289   8.361
 3239WAT      O 9958   8.213   7.167   7.369
 3239WAT     H1 9959   8.200   7.077   7.412
 3239WAT     H2 9960   8.243   7.155   7.275
 3240WAT      O 9961   4.178   6.203   5.185
 3240WAT     H1 9962   4.240   6.225   5.260
 3240WAT     H2 9963   4.128   6.119   5.206
 3241WAT      O 9964   4.016   7.198   6.841
 3241WAT     H1 9965   3.918   7.177   6.845
 3241WAT     H2 9966   4.068   7.127   6.888
 3242WAT      O 9967   2.048   9.666   4.423
 3242WAT     H1 9968   2.123   9.641   4.483
 3242WAT     H2 9969   2.053   9.763   4.402
 3243WAT      O 9970   0.389   3.387   9.619
 3243WAT     H1 9971   0.329   3.381   9.698
 3243WAT     H2 9972   0.481   3.414   9.649
 3244WAT      O 9973   0.166   4.444   7.265
 3244WAT     H1 9974   0.087   4.501   7.287
 3244WAT     H2 9975   0.155   4.354   7.307
 3245WAT      O 9976   0.168   9.438   1.764
 3245WAT     H1 9977   0.116   9.353   1.757
 3245WAT     H2 9978   0.258   9.418   1.802
 3246WAT      O 9979   7.104   3.467   9.848
 3246WAT     H1 9980   7.200   3.440   9.855
 3246WAT     H2 9981   7.087   3.510   9.759
 3247WAT      O 9982   2.494   4.415   9.681
 3247WAT     H1 9983   2.566   4.354   9.713
 3247WAT     H2 9984   2.466   4.476   9.755
 3248WAT      O 9985   8.968   2.812   9.860
 3248WAT     H1 9986   8.957   2.729   9.916
 3248WAT     H2 9987   9.065   2.837   9.856
 3249WAT      O 9988   6.186   3.782   1.716
 3249WAT     H1 9989   6.099   3.827   1.696
 3249WAT     H2 9990   6.237   3.834   1.784
 3250WAT      O 9991   7.925   4.499   0.158
 3250WAT     H1 9992   7.886   4.419   0.113
 3250WAT     H2 9993   7.933   4.575   0.094
 3251WAT      O 9994   0.390   4.270   5.128
 3251WAT     H1 9995   0.460   4.224   5.184
 3251WAT     H2 9996   0.435   4.319   5.053
 3252WAT      O 9997   0.240   7.255   8.493
 3252WAT     H1 9998   0.256   7.160   8.465
 3252WAT     H2 9999   0.305   7.279   8.565
 3253WAT      O10000   7.666   9.102   2.127
 3253WAT     H110001   7.647   9.198   2.108
 3253WAT     H210002   7.633   9.079   2.218
 3254WAT      O10003   5.425   6.280   9.180
 3254WAT     H110004   5.334   6.239   9.176
 3254WAT     H210005   5.422   6.373   9.145
 3255WAT      O10006   5.094   3.682   5.178
 3255WAT     H110007   5.096   3.617   5.102
 3255WAT     H210008   5.160   3.755   5.160
 3256WAT      O10009   1.633   0.898   1.471
 3256WAT     H110010   1.566   0.854   1.530
 3256WAT     H210011   1.701   0.831   1.442
 3257WAT      O10012   5.122   2.872   2.141
 3257WAT     H110013   5.213   2.836   2.163
 3257WAT     H210014   5.091   2.931   2.216
 3258WAT      O10015   4.484   2.679   5.744
 3258WAT     H110016   4.413   2.748   5.727
 3258WAT     H210017   4.479   2.648   5.839
 3259WAT      O10018   6.600   3.383   7.494
 3259WAT     H110019   6.541   3.388   7.414
 3259WAT     H210020   6.545   3.390   7.577
 3260WAT      O10021   5.287   0.602   7.887
 3260WAT     H110022   5.305   0.539   7.812
 3260WAT     H210023   5.374   0.629   7.929
 3261WAT      O10024   1.228   3.114   3.778
 3261WAT     H110025   1.198   3.032   3.730
 3261WAT     H210026   1.286   3.088   3.856
 3262WAT      O10027   0.638   2.165   7.508
 3262WAT     H110028   0.705   2.203   7.571
 3262WAT     H210029   0.573   2.235   7.481
 3263WAT      O10030   7.435   6.444   5.794
 3263WAT     H110031   7.434   6.372   5.864
 3263WAT     H210032   7.472   6.528   5.834
 3264WAT      O10033   2.339   1.070   8.121
 3264WAT     H110034   2.419   1.010   8.113
 3264WAT     H210035   2.315   1.080   8.218
 3265WAT      O10036   3.410   4.487   2.259
 3265WAT     H110037   3.495   4.464   2.307
 3265WAT     H210038   3.351   4.539   2.320
 3266WAT      O10039   0.343   6.027   7.663
 3266WAT     H110040   0.441   6.040   7.671
 3266WAT     H210041   0.310   5.969   7.737
 3267WAT      O10042   8.534   7.545   6.817
 3267WAT     H110043   8.502   7.452   6.835
 3267WAT     H210044   8.458   7.609   6.823
 3268WAT      O10045   9.553   2.614   4.723
 3268WAT     H110046   9.482   2.682   4.702
 3268WAT     H210047   9.639   2.641   4.680
 3269WAT      O10048   1.919   7.054   5.465
 3269WAT     H110049   1.924   6.967   5.418
 3269WAT     H210050   1.991   7.115   5.431
 3270WAT      O10051   5.149   3.963   5.822
 3270WAT     H110052   5.055   3.959   5.788
 3270WAT     H210053   5.149   3.996   5.916
 3271WAT      O10054   7.225   1.526   8.440
 3271WAT     H110055   7.126   1.524   8.428
 3271WAT     H210056   7.246   1.534   8.538
 3272WAT      O10057   5.206   8.448   4.988
 3272WAT     H110058   5.195   8.538   4.945
 3272WAT     H210059   5.119   8.419   5.028
 3273WAT      O10060   0.957   5.649   5.464
 3273WAT     H110061   1.019   5.643   5.542
 3273WAT     H210062   0.903   5.564   5.458
 3274WAT      O10063   0.315   9.580   5.258
 3274WAT     H110064   0.376   9.510   5.295
 3274WAT     H210065   0.220   9.557   5.280
 3275WAT      O10066   1.264   8.480   0.514
 3275WAT     H110067   1.340   8.526   0.468
 3275WAT     H210068   1.193   8.547   0.536
 3276WAT      O10069   1.650   2.277   0.255
 3276WAT     H110070   1.696   2.226   0.328
 3276WAT     H210071   1.551   2.261   0.261
 3277WAT      O10072   6.975   3.765   7.870
 3277WAT     H110073   7.043   3.774   7.943
 3277WAT     H210074   6.885   3.750   7.911
 3278WAT      O10075   5.662   4.964   5.843
 3278WAT     H110076   5.571   4.963   5.884
 3278WAT     H210077   5.674   4.881   5.788
 3279WAT      O10078   3.146   2.553   0.422
 3279WAT     H110079   3.112   2.483   0.360
 3279WAT     H210080   3.244   2.566   0.409
 3280WAT      O10081   0.587   7.579   6.845
 3280WAT     H110082   0.536   7.524   6.911
 3280WAT     H210083   0.531   7.656   6.816
 3281WAT      O10084   5.675   0.602   1.240
 3281WAT     H110085   5.670   0.676   1.307
 3281WAT     H210086   5.583   0.582   1.206
 3282WAT      O10087   8.778   0.066   8.960
 3282WAT     H110088   8.708   0.009   8.918
 3282WAT     H210089   8.856   0.009   8.988
 3283WAT      O10090   9.029   4.408   9.203
 3283WAT     H110091   9.112   4.451   9.238
 3283WAT     H210092   9.018   4.430   9.106
 3284WAT      O10093   7.234   6.910   0.938
 3284WAT     H110094   7.294   6.896   1.016
 3284WAT     H210095   7.194   7.002   0.943
 3285WAT      O10096   2.769   1.551   4.377
 3285WAT     H110097   2.851   1.562   4.434
 3285WAT     H210098   2.690   1.591   4.424
 3286WAT      O10099   3.972   2.101   1.027
 3286WAT     H110100   4.028   2.184   1.026
 3286WAT     H210101   3.880   2.123   0.994
 3287WAT      O10102   7.840   0.845   3.081
 3287WAT     H110103   7.853   0.745   3.083
 3287WAT     H210104   7.879   0.882   2.997
 3288WAT      O10105   2.840   7.933   8.618
 3288WAT     H110106   2.899   7.867   8.572
 3288WAT     H210107   2.836   7.911   8.716
 3289WAT      O10108   7.792   4.511   6.232
 3289WAT     H110109   7.775   4.428   6.285
 3289WAT     H210110   7.795   4.488   6.135
 3290WAT      O10111   1.106   9.131   2.190
 3290WAT     H110112   1.196   9.096   2.216
 3290WAT     H210113   1.039   9.105   2.260
 3291WAT      O10114   1.853   5.939   2.272
 3291WAT     H110115   1.782   6.010   2.272
 3291WAT     H210116   1.914   5.953   2.194
 3292WAT      O10117   5.992   8.489   4.652
 3292WAT     H110118   5.901   8.452   4.671
 3292WAT     H210119   6.044   8.495   4.738
 3293WAT      O10120   7.522   0.301   8.811
 3293WAT     H110121   7.583   0.375   8.839
 3293WAT     H210122   7.453   0.336   8.748
 3294WAT      O10123   3.648   8.778   7.897
 3294WAT     H110124   3.562   8.729   7.909
 3294WAT     H210125   3.672   8.825   7.982
 3295WAT      O10126   7.851   2.444   1.195
 3295WAT     H110127   7.936   2.432   1.246
 3295WAT     H210128   7.854   2.532   1.147
 3296WAT      O10129   5.874   5.613   3.160
 3296WAT     H110130   5.866   5.574   3.252
 3296WAT     H210131   5.822   5.557   3.096
 3297WAT      O10132   7.052   2.943   7.717
 3297WAT     H110133   6.985   2.869   7.723
 3297WAT     H210134   7.023   3.008   7.647
 3298WAT      O10135   7.357   9.153   6.625
 3298WAT     H110136   7.299   9.110   6.694
 3298WAT     H210137   7.320   9.243   6.601
 3299WAT      O10138   6.381   9.220   0.452
 3299WAT     H110139   6.416   9.190   0.541
 3299WAT     H210140   6.288   9.257   0.464
 3300WAT      O10141   4.958   7.388   9.473
 3300WAT     H110142   5.036   7.423   9.525
 3300WAT     H210143   4.916   7.313   9.525
 3301WAT      O10144   1.467   3.747   6.033
 3301WAT     H110145   1.451   3.649   6.039
 3301WAT     H210146   1.380   3.795   6.020
 3302WAT      O10147   5.629   5.698   8.782
 3302WAT     H110148   5.667   5.774   8.730
 3302WAT     H210149   5.700   5.656   8.838
 3303WAT      O10150   8.292   4.399   1.919
 3303WAT     H110151   8.306   4.408   2.018
 3303WAT     H210152   8.347   4.324   1.884
 3304WAT      O10153   5.240   1.634   4.224
 3304WAT     H110154   5.142   1.640   4.241
 3304WAT     H210155   5.267   1.708   4.161
 3305WAT      O10156   3.898   5.320   5.117
 3305WAT     H110157   3.913   5.392   5.050
 3305WAT     H210158   3.864   5.238   5.071
 3306WAT      O10159   6.275   6.441   5.172
 3306WAT     H110160   6.276   6.415   5.269
 3306WAT     H210161   6.367   6.470   5.144
 3307WAT      O10162   7.175   9.621   3.579
 3307WAT     H110163   7.127   9.551   3.527
 3307WAT     H210164   7.113   9.696   3.600
 3308WAT      O10165   8.419   4.016   9.673
 3308WAT     H110166   8.490   3.968   9.621
 3308WAT     H210167   8.442   4.113   9.679
 3309WAT      O10168   9.515   3.952   0.180
 3309WAT     H110169   9.596   3.964   0.239
 3309WAT     H210170   9.488   4.041   0.142
 3310WAT      O10171   4.168   1.779   4.569
 3310WAT     H110172   4.223   1.741   4.494
 3310WAT     H210173   4.158   1.711   4.641
 3311WAT      O10174   5.135   9.233   4.432
 3311WAT     H110175   5.214   9.264   4.485
 3311WAT     H210176   5.152   9.141   4.398
 3312WAT      O10177   9.422   8.022   8.563
 3312WAT     H110178   9.419   7.930   8.603
 3312WAT     H210179   9.498   8.027   8.498
 3313WAT      O10180   8.133   8.473   2.345
 3313WAT     H110181   8.173   8.563   2.330
 3313WAT     H210182   8.097   8.437   2.259
 3314WAT      O10183   5.509   3.329   1.975
 3314WAT     H110184   5.557   3.299   1.893
 3314WAT     H210185   5.443   3.259   2.003
 3315WAT      O10186   1.158   1.771   5.897
 3315WAT     H110187   1.235   1.720   5.936
 3315WAT     H210188   1.163   1.866   5.928
 3316WAT      O10189   2.461   5.958   0.108
 3316WAT     H110190   2.375   6.006   0.123
 3316WAT     H210191   2.518   6.009   0.044
 3317WAT      O10192   5.917   3.393   1.043
 3317WAT     H110193   5.980   3.405   0.966
 3317WAT     H210194   5.960   3.426   1.127
 3318WAT      O10195   4.981   3.649   9.160
 3318WAT     H110196   4.970   3.680   9.255
 3318WAT     H210197   5.008   3.553   9.160
 3319WAT      O10198   2.726   9.462   1.186
 3319WAT     H110199   2.631   9.471   1.214
 3319WAT     H210200   2.741   9.371   1.146
 3320WAT      O10201   9.739   2.899   4.142
 3320WAT     H110202   9.718   2.899   4.240
 3320WAT     H210203   9.656   2.884   4.090
 3321WAT      O10204   3.893   2.016   8.217
 3321WAT     H110205   3.797   2.022   8.245
 3321WAT     H210206   3.919   2.101   8.172
 3322WAT      O10207   1.019   0.306   2.514
 3322WAT     H110208   0.945   0.256   2.560
 3322WAT     H210209   1.092   0.242   2.491
 3323WAT      O10210   1.186   6.548   8.809
 3323WAT     H110211   1.214   6.642   8.830
 3323WAT     H210212   1.140   6.508   8.888
 3324WAT      O10213   3.068   7.317   4.742
 3324WAT     H110214   3.024   7.404   4.719
 3324WAT     H210215   3.022   7.275   4.820
 3325WAT      O10216   6.016   7.895   6.210
 3325WAT     H110217   5.998   7.797   6.226
 3325WAT     H210218   6.114   7.912   6.214
 3326WAT      O10219   8.336   8.232   8.882
 3326WAT     H110220   8.277   8.298   8.834
 3326WAT     H210221   8.376   8.169   8.816
 3327WAT      O10222   2.125   0.014   8.528
 3327WAT     H110223   2.054  -0.056   8.517
 3327WAT     H210224   2.146   0.025   8.625
 3328WAT      O10225   5.955   2.542   0.739
 3328WAT     H110226   5.962   2.558   0.837
 3328WAT     H210227   5.874   2.485   0.720
 3329WAT      O10228   3.473   3.629   0.471
 3329WAT     H110229   3.460   3.661   0.377
 3329WAT     H210230   3.405   3.560   0.493
 3330WAT      O10231   5.095   7.754   6.323
 3330WAT     H110232   5.189   7.730   6.347
 3330WAT     H210233   5.095   7.831   6.259
 3331WAT      O10234   9.106   7.167   0.740
 3331WAT     H110235   9.042   7.092   0.754
 3331WAT     H210236   9.170   7.143   0.667
 3332WAT      O10237   2.304   3.078   7.887
 3332WAT     H110238   2.365   3.024   7.945
 3332WAT     H210239   2.259   3.018   7.821
 3333WAT      O10240   0.281   2.066   1.618
 3333WAT     H110241   0.195   2.017   1.632
 3333WAT     H210242   0.350   2.003   1.583
 3334WAT      O10243   7.241   1.940   8.856
 3334WAT     H110244   7.315   1.924   8.790
 3334WAT     H210245   7.230   2.038   8.871
 3335WAT      O10246   6.173   4.779   1.539
 3335WAT     H110247   6.237   4.706   1.561
 3335WAT     H210248   6.083   4.758   1.578
 3336WAT      O10249   1.058   6.459   2.350
 3336WAT     H110250   0.992   6.393   2.388
 3336WAT     H210251   1.013   6.515   2.281
 3337WAT      O10252   7.842   7.507   6.652
 3337WAT     H110253   7.773   7.530   6.721
 3337WAT     H210254   7.901   7.586   6.636
 3338WAT      O10255   8.931   8.321   2.463
 3338WAT     H110256   8.962   8.263   2.539
 3338WAT     H210257   8.962   8.415   2.478
 3339WAT      O10258   7.069   9.836   6.156
 3339WAT     H110259   6.992   9.849   6.218
 3339WAT     H210260   7.125   9.760   6.189
 3340WAT      O10261   1.881   2.276   7.267
 3340WAT     H110262   1.847   2.361   7.308
 3340WAT     H210263   1.981   2.278   7.266
 3341WAT      O10264   3.441   5.721   7.969
 3341WAT     H110265   3.538   5.714   7.990
 3341WAT     H210266   3.430   5.764   7.879
 3342WAT      O10267   7.360   1.632   8.157
 3342WAT     H110268   7.351   1.533   8.140
 3342WAT     H210269   7.284   1.662   8.215
 3343WAT      O10270   3.708   4.923   4.428
 3343WAT     H110271   3.623   4.973   4.410
 3343WAT     H210272   3.700   4.872   4.514
 3344WAT      O10273   7.695   1.131   4.400
 3344WAT     H110274   7.744   1.082   4.472
 3344WAT     H210275   7.679   1.070   4.323
 3345WAT      O10276   9.075   5.197   5.627
 3345WAT     H110277   8.977   5.215   5.640
 3345WAT     H210278   9.107   5.246   5.546
 3346WAT      O10279   8.274   2.589   8.343
 3346WAT     H110280   8.273   2.527   8.265
 3346WAT     H210281   8.221   2.549   8.418
 3347WAT      O10282   6.773   6.945   4.000
 3347WAT     H110283   6.802   6.861   3.953
 3347WAT     H210284   6.751   7.015   3.932
 3348WAT      O10285   0.604   7.030   3.986
 3348WAT     H110286   0.596   7.075   4.075
 3348WAT     H210287   0.556   7.085   3.917
 3349WAT      O10288   8.211   8.670   1.092
 3349WAT     H110289   8.153   8.597   1.057
 3349WAT     H210290   8.307   8.645   1.079
 3350WAT      O10291   1.827   4.220   7.707
 3350WAT     H110292   1.799   4.213   7.803
 3350WAT     H210293   1.925   4.239   7.702
 3351WAT      O10294   0.374   3.501   4.319
 3351WAT     H110295   0.373   3.491   4.419
 3351WAT     H210296   0.462   3.539   4.291
 3352WAT      O10297   1.381   6.416   7.220
 3352WAT     H110298   1.434   6.407   7.304
 3352WAT     H210299   1.289   6.449   7.243
 3353WAT      O10300   5.855   9.117   8.151
 3353WAT     H110301   5.759   9.109   8.125
 3353WAT     H210302   5.879   9.044   8.215
 3354WAT      O10303   3.437   7.994   3.570
 3354WAT     H110304   3.353   8.011   3.520
 3354WAT     H210305   3.492   7.926   3.521
 3355WAT      O10306   8.226   4.419   6.953
 3355WAT     H110307   8.244   4.340   6.895
 3355WAT     H210308   8.311   4.450   6.996
 3356WAT      O10309   4.283   1.233   6.944
 3356WAT     H110310   4.378   1.202   6.953
 3356WAT     H210311   4.221   1.159   6.967
 3357WAT      O10312   5.740   0.045   4.405
 3357WAT     H110313   5.782   0.065   4.493
 3357WAT     H210314   5.654   0.097   4.397
 3358WAT      O10315   7.213   5.262   5.030
 3358WAT     H110316   7.207   5.305   4.940
 3358WAT     H210317   7.209   5.163   5.021
 3359WAT      O10318   8.490   7.563   2.375
 3359WAT     H110319   8.570   7.602   2.330
 3359WAT     H210320   8.505   7.466   2.392
 3360WAT      O10321   4.675   9.276   7.868
 3360WAT     H110322   4.665   9.224   7.952
 3360WAT     H210323   4.755   9.242   7.817
 3361WAT      O10324   7.740   6.377   9.296
 3361WAT     H110325   7.756   6.297   9.354
 3361WAT     H210326   7.813   6.444   9.311
 3362WAT      O10327   0.911   6.787   9.324
 3362WAT     H110328   0.821   6.771   9.366
 3362WAT     H210329   0.940   6.704   9.276
 3363WAT      O10330   4.517   3.417   1.658
 3363WAT     H110331   4.474   3.462   1.735
 3363WAT     H210332   4.447   3.376   1.599
 3364WAT      O10333   1.791   7.265   1.499
 3364WAT     H110334   1.860   7.335   1.517
 3364WAT     H210335   1.789   7.199   1.573
 3365WAT      O10336   3.287   6.532   4.093
 3365WAT     H110337   3.370   6.481   4.115
 3365WAT     H210338   3.210   6.493   4.142
 3366WAT      O10339   9.355   4.147   3.961
 3366WAT     H110340   9.259   4.121   3.954
 3366WAT     H210341   9.369   4.236   3.917
 3367WAT      O10342   9.277   7.122   1.544
 3367WAT     H110343   9.301   7.148   1.638
 3367WAT     H210344   9.358   7.129   1.486
 3368WAT      O10345   2.373   6.475   3.277
 3368WAT     H110346   2.431   6.394   3.274
 3368WAT     H210347   2.277   6.447   3.285
 3369WAT      O10348   6.711   1.470   6.873
 3369WAT     H110349   6.780   1.403   6.899
 3369WAT     H210350   6.688   1.527   6.952
 3370WAT      O10351   3.041   9.540   4.046
 3370WAT     H110352   3.073   9.624   4.002
 3370WAT     H210353   3.049   9.464   3.981
 3371WAT      O10354   0.418   3.365   8.109
 3371WAT     H110355   0.409   3.329   8.016
 3371WAT     H210356   0.333   3.348   8.160
 3372WAT      O10357   0.568   7.248   4.970
 3372WAT     H110358   0.592   7.308   5.047
 3372WAT     H210359   0.636   7.258   4.898
 3373WAT      O10360   3.554   6.264   5.952
 3373WAT     H110361   3.631   6.242   5.891
 3373WAT     H210362   3.504   6.180   5.973
 3374WAT      O10363   3.778   9.622   8.038
 3374WAT     H110364   3.862   9.628   8.091
 3374WAT     H210365   3.790   9.669   7.950
 3375WAT      O10366   3.400   2.485   2.433
 3375WAT     H110367   3.465   2.483   2.509
 3375WAT     H210368   3.367   2.579   2.420
 3376WAT      O10369   0.076   4.900   7.273
 3376WAT     H110370   0.172   4.910   7.247
 3376WAT     H210371   0.021   4.970   7.227
 3377WAT      O10372   6.692   3.993   7.570
 3377WAT     H110373   6.707   4.071   7.509
 3377WAT     H210374   6.765   3.990   7.638
 3378WAT      O10375   8.353   8.616   5.210
 3378WAT     H110376   8.424   8.547   5.191
 3378WAT     H210377   8.316   8.650   5.124
 3379WAT      O10378   2.224   2.643   3.348
 3379WAT     H110379   2.191   2.736   3.334
 3379WAT     H210380   2.176   2.581   3.287
 3380WAT      O10381   3.140   5.466   2.339
 3380WAT     H110382   3.174   5.481   2.246
 3380WAT     H210383   3.043   5.443   2.336
 3381WAT      O10384   5.503   9.030   7.494
 3381WAT     H110385   5.489   9.024   7.395
 3381WAT     H210386   5.499   9.126   7.522
 3382WAT      O10387   2.126   1.671   1.297
 3382WAT     H110388   2.212   1.700   1.254
 3382WAT     H210389   2.065   1.750   1.305
 3383WAT      O10390   0.169   7.859   4.959
 3383WAT     H110391   0.180   7.801   4.878
 3383WAT     H210392   0.247   7.845   5.021
 3384WAT      O10393   5.615   8.090   8.697
 3384WAT     H110394   5.602   8.154   8.621
 3384WAT     H210395   5.608   7.997   8.663
 3385WAT      O10396   6.448   7.899   6.754
 3385WAT     H110397   6.538   7.939   6.770
 3385WAT     H210398   6.402   7.950   6.681
 3386WAT      O10399   0.775   1.327   2.619
 3386WAT     H110400   0.747   1.416   2.657
 3386WAT     H210401   0.808   1.340   2.526
 3387WAT      O10402   9.361   4.400   8.125
 3387WAT     H110403   9.276   4.385   8.175
 3387WAT     H210404   9.385   4.497   8.127
 3388WAT      O10405   7.649   3.717   4.836
 3388WAT     H110406   7.731   3.743   4.785
 3388WAT     H210407   7.570   3.720   4.775
 3389WAT      O10408   0.299   7.757   4.524
 3389WAT     H110409   0.242   7.797   4.451
 3389WAT     H210410   0.361   7.689   4.485
 3390WAT      O10411   3.672   9.318   9.553
 3390WAT     H110412   3.588   9.271   9.525
 3390WAT     H210413   3.744   9.251   9.570
 3391WAT      O10414   5.175   7.533   5.674
 3391WAT     H110415   5.120   7.603   5.720
 3391WAT     H210416   5.263   7.571   5.648
 3392WAT      O10417   9.552   1.971   0.939
 3392WAT     H110418   9.567   1.954   1.036
 3392WAT     H210419   9.493   1.900   0.901
 3393WAT      O10420   7.984   9.833   6.583
 3393WAT     H110421   7.946   9.910   6.531
 3393WAT     H210422   7.940   9.830   6.673
 3394WAT      O10423   2.632   9.139   1.416
 3394WAT     H110424   2.724   9.174   1.400
 3394WAT     H210425   2.597   9.099   1.331
 3395WAT      O10426   0.017   3.194   0.500
 3395WAT     H110427   0.106   3.236   0.512
 3395WAT     H210428  -0.005   3.138   0.580
 3396WAT      O10429   8.302   0.601   1.564
 3396WAT     H110430   8.282   0.680   1.621
 3396WAT     H210431   8.397   0.573   1.577
 3397WAT      O10432   5.459   6.214   5.319
 3397WAT     H110433   5.368   6.254   5.318
 3397WAT     H210434   5.513   6.254   5.393
 3398WAT      O10435   2.745   2.778   7.919
 3398WAT     H110436   2.679   2.791   7.845
 3398WAT     H210437   2.837   2.795   7.885
 3399WAT      O10438   1.229   4.595   1.203
 3399WAT     H110439   1.141   4.586   1.157
 3399WAT     H210440   1.217   4.649   1.287
 3400WAT      O10441   7.809   1.551   6.999
 3400WAT     H110442   7.872   1.582   7.070
 3400WAT     H210443   7.753   1.627   6.968
 3401WAT      O10444   3.620   9.549   0.974
 3401WAT     H110445   3.536   9.578   1.020
 3401WAT     H210446   3.678   9.498   1.039
 3402WAT      O10447   2.544   5.262   5.492
 3402WAT     H110448   2.537   5.338   5.427
 3402WAT     H210449   2.454   5.223   5.507
 3403WAT      O10450   4.899   8.678   8.808
 3403WAT     H110451   4.802   8.696   8.819
 3403WAT     H210452   4.941   8.753   8.758
 3404WAT      O10453   3.428   7.026   1.643
 3404WAT     H110454   3.513   7.001   1.689
 3404WAT     H210455   3.404   6.955   1.577
 3405WAT      O10456   1.318   0.051   7.896
 3405WAT     H110457   1.307   0.085   7.803
 3405WAT     H210458   1.415   0.028   7.911
 3406WAT      O10459   0.124   2.964   2.757
 3406WAT     H110460   0.079   2.958   2.846
 3406WAT     H210461   0.212   2.918   2.761
 3407WAT      O10462   2.862   1.983   5.724
 3407WAT     H110463   2.886   1.918   5.797
 3407WAT     H210464   2.911   2.069   5.738
 3408WAT      O10465   0.824   3.576   7.626
 3408WAT     H110466   0.865   3.505   7.683
 3408WAT     H210467   0.731   3.549   7.602
 3409WAT      O10468   1.027   5.235   4.314
 3409WAT     H110469   1.051   5.266   4.222
 3409WAT     H210470   1.011   5.315   4.372
 3410WAT      O10471   4.999   7.968   7.807
 3410WAT     H110472   5.023   7.967   7.710
 3410WAT     H210473   5.077   7.936   7.861
 3411WAT      O10474   0.602   4.758   1.191
 3411WAT     H110475   0.661   4.838   1.192
 3411WAT     H210476   0.549   4.755   1.276
 3412WAT      O10477   3.343   6.307   0.007
 3412WAT     H110478   3.253   6.265   0.022
 3412WAT     H210479   3.355   6.383   0.070
 3413WAT      O10480   3.291   7.127   5.141
 3413WAT     H110481   3.359   7.057   5.158
 3413WAT     H210482   3.200   7.091   5.161
 3414WAT      O10483   4.500   4.197   4.208
 3414WAT     H110484   4.429   4.131   4.231
 3414WAT     H210485   4.589   4.152   4.212
 3415WAT      O10486   6.222   7.412   5.557
 3415WAT     H110487   6.142   7.389   5.502
 3415WAT     H210488   6.244   7.509   5.546
 3416WAT      O10489   0.865   2.186   9.130
 3416WAT     H110490   0.960   2.184   9.099
 3416WAT     H210491   0.804   2.179   9.050
 3417WAT      O10492   2.670   1.437   2.634
 3417WAT     H110493   2.770   1.440   2.621
 3417WAT     H210494   2.625   1.440   2.545
 3418WAT      O10495   6.494   4.363   1.447
 3418WAT     H110496   6.521   4.415   1.366
 3418WAT     H210497   6.521   4.267   1.435
 3419WAT      O10498   3.281   5.302   7.952
 3419WAT     H110499   3.254   5.310   8.048
 3419WAT     H210500   3.200   5.310   7.894
 3420WAT      O10501   1.292   3.740   8.907
 3420WAT     H110502   1.206   3.699   8.937
 3420WAT     H210503   1.342   3.775   8.986
 3421WAT      O10504   7.404   7.687   0.680
 3421WAT     H110505   7.466   7.759   0.647
 3421WAT     H210506   7.458   7.612   0.718
 3422WAT      O10507   9.017   4.842   6.554
 3422WAT     H110508   9.098   4.817   6.502
 3422WAT     H210509   9.031   4.931   6.597
 3423WAT      O10510   4.735   1.061   7.968
 3423WAT     H110511   4.748   0.969   8.004
 3423WAT     H210512   4.754   1.128   8.040
 3424WAT      O10513   2.291   1.754   7.960
 3424WAT     H110514   2.288   1.654   7.972
 3424WAT     H210515   2.199   1.791   7.971
 3425WAT      O10516   4.710   6.235   5.281
 3425WAT     H110517   4.647   6.228   5.204
 3425WAT     H210518   4.726   6.331   5.303
 3426WAT      O10519   3.008   4.879   3.424
 3426WAT     H110520   3.025   4.931   3.340
 3426WAT     H210521   3.040   4.785   3.412
 3427WAT      O10522   0.601   1.245   0.925
 3427WAT     H110523   0.509   1.277   0.947
 3427WAT     H210524   0.651   1.224   1.009
 3428WAT      O10525   3.939   2.756   8.368
 3428WAT     H110526   4.030   2.767   8.409
 3428WAT     H210527   3.880   2.831   8.398
 3429WAT      O10528   1.426   2.843   0.641
 3429WAT     H110529   1.400   2.810   0.551
 3429WAT     H210530   1.353   2.902   0.677
 3430WAT      O10531   2.488   1.315   8.073
 3430WAT     H110532   2.453   1.229   8.109
 3430WAT     H210533   2.545   1.360   8.143
 3431WAT      O10534   5.002   3.619   5.431
 3431WAT     H110535   5.073   3.668   5.482
 3431WAT     H210536   5.014   3.634   5.333
 3432WAT      O10537   7.968   1.985   8.925
 3432WAT     H110538   8.029   2.031   8.860
 3432WAT     H210539   8.018   1.966   9.010
 3433WAT      O10540   5.217   7.364   0.321
 3433WAT     H110541   5.274   7.339   0.242
 3433WAT     H210542   5.144   7.297   0.332
 3434WAT      O10543   2.846   8.307   9.760
 3434WAT     H110544   2.904   8.381   9.794
 3434WAT     H210545   2.751   8.325   9.783
 3435WAT      O10546   5.683   8.675   3.986
 3435WAT     H110547   5.708   8.580   4.000
 3435WAT     H210548   5.584   8.684   3.982
 3436WAT      O10549   4.155   2.917   5.904
 3436WAT     H110550   4.228   2.980   5.930
 3436WAT     H210551   4.164   2.895   5.806
 3437WAT      O10552   6.292   8.915   9.359
 3437WAT     H110553   6.203   8.876   9.384
 3437WAT     H210554   6.357   8.901   9.433
 3438WAT      O10555   8.044   1.631   8.673
 3438WAT     H110556   7.965   1.570   8.675
 3438WAT     H210557   8.022   1.712   8.620
 3439WAT      O10558   8.136   3.479   6.474
 3439WAT     H110559   8.075   3.496   6.551
 3439WAT     H210560   8.165   3.384   6.473
 3440WAT      O10561   0.760   7.727   8.293
 3440WAT     H110562   0.702   7.682   8.226
 3440WAT     H210563   0.824   7.661   8.332
 3441WAT      O10564   3.989   5.514   4.323
 3441WAT     H110565   3.910   5.555   4.277
 3441WAT     H210566   4.071   5.567   4.303
 3442WAT      O10567   7.629   6.053   4.438
 3442WAT     H110568   7.572   6.011   4.508
 3442WAT     H210569   7.640   5.990   4.361
 3443WAT      O10570   2.839   0.505   8.328
 3443WAT     H110571   2.849   0.427   8.267
 3443WAT     H210572   2.798   0.581   8.278
 3444WAT      O10573   7.651   5.547   7.025
 3444WAT     H110574   7.649   5.451   6.997
 3444WAT     H210575   7.738   5.567   7.070
 3445WAT      O10576   7.987   8.103   5.435
 3445WAT     H110577   7.925   8.027   5.418
 3445WAT     H210578   7.941   8.171   5.493
 3446WAT      O10579   7.472   6.040   0.974
 3446WAT     H110580   7.519   6.059   0.888
 3446WAT     H210581   7.437   5.946   0.973
 3447WAT      O10582   0.845   2.521   5.723
 3447WAT     H110583   0.817   2.508   5.818
 3447WAT     H210584   0.938   2.559   5.721
 3448WAT      O10585   7.068   0.624   9.327
 3448WAT     H110586   7.082   0.587   9.235
 3448WAT     H210587   6.973   0.610   9.354
 3449WAT      O10588   2.918   0.883   0.080
 3449WAT     H110589   2.896   0.829   0.161
 3449WAT     H210590   2.997   0.941   0.100
 3450WAT      O10591   2.518   7.272   0.196
 3450WAT     H110592   2.519   7.359   0.245
 3450WAT     H210593   2.607   7.259   0.152
 3451WAT      O10594   2.528   3.895   6.527
 3451WAT     H110595   2.467   3.817   6.508
 3451WAT     H210596   2.481   3.960   6.586
 3452WAT      O10597   2.429   4.136   9.346
 3452WAT     H110598   2.456   4.232   9.341
 3452WAT     H210599   2.337   4.129   9.385
 3453WAT      O10600   7.179   3.773   0.528
 3453WAT     H110601   7.160   3.709   0.603
 3453WAT     H210602   7.151   3.733   0.441
 3454WAT      O10603   2.191   9.803   4.859
 3454WAT     H110604   2.172   9.867   4.933
 3454WAT     H210605   2.182   9.849   4.771
 3455WAT      O10606   4.164   6.030   6.193
 3455WAT     H110607   4.173   6.046   6.291
 3455WAT     H210608   4.075   6.061   6.161
 3456WAT      O10609   0.229   5.747   1.984
 3456WAT     H110610   0.249   5.806   2.063
 3456WAT     H210611   0.137   5.768   1.950
 3457WAT      O10612   7.475   9.315   9.467
 3457WAT     H110613   7.375   9.326   9.470
 3457WAT     H210614   7.497   9.220   9.445
 3458WAT      O10615   5.646   4.623   9.196
 3458WAT     H110616   5.636   4.573   9.282
 3458WAT     H210617   5.567   4.683   9.183
 3459WAT      O10618   4.970   6.015   5.456
 3459WAT     H110619   5.056   5.998   5.410
 3459WAT     H210620   4.894   5.990   5.396
 3460WAT      O10621   5.272   5.256   0.969
 3460WAT     H110622   5.212   5.186   1.007
 3460WAT     H210623   5.300   5.319   1.041
 3461WAT      O10624   8.172   7.709   3.339
 3461WAT     H110625   8.188   7.742   3.246
 3461WAT     H210626   8.253   7.660   3.371
 3462WAT      O10627   2.049   6.702   9.527
 3462WAT     H110628   2.018   6.779   9.584
 3462WAT     H210629   2.110   6.644   9.580
 3463WAT      O10630   1.203   8.586   7.251
 3463WAT     H110631   1.124   8.648   7.243
 3463WAT     H210632   1.173   8.498   7.287
 3464WAT      O10633   0.309   2.270   3.475
 3464WAT     H110634   0.305   2.212   3.395
 3464WAT     H210635   0.404   2.297   3.492
 3465WAT      O10636   8.079   3.260   0.376
 3465WAT     H110637   8.109   3.331   0.313
 3465WAT     H210638   8.067   3.299   0.468
 3466WAT      O10639   5.588   9.443   2.913
 3466WAT     H110640   5.604   9.455   2.815
 3466WAT     H210641   5.675   9.449   2.962
 3467WAT      O10642   5.226   4.254   6.197
 3467WAT     H110643   5.182   4.327   6.143
 3467WAT     H210644   5.253   4.291   6.286
 3468WAT      O10645   1.978   5.193   2.439
 3468WAT     H110646   1.920   5.120   2.473
 3468WAT     H210647   1.925   5.253   2.378
 3469WAT      O10648   4.205   8.248   4.415
 3469WAT     H110649   4.281   8.184   4.403
 3469WAT     H210650   4.134   8.230   4.347
 3470WAT      O10651   1.992   0.359   1.205
 3470WAT     H110652   2.062   0.417   1.247
 3470WAT     H210653   2.012   0.263   1.227
 3471WAT      O10654   1.872   4.297   3.021
 3471WAT     H110655   1.873   4.199   3.006
 3471WAT     H210656   1.931   4.320   3.099
 3472WAT      O10657   2.479   4.268   0.829
 3472WAT     H110658   2.497   4.365   0.813
 3472WAT     H210659   2.401   4.258   0.892
 3473WAT      O10660   8.481   0.933   2.479
 3473WAT     H110661   8.478   1.004   2.409
 3473WAT     H210662   8.409   0.950   2.547
 3474WAT      O10663   3.022   7.900   1.912
 3474WAT     H110664   2.975   7.820   1.875
 3474WAT     H210665   3.037   7.888   2.010
 3475WAT      O10666   5.859   4.859   9.749
 3475WAT     H110667   5.862   4.820   9.841
 3475WAT     H210668   5.769   4.901   9.734
 3476WAT      O10669   7.799   2.806   3.588
 3476WAT     H110670   7.897   2.798   3.573
 3476WAT     H210671   7.778   2.790   3.684
 3477WAT      O10672   4.816   8.431   2.499
 3477WAT     H110673   4.910   8.415   2.470
 3477WAT     H210674   4.771   8.492   2.434
 3478WAT      O10675   8.702   4.925   3.216
 3478WAT     H110676   8.781   4.985   3.227
 3478WAT     H210677   8.623   4.979   3.186
 3479WAT      O10678   5.336   2.591   6.549
 3479WAT     H110679   5.355   2.585   6.451
 3479WAT     H210680   5.377   2.513   6.596
 3480WAT      O10681   6.750   1.234   6.502
 3480WAT     H110682   6.714   1.212   6.593
 3480WAT     H210683   6.675   1.240   6.437
 3481WAT      O10684   9.142   1.507   3.374
 3481WAT     H110685   9.052   1.544   3.350
 3481WAT     H210686   9.205   1.522   3.298
 3482WAT      O10687   8.357   6.412   5.378
 3482WAT     H110688   8.378   6.314   5.378
 3482WAT     H210689   8.434   6.462   5.419
 3483WAT      O10690   2.098   4.268   2.830
 3483WAT     H110691   2.145   4.254   2.917
 3483WAT     H210692   2.061   4.362   2.827
 3484WAT      O10693   1.968   4.547   3.832
 3484WAT     H110694   1.904   4.620   3.856
 3484WAT     H210695   1.948   4.515   3.739
 3485WAT      O10696   4.593   5.253   4.855
 3485WAT     H110697   4.663   5.323   4.850
 3485WAT     H210698   4.508   5.287   4.815
 3486WAT      O10699   6.351   2.548   5.664
 3486WAT     H110700   6.401   2.529   5.748
 3486WAT     H210701   6.294   2.469   5.640
 3487WAT      O10702   4.253   1.005   0.253
 3487WAT     H110703   4.278   0.983   0.158
 3487WAT     H210704   4.192   1.084   0.254
 3488WAT      O10705   0.506   2.884   3.332
 3488WAT     H110706   0.431   2.818   3.343
 3488WAT     H210707   0.577   2.865   3.400
 3489WAT      O10708   9.286   0.546   6.212
 3489WAT     H110709   9.309   0.453   6.182
 3489WAT     H210710   9.189   0.562   6.199
 3490WAT      O10711   6.440   3.195   3.595
 3490WAT     H110712   6.464   3.108   3.552
 3490WAT     H210713   6.401   3.178   3.685
 3491WAT      O10714   1.778   6.060   4.283
 3491WAT     H110715   1.865   6.031   4.323
 3491WAT     H210716   1.777   6.159   4.273
 3492WAT      O10717   6.185   9.354   5.785
 3492WAT     H110718   6.164   9.292   5.709
 3492WAT     H210719   6.118   9.428   5.787
 3493WAT      O10720   5.574   8.426   6.183
 3493WAT     H110721   5.664   8.469   6.173
 3493WAT     H210722   5.576   8.334   6.144
 3494WAT      O10723   6.001   8.685   7.214
 3494WAT     H110724   6.090   8.641   7.202
 3494WAT     H210725   5.995   8.722   7.307
 3495WAT      O10726   6.481   0.538   5.542
 3495WAT     H110727   6.453   0.626   5.504
 3495WAT     H210728   6.424   0.517   5.622
 3496WAT      O10729   1.442   8.180   5.594
 3496WAT     H110730   1.493   8.257   5.556
 3496WAT     H210731   1.450   8.101   5.532
 3497WAT      O10732   8.989   0.025   9.241
 3497WAT     H110733   8.998   0.068   9.151
 3497WAT     H210734   9.042  -0.060   9.242
 3498WAT      O10735   7.962   1.717   3.450
 3498WAT     H110736   7.922   1.737   3.539
 3498WAT     H210737   7.976   1.803   3.399
 3499WAT      O10738   0.469   7.846   2.972
 3499WAT     H110739   0.402   7.897   3.026
 3499WAT     H210740   0.429   7.759   2.944
 3500WAT      O10741   7.635   8.014   2.671
 3500WAT     H110742   7.686   8.085   2.719
 3500WAT     H210743   7.684   7.927   2.679
 3501WAT      O10744   2.321   0.844   4.259
 3501WAT     H110745   2.394   0.889   4.208
 3501WAT     H210746   2.360   0.794   4.336
 3502WAT      O10747   4.897   0.721   4.574
 3502WAT     H110748   4.866   0.677   4.658
 3502WAT     H210749   4.857   0.675   4.495
 3503WAT      O10750   5.040   3.880   1.680
 3503WAT     H110751   5.105   3.915   1.613
 3503WAT     H210752   5.086   3.866   1.768
 3504WAT      O10753   7.473   3.027   9.812
 3504WAT     H110754   7.510   2.936   9.792
 3504WAT     H210755   7.404   3.051   9.744
 3505WAT      O10756   6.790   5.041   0.677
 3505WAT     H110757   6.828   4.949   0.683
 3505WAT     H210758   6.785   5.069   0.581
 3506WAT      O10759   6.450   4.921   8.012
 3506WAT     H110760   6.486   4.881   8.097
 3506WAT     H210761   6.420   5.015   8.030
 3507WAT      O10762   8.593   1.798   1.829
 3507WAT     H110763   8.607   1.884   1.780
 3507WAT     H210764   8.678   1.770   1.873
 3508WAT      O10765   1.722   9.047   7.602
 3508WAT     H110766   1.789   8.980   7.571
 3508WAT     H210767   1.630   9.011   7.588
 3509WAT      O10768   1.755   3.016   9.471
 3509WAT     H110769   1.814   3.062   9.538
 3509WAT     H210770   1.746   3.074   9.390
 3510WAT      O10771   1.693   0.969   8.086
 3510WAT     H110772   1.606   0.926   8.112
 3510WAT     H210773   1.735   1.012   8.166
 3511WAT      O10774   1.322   2.696   7.027
 3511WAT     H110775   1.304   2.789   7.058
 3511WAT     H210776   1.333   2.695   6.928
 3512WAT      O10777   9.181   3.221   5.374
 3512WAT     H110778   9.261   3.228   5.314
 3512WAT     H210779   9.188   3.288   5.448
 3513WAT      O10780   6.431   8.822   8.928
 3513WAT     H110781   6.459   8.736   8.885
 3513WAT     H210782   6.355   8.804   8.990
 3514WAT      O10783   5.666   9.626   1.470
 3514WAT     H110784   5.567   9.631   1.482
 3514WAT     H210785   5.699   9.714   1.435
 3515WAT      O10786   5.850   9.469   6.541
 3515WAT     H110787   5.812   9.539   6.602
 3515WAT     H210788   5.931   9.429   6.583
 3516WAT      O10789   2.324   1.081   8.439
 3516WAT     H110790   2.351   1.103   8.533
 3516WAT     H210791   2.269   0.997   8.439
 3517WAT      O10792   6.642   2.002   7.818
 3517WAT     H110793   6.545   1.981   7.823
 3517WAT     H210794   6.689   1.962   7.897
 3518WAT      O10795   1.985   9.620   2.639
 3518WAT     H110796   1.984   9.681   2.718
 3518WAT     H210797   1.895   9.579   2.627
 3519WAT      O10798   3.603   5.645   5.213
 3519WAT     H110799   3.670   5.607   5.277
 3519WAT     H210800   3.545   5.572   5.178
 3520WAT      O10801   6.571   3.467   2.080
 3520WAT     H110802   6.550   3.384   2.133
 3520WAT     H210803   6.603   3.538   2.141
 3521WAT      O10804   6.648   8.229   5.080
 3521WAT     H110805   6.710   8.153   5.097
 3521WAT     H210806   6.608   8.220   4.989
 3522WAT      O10807   8.173   3.803   5.057
 3522WAT     H110808   8.097   3.748   5.091
 3522WAT     H210809   8.258   3.752   5.068
 3523WAT      O10810   5.496   8.180   8.943
 3523WAT     H110811   5.399   8.158   8.955
 3523WAT     H210812   5.531   8.130   8.864
 3524WAT      O10813   0.985   0.969   0.916
 3524WAT     H110814   0.967   0.942   0.821
 3524WAT     H210815   1.062   1.033   0.918
 3525WAT      O10816   4.077   4.601   4.206
 3525WAT     H110817   4.094   4.503   4.215
 3525WAT     H210818   4.010   4.630   4.274
 3526WAT      O10819   8.354   1.118   6.320
 3526WAT     H110820   8.405   1.116   6.234
 3526WAT     H210821   8.415   1.147   6.394
 3527WAT      O10822   7.741   5.837   8.783
 3527WAT     H110823   7.652   5.821   8.741
 3527WAT     H210824   7.747   5.786   8.869
 3528WAT      O10825   0.425   1.142   4.865
 3528WAT     H110826   0.483   1.201   4.920
 3528WAT     H210827   0.378   1.077   4.925
 3529WAT      O10828   8.749   9.483   5.588
 3529WAT     H110829   8.725   9.527   5.675
 3529WAT     H210830   8.845   9.455   5.590
 3530WAT      O10831   1.340   3.680   8.061
 3530WAT     H110832   1.418   3.670   8.123
 3530WAT     H210833   1.282   3.599   8.067
 3531WAT      O10834   2.988   8.153   9.575
 3531WAT     H110835   2.920   8.183   9.642
 3531WAT     H210836   3.071   8.124   9.621
 3532WAT      O10837   5.458   2.520   4.625
 3532WAT     H110838   5.429   2.602   4.574
 3532WAT     H210839   5.396   2.507   4.703
 3533WAT      O10840   9.246   8.823   5.567
 3533WAT     H110841   9.152   8.798   5.545
 3533WAT     H210842   9.265   8.914   5.530
 3534WAT      O10843   5.515   7.864   5.903
 3534WAT     H110844   5.503   7.952   5.951
 3534WAT     H210845   5.613   7.850   5.885
 3535WAT      O10846   2.679   8.721   1.839
 3535WAT     H110847   2.744   8.784   1.797
 3535WAT     H210848   2.669   8.640   1.781
 3536WAT      O10849   6.795   3.557   0.889
 3536WAT     H110850   6.790   3.528   0.794
 3536WAT     H210851   6.706   3.594   0.917
 3537WAT      O10852   3.214   8.177   1.575
 3537WAT     H110853   3.160   8.232   1.638
 3537WAT     H210854   3.233   8.088   1.615
 3538WAT      O10855   2.835   6.345   3.633
 3538WAT     H110856   2.755   6.402   3.650
 3538WAT     H210857   2.849   6.334   3.535
 3539WAT      O10858   5.984   2.364   6.680
 3539WAT     H110859   5.955   2.269   6.678
 3539WAT     H210860   6.082   2.370   6.663
 3540WAT      O10861   8.229   7.582   9.104
 3540WAT     H110862   8.242   7.662   9.163
 3540WAT     H210863   8.137   7.584   9.065
 3541WAT      O10864   2.390   6.209   0.292
 3541WAT     H110865   2.337   6.133   0.328
 3541WAT     H210866   2.446   6.249   0.365
 3542WAT      O10867   5.334   2.016   1.875
 3542WAT     H110868   5.400   2.087   1.851
 3542WAT     H210869   5.288   1.984   1.792
 3543WAT      O10870   9.077   4.128   4.530
 3543WAT     H110871   9.034   4.216   4.509
 3543WAT     H210872   9.142   4.140   4.605
 3544WAT      O10873   8.725   5.790   2.498
 3544WAT     H110874   8.819   5.815   2.475
 3544WAT     H210875   8.673   5.873   2.517
 3545WAT      O10876   7.355   7.847   4.230
 3545WAT     H110877   7.264   7.832   4.268
 3545WAT     H210878   7.419   7.783   4.271
 3546WAT      O10879   3.040   2.019   1.674
 3546WAT     H110880   3.003   2.031   1.582
 3546WAT     H210881   3.014   2.096   1.731
 3547WAT      O10882   7.208   2.465   8.165
 3547WAT     H110883   7.246   2.384   8.209
 3547WAT     H210884   7.165   2.523   8.235
 3548WAT      O10885   0.407   8.022   3.932
 3548WAT     H110886   0.423   8.005   3.835
 3548WAT     H210887   0.410   8.120   3.949
 3549WAT      O10888   1.095   1.395   2.424
 3549WAT     H110889   1.007   1.425   2.388
 3549WAT     H210890   1.168   1.452   2.385
 3550WAT      O10891   0.541   1.931   7.501
 3550WAT     H110892   0.545   1.889   7.410
 3550WAT     H210893   0.586   2.020   7.498
 3551WAT      O10894   2.858   5.537   4.869
 3551WAT     H110895   2.955   5.559   4.868
 3551WAT     H210896   2.807   5.608   4.820
 3552WAT      O10897   5.642   2.216   0.173
 3552WAT     H110898   5.628   2.296   0.232
 3552WAT     H210899   5.735   2.215   0.139
 3553WAT      O10900   3.076   1.435   8.029
 3553WAT     H110901   3.046   1.422   8.124
 3553WAT     H210902   3.062   1.530   8.003
 3554WAT      O10903   8.163   9.756   8.504
 3554WAT     H110904   8.078   9.764   8.558
 3554WAT     H210905   8.172   9.837   8.446
 3555WAT      O10906   3.039   4.453   2.393
 3555WAT     H110907   3.088   4.482   2.475
 3555WAT     H210908   3.056   4.519   2.320
 3556WAT      O10909   8.302   8.627   8.616
 3556WAT     H110910   8.389   8.621   8.566
 3556WAT     H210911   8.237   8.680   8.562
 3557WAT      O10912   1.295   2.368   0.674
 3557WAT     H110913   1.319   2.448   0.728
 3557WAT     H210914   1.378   2.320   0.646
 3558WAT      O10915   4.422   6.638   5.338
 3558WAT     H110916   4.359   6.567   5.372
 3558WAT     H210917   4.511   6.597   5.319
 3559WAT      O10918   9.238   6.865   6.537
 3559WAT     H110919   9.217   6.903   6.628
 3559WAT     H210920   9.301   6.788   6.547
 3560WAT      O10921   5.413   8.393   8.515
 3560WAT     H110922   5.449   8.483   8.540
 3560WAT     H210923   5.356   8.358   8.590
 3561WAT      O10924   3.911   8.647   3.024
 3561WAT     H110925   3.855   8.622   3.102
 3561WAT     H210926   3.861   8.629   2.939
 3562WAT      O10927   5.244   2.046   6.332
 3562WAT     H110928   5.171   2.083   6.275
 3562WAT     H210929   5.307   1.993   6.275
 3563WAT      O10930   3.938   1.657   4.910
 3563WAT     H110931   4.010   1.724   4.927
 3563WAT     H210932   3.860   1.703   4.866
 3564WAT      O10933   0.031   7.773   0.560
 3564WAT     H110934  -0.056   7.799   0.519
 3564WAT     H210935   0.063   7.846   0.620
 3565WAT      O10936   7.098   5.387   5.536
 3565WAT     H110937   7.110   5.399   5.438
 3565WAT     H210938   7.091   5.477   5.580
 3566WAT      O10939   5.839   4.926   3.052
 3566WAT     H110940   5.939   4.934   3.056
 3566WAT     H210941   5.799   4.973   3.130
 3567WAT      O10942   6.464   3.678   8.454
 3567WAT     H110943   6.379   3.731   8.445
 3567WAT     H210944   6.502   3.692   8.545
 3568WAT      O10945   4.665   4.300   7.500
 3568WAT     H110946   4.708   4.255   7.422
 3568WAT     H210947   4.572   4.266   7.512
 3569WAT      O10948   1.347   0.191   5.946
 3569WAT     H110949   1.254   0.157   5.957
 3569WAT     H210950   1.382   0.165   5.856
 3570WAT      O10951   4.282   3.326   1.215
 3570WAT     H110952   4.371   3.372   1.220
 3570WAT     H210953   4.214   3.387   1.175
 3571WAT      O10954   1.455   4.936   3.755
 3571WAT     H110955   1.520   4.992   3.805
 3571WAT     H210956   1.402   4.880   3.820
 3572WAT      O10957   9.095   4.240   5.260
 3572WAT     H110958   9.114   4.278   5.170
 3572WAT     H210959   9.181   4.215   5.305
 3573WAT      O10960   7.396   1.088   6.563
 3573WAT     H110961   7.317   1.148   6.548
 3573WAT     H210962   7.442   1.114   6.647
 3574WAT      O10963   6.019   4.490   6.470
 3574WAT     H110964   6.005   4.395   6.498
 3574WAT     H210965   6.096   4.496   6.407
 3575WAT      O10966   0.909   4.593   6.804
 3575WAT     H110967   0.871   4.648   6.730
 3575WAT     H210968   1.000   4.559   6.777
 3576WAT      O10969   8.054   5.761   0.038
 3576WAT     H110970   8.008   5.730   0.121
 3576WAT     H210971   8.023   5.706  -0.040
 3577WAT      O10972   5.264   1.807   3.658
 3577WAT     H110973   5.214   1.786   3.575
 3577WAT     H210974   5.354   1.845   3.635
 3578WAT      O10975   9.080   8.612   6.560
 3578WAT     H110976   9.142   8.587   6.486
 3578WAT     H210977   9.101   8.557   6.641
 3579WAT      O10978   2.814   3.060   8.540
 3579WAT     H110979   2.720   3.093   8.543
 3579WAT     H210980   2.877   3.138   8.540
 3580WAT      O10981   9.226   9.551   1.300
 3580WAT     H110982   9.240   9.501   1.214
 3580WAT     H210983   9.258   9.645   1.289
 3581WAT      O10984   3.457   9.561   8.378
 3581WAT     H110985   3.366   9.602   8.383
 3581WAT     H210986   3.510   9.586   8.459
 3582WAT      O10987   5.859   7.049   6.040
 3582WAT     H110988   5.800   6.982   5.994
 3582WAT     H210989   5.818   7.140   6.034
 3583WAT      O10990   6.511   7.682   8.328
 3583WAT     H110991   6.526   7.662   8.231
 3583WAT     H210992   6.590   7.651   8.380
 3584WAT      O10993   2.584   4.007   4.090
 3584WAT     H110994   2.504   3.980   4.035
 3584WAT     H210995   2.598   3.941   4.163
 3585WAT      O10996   5.228   7.836   4.521
 3585WAT     H110997   5.218   7.914   4.459
 3585WAT     H210998   5.147   7.778   4.515
 3586WAT      O10999   8.580   7.362   8.675
 3586WAT     H111000   8.489   7.342   8.711
 3586WAT     H211001   8.634   7.410   8.745
 3587WAT      O11002   1.133   5.807   5.867
 3587WAT     H111003   1.193   5.887   5.865
 3587WAT     H211004   1.114   5.781   5.962
 3588WAT      O11005   3.956   0.120   6.947
 3588WAT     H111006   3.984   0.138   7.041
 3588WAT     H211007   3.859   0.096   6.945
 3589WAT      O11008   3.822   7.719   0.043
 3589WAT     H111009   3.791   7.629   0.073
 3589WAT     H211010   3.780   7.741  -0.045
 3590WAT      O11011   2.565   1.926   6.602
 3590WAT     H111012   2.614   1.856   6.551
 3590WAT     H211013   2.611   1.941   6.690
 3591WAT      O11014   7.086   6.732   8.629
 3591WAT     H111015   7.185   6.728   8.645
 3591WAT     H211016   7.037   6.719   8.715
 3592WAT      O11017   7.037   9.484   7.606
 3592WAT     H111018   7.126   9.507   7.565
 3592WAT     H211019   6.987   9.568   7.626
 3593WAT      O11020   5.452   2.789   4.879
 3593WAT     H111021   5.504   2.862   4.924
 3593WAT     H211022   5.480   2.700   4.917
 3594WAT      O11023   2.335   6.704   8.665
 3594WAT     H111024   2.402   6.776   8.647
 3594WAT     H211025   2.284   6.685   8.582
 3595WAT      O11026   5.433   0.477   0.477
 3595WAT     H111027   5.468   0.439   0.562
 3595WAT     H211028   5.340   0.511   0.491
 3596WAT      O11029   6.181   6.183   3.238
 3596WAT     H111030   6.209   6.119   3.168
 3596WAT     H211031   6.154   6.133   3.321
 3597WAT      O11032   3.966   5.545   0.392
 3597WAT     H111033   4.016   5.605   0.329
 3597WAT     H211034   3.988   5.449   0.371
 3598WAT      O11035   0.301   0.291   5.247
 3598WAT     H111036   0.393   0.253   5.257
 3598WAT     H211037   0.239   0.221   5.211
 3599WAT      O11038   7.937   8.404   2.559
 3599WAT     H111039   7.945   8.311   2.594
 3599WAT     H211040   8.018   8.427   2.506
 3600WAT      O11041   9.065   4.991   3.368
 3600WAT     H111042   9.052   4.985   3.467
 3600WAT     H211043   9.109   4.908   3.335
 3601WAT      O11044   0.481   5.794   2.279
 3601WAT     H111045   0.433   5.865   2.228
 3601WAT     H211046   0.508   5.829   2.368
 3602WAT      O11047   4.897   6.016   2.266
 3602WAT     H111048   4.961   6.015   2.190
 3602WAT     H211049   4.882   5.922   2.298
 3603WAT      O11050   4.655   5.125   9.126
 3603WAT     H111051   4.613   5.070   9.199
 3603WAT     H211052   4.586   5.185   9.087
 3604WAT      O11053   3.193   3.444   3.266
 3604WAT     H111054   3.207   3.482   3.174
 3604WAT     H211055   3.176   3.346   3.260
 3605WAT      O11056   5.873   6.297   3.408
 3605WAT     H111057   5.915   6.376   3.453
 3605WAT     H211058   5.802   6.329   3.344
 3606WAT      O11059   9.147   4.559   0.275
 3606WAT     H111060   9.233   4.568   0.224
 3606WAT     H211061   9.075   4.527   0.214
 3607WAT      O11062   8.135   8.351   3.875
 3607WAT     H111063   8.065   8.290   3.837
 3607WAT     H211064   8.161   8.418   3.806
 3608WAT      O11065   7.222   5.694   8.554
 3608WAT     H111066   7.154   5.763   8.582
 3608WAT     H211067   7.249   5.710   8.460
 3609WAT      O11068   1.569   8.725   4.662
 3609WAT     H111069   1.648   8.679   4.701
 3609WAT     H211070   1.587   8.824   4.656
 3610WAT      O11071   2.629   3.863   4.310
 3610WAT     H111072   2.660   3.893   4.400
 3610WAT     H211073   2.545   3.809   4.320
 3611WAT      O11074   0.485   5.814   4.865
 3611WAT     H111075   0.511   5.852   4.954
 3611WAT     H211076   0.483   5.888   4.797
 3612WAT      O11077   1.511   2.706   3.940
 3612WAT     H111078   1.557   2.636   3.995
 3612WAT     H211079   1.575   2.781   3.921
 3613WAT      O11080   8.275   5.994   1.927
 3613WAT     H111081   8.204   5.946   1.979
 3613WAT     H211082   8.265   6.093   1.941
 3614WAT      O11083   6.594   8.452   6.480
 3614WAT     H111084   6.653   8.382   6.519
 3614WAT     H211085   6.518   8.409   6.431
 3615WAT      O11086   1.014   6.388   3.163
 3615WAT     H111087   0.921   6.383   3.125
 3615WAT     H211088   1.024   6.321   3.236
 3616WAT      O11089   4.598   8.004   3.205
 3616WAT     H111090   4.548   7.951   3.135
 3616WAT     H211091   4.569   8.099   3.201
 3617WAT      O11092   3.764   0.207   6.241
 3617WAT     H111093   3.680   0.156   6.256
 3617WAT     H211094   3.796   0.245   6.328
 3618WAT      O11095   2.440   5.694   0.088
 3618WAT     H111096   2.348   5.656   0.093
 3618WAT     H211097   2.438   5.792   0.107
 3619WAT      O11098   5.681   2.485   5.826
 3619WAT     H111099   5.677   2.528   5.736
 3619WAT     H211100   5.774   2.453   5.843
 3620WAT      O11101   3.376   1.071   2.527
 3620WAT     H111102   3.282   1.093   2.553
 3620WAT     H211103   3.438   1.140   2.564
 3621WAT      O11104   9.324   8.230   6.289
 3621WAT     H111105   9.272   8.189   6.364
 3621WAT     H211106   9.293   8.193   6.202
 3622WAT      O11107   0.323   3.152   8.879
 3622WAT     H111108   0.259   3.165   8.954
 3622WAT     H211109   0.280   3.178   8.792
 3623WAT      O11110   6.310   8.162   4.844
 3623WAT     H111111   6.404   8.195   4.831
 3623WAT     H211112   6.282   8.111   4.763
 3624WAT      O11113   4.105   9.641   7.102
 3624WAT     H111114   4.015   9.643   7.147
 3624WAT     H211115   4.098   9.683   7.012
 3625WAT      O11116   1.303   3.015   8.590
 3625WAT     H111117   1.285   2.919   8.609
 3625WAT     H211118   1.402   3.030   8.585
 3626WAT      O11119   6.485   1.015   3.839
 3626WAT     H111120   6.506   0.923   3.806
 3626WAT     H211121   6.560   1.049   3.896
 3627WAT      O11122   0.256   5.209   8.964
 3627WAT     H111123   0.285   5.276   9.032
 3627WAT     H211124   0.298   5.231   8.876
 3628WAT      O11125   7.405   1.864   5.896
 3628WAT     H111126   7.366   1.837   5.984
 3628WAT     H211127   7.334   1.866   5.826
 3629WAT      O11128   0.214   3.187   2.955
 3629WAT     H111129   0.145   3.123   2.987
 3629WAT     H211130   0.181   3.233   2.872
 3630WAT      O11131   5.194   9.809   5.937
 3630WAT     H111132   5.174   9.887   5.877
 3630WAT     H211133   5.112   9.753   5.947
 3631WAT      O11134   6.802   1.820   3.336
 3631WAT     H111135   6.774   1.749   3.400
 3631WAT     H211136   6.724   1.845   3.278
 3632WAT      O11137   8.137   2.884   9.854
 3632WAT     H111138   8.236   2.897   9.841
 3632WAT     H211139   8.114   2.902   9.950
 3633WAT      O11140   4.546   8.277   7.265
 3633WAT     H111141   4.573   8.373   7.263
 3633WAT     H211142   4.482   8.258   7.191
 3634WAT      O11143   0.664   4.547   6.936
 3634WAT     H111144   0.612   4.462   6.939
 3634WAT     H211145   0.746   4.534   6.880
 3635WAT      O11146   0.816   2.589   6.446
 3635WAT     H111147   0.892   2.638   6.488
 3635WAT     H211148   0.804   2.501   6.491
 3636WAT      O11149   8.026   1.736   8.252
 3636WAT     H111150   8.115   1.692   8.255
 3636WAT     H211151   7.958   1.672   8.215
 3637WAT      O11152   0.618   9.735   5.312
 3637WAT     H111153   0.566   9.653   5.288
 3637WAT     H211154   0.716   9.717   5.300
 3638WAT      O11155   9.651   6.916   6.765
 3638WAT     H111156   9.581   6.919   6.836
 3638WAT     H211157   9.609   6.887   6.679
 3639WAT      O11158   1.772   5.510   0.953
 3639WAT     H111159   1.844   5.521   0.885
 3639WAT     H211160   1.727   5.598   0.970
 3640WAT      O11161   9.619   8.761   2.098
 3640WAT     H111162   9.655   8.674   2.132
 3640WAT     H211163   9.634   8.767   1.999
 3641WAT      O11164   4.541   4.535   2.344
 3641WAT     H111165   4.583   4.563   2.430
 3641WAT     H211166   4.602   4.472   2.296
 3642WAT      O11167   6.594   9.264   9.402
 3642WAT     H111168   6.515   9.223   9.357
 3642WAT     H211169   6.562   9.329   9.471
 3643WAT      O11170   2.624   4.575   7.420
 3643WAT     H111171   2.701   4.634   7.445
 3643WAT     H211172   2.622   4.565   7.320
 3644WAT      O11173   8.946   9.693   1.312
 3644WAT     H111174   9.033   9.643   1.310
 3644WAT     H211175   8.962   9.785   1.347
 3645WAT      O11176   3.368   2.672   6.470
 3645WAT     H111177   3.283   2.700   6.516
 3645WAT     H211178   3.378   2.723   6.385
 3646WAT      O11179   6.614   5.986   5.138
 3646WAT     H111180   6.522   5.965   5.106
 3646WAT     H211181   6.677   5.989   5.061
 3647WAT      O11182   2.872   1.228   2.171
 3647WAT     H111183   2.895   1.187   2.083
 3647WAT     H211184   2.824   1.161   2.228
 3648WAT      O11185   8.651   8.271   7.860
 3648WAT     H111186   8.686   8.179   7.847
 3648WAT     H211187   8.559   8.279   7.822
 3649WAT      O11188   0.115   1.393   9.738
 3649WAT     H111189   0.155   1.400   9.829
 3649WAT     H211190   0.143   1.307   9.695
 3650WAT      O11191   9.791   4.669   1.962
 3650WAT     H111192   9.708   4.635   2.008
 3650WAT     H211193   9.872   4.637   2.013
 3651WAT      O11194   2.817   7.016   8.704
 3651WAT     H111195   2.888   6.951   8.731
 3651WAT     H211196   2.795   7.075   8.782
 3652WAT      O11197   2.472   6.938   6.864
 3652WAT     H111198   2.384   6.948   6.910
 3652WAT     H211199   2.534   6.885   6.922
 3653WAT      O11200   3.848   6.298   2.622
 3653WAT     H111201   3.813   6.342   2.704
 3653WAT     H211202   3.939   6.333   2.601
 3654WAT      O11203   6.864   0.392   5.293
 3654WAT     H111204   6.875   0.352   5.384
 3654WAT     H211205   6.951   0.430   5.262
 3655WAT      O11206   3.226   0.829   5.308
 3655WAT     H111207   3.316   0.811   5.348
 3655WAT     H211208   3.214   0.773   5.226
 3656WAT      O11209   0.297   2.273   7.242
 3656WAT     H111210   0.277   2.188   7.291
 3656WAT     H211211   0.216   2.332   7.243
 3657WAT      O11212   0.618   6.059   7.700
 3657WAT     H111213   0.552   6.102   7.760
 3657WAT     H211214   0.711   6.077   7.733
 3658WAT      O11215   2.597   4.911   8.599
 3658WAT     H111216   2.633   4.856   8.523
 3658WAT     H211217   2.585   5.006   8.569
 3659WAT      O11218   3.816   7.897   7.616
 3659WAT     H111219   3.771   7.871   7.702
 3659WAT     H211220   3.854   7.989   7.626
 3660WAT      O11221   5.564   3.655   1.085
 3660WAT     H111222   5.532   3.745   1.056
 3660WAT     H211223   5.658   3.642   1.054
 3661WAT      O11224   3.329   9.185   1.910
 3661WAT     H111225   3.367   9.150   1.825
 3661WAT     H211226   3.317   9.284   1.904
 3662WAT      O11227   9.790   0.845   5.194
 3662WAT     H111228   9.870   0.797   5.158
 3662WAT     H211229   9.793   0.845   5.294
 3663WAT      O11230   8.910   6.265   3.299
 3663WAT     H111231   8.878   6.327   3.227
 3663WAT     H211232   8.908   6.171   3.265
 3664WAT      O11233   3.670   4.878   5.297
 3664WAT     H111234   3.734   4.814   5.339
 3664WAT     H211235   3.677   4.872   5.198
 3665WAT      O11236   9.333   1.588   7.754
 3665WAT     H111237   9.339   1.686   7.770
 3665WAT     H211238   9.402   1.541   7.809
 3666WAT      O11239   5.376   0.458   8.495
 3666WAT     H111240   5.411   0.476   8.586
 3666WAT     H211241   5.327   0.538   8.461
 3667WAT      O11242   6.957   5.967   0.982
 3667WAT     H111243   6.960   6.047   0.922
 3667WAT     H211244   6.923   5.994   1.072
 3668WAT      O11245   0.312   5.817   7.849
 3668WAT     H111246   0.325   5.720   7.829
 3668WAT     H211247   0.375   5.846   7.921
 3669WAT      O11248   2.365   7.541   1.312
 3669WAT     H111249   2.398   7.603   1.241
 3669WAT     H211250   2.372   7.447   1.281
 3670WAT      O11251   5.825   3.210   7.342
 3670WAT     H111252   5.801   3.180   7.250
 3670WAT     H211253   5.924   3.209   7.353
 3671WAT      O11254   0.577   7.525   6.140
 3671WAT     H111255   0.507   7.456   6.121
 3671WAT     H211256   0.570   7.554   6.235
 3672WAT      O11257   3.305   8.103   5.893
 3672WAT     H111258   3.374   8.119   5.822
 3672WAT     H211259   3.324   8.017   5.939
 3673WAT      O11260   9.830   3.038   5.608
 3673WAT     H111261   9.786   3.025   5.696
 3673WAT     H211262   9.833   3.135   5.585
 3674WAT      O11263   1.013   5.164   6.706
 3674WAT     H111264   1.054   5.095   6.646
 3674WAT     H211265   0.928   5.128   6.746
 3675WAT      O11266   1.642   3.359   4.817
 3675WAT     H111267   1.718   3.395   4.870
 3675WAT     H211268   1.565   3.339   4.878
 3676WAT      O11269   2.632   7.767   3.256
 3676WAT     H111270   2.685   7.780   3.172
 3676WAT     H211271   2.590   7.854   3.282
 3677WAT      O11272   8.338   1.226   5.360
 3677WAT     H111273   8.306   1.274   5.442
 3677WAT     H211274   8.267   1.163   5.329
 3678WAT      O11275   3.105   9.240   6.154
 3678WAT     H111276   3.061   9.244   6.064
 3678WAT     H211277   3.102   9.330   6.197
 3679WAT      O11278   8.010   5.310   9.396
 3679WAT     H111279   7.994   5.299   9.494
 3679WAT     H211280   7.922   5.313   9.349
 3680WAT      O11281   9.019   8.931   8.033
 3680WAT     H111282   9.021   9.031   8.024
 3680WAT     H211283   8.928   8.897   8.009
 3681WAT      O11284   7.701   4.312   0.717
 3681WAT     H111285   7.605   4.299   0.742
 3681WAT     H211286   7.740   4.225   0.688
 3682WAT      O11287   9.801   5.537   5.790
 3682WAT     H111288   9.799   5.456   5.732
 3682WAT     H211289   9.728   5.530   5.858
 3683WAT      O11290   0.106   3.336   2.358
 3683WAT     H111291   0.105   3.252   2.304
 3683WAT     H211292   0.116   3.313   2.454
 3684WAT      O11293   6.863   6.189   8.672
 3684WAT     H111294   6.801   6.266   8.664
 3684WAT     H211295   6.813   6.103   8.658
 3685WAT      O11296   4.882   7.703   9.746
 3685WAT     H111297   4.962   7.719   9.689
 3685WAT     H211298   4.906   7.642   9.821
 3686WAT      O11299   4.118   8.754   3.161
 3686WAT     H111300   4.039   8.741   3.100
 3686WAT     H211301   4.198   8.778   3.107
 3687WAT      O11302   9.343   1.850   6.373
 3687WAT     H111303   9.303   1.939   6.395
 3687WAT     H211304   9.270   1.781   6.369
 3688WAT      O11305   5.624   6.952   5.301
 3688WAT     H111306   5.584   6.929   5.389
 3688WAT     H211307   5.556   6.938   5.229
 3689WAT      O11308   8.045   1.440   5.332
 3689WAT     H111309   7.983   1.368   5.302
 3689WAT     H211310   8.042   1.449   5.431
 3690WAT      O11311   9.373   2.137   9.011
 3690WAT     H111312   9.405   2.230   9.028
 3690WAT     H211313   9.374   2.118   8.913
 3691WAT      O11314   6.132   8.514   6.019
 3691WAT     H111315   6.166   8.551   5.933
 3691WAT     H211316   6.174   8.563   6.096
 3692WAT      O11317   4.611   9.215   8.295
 3692WAT     H111318   4.620   9.146   8.224
 3692WAT     H211319   4.683   9.203   8.363
 3693WAT      O11320   6.120   2.106   0.147
 3693WAT     H111321   6.152   2.075   0.237
 3693WAT     H211322   6.135   2.033   0.080
 3694WAT      O11323   6.672   5.873   3.049
 3694WAT     H111324   6.679   5.783   3.093
 3694WAT     H211325   6.650   5.861   2.952
 3695WAT      O11326   7.811   2.019   5.444
 3695WAT     H111327   7.851   2.088   5.504
 3695WAT     H211328   7.874   2.001   5.368
 3696WAT      O11329   1.357   1.094   1.163
 3696WAT     H111330   1.424   1.024   1.137
 3696WAT     H211331   1.318   1.071   1.252
 3697WAT      O11332   7.551   1.118   5.796
 3697WAT     H111333   7.471   1.060   5.802
 3697WAT     H211334   7.583   1.141   5.888
 3698WAT      O11335   2.980   1.989   0.307
 3698WAT     H111336   2.973   2.080   0.349
 3698WAT     H211337   2.902   1.974   0.247
 3699WAT      O11338   9.231   0.597   2.191
 3699WAT     H111339   9.247   0.696   2.191
 3699WAT     H211340   9.135   0.579   2.171
 3700WAT      O11341   1.481   3.676   1.813
 3700WAT     H111342   1.516   3.608   1.877
 3700WAT     H211343   1.504   3.767   1.846
 3701WAT      O11344   8.155   7.627   2.770
 3701WAT     H111345   8.240   7.578   2.785
 3701WAT     H211346   8.170   7.725   2.782
 3702WAT      O11347   4.487   3.891   2.906
 3702WAT     H111348   4.433   3.968   2.869
 3702WAT     H211349   4.556   3.865   2.839
 3703WAT      O11350   2.826   4.597   5.013
 3703WAT     H111351   2.822   4.500   5.035
 3703WAT     H211352   2.834   4.651   5.097
 3704WAT      O11353   1.565   0.498   0.116
 3704WAT     H111354   1.467   0.496   0.102
 3704WAT     H211355   1.607   0.419   0.073
 3705WAT      O11356   5.549   1.303   6.511
 3705WAT     H111357   5.524   1.323   6.416
 3705WAT     H211358   5.622   1.235   6.512
 3706WAT      O11359   9.433   8.048   5.512
 3706WAT     H111360   9.478   7.959   5.517
 3706WAT     H211361   9.456   8.101   5.593
 3707WAT      O11362   6.542   4.988   0.840
 3707WAT     H111363   6.626   5.009   0.790
 3707WAT     H211364   6.541   5.039   0.926
 3708WAT      O11365   6.532   2.458   1.276
 3708WAT     H111366   6.571   2.449   1.185
 3708WAT     H211367   6.603   2.443   1.345
 3709WAT      O11368   1.091   5.096   3.157
 3709WAT     H111369   1.115   5.192   3.166
 3709WAT     H211370   0.993   5.084   3.173
 3710WAT      O11371   5.956   6.050   7.720
 3710WAT     H111372   5.873   5.994   7.730
 3710WAT     H211373   6.018   6.030   7.796
 3711WAT      O11374   7.014   8.215   3.017
 3711WAT     H111375   6.925   8.232   2.974
 3711WAT     H211376   7.004   8.144   3.086
 3712WAT      O11377   5.359   2.985   9.663
 3712WAT     H111378   5.404   3.039   9.592
 3712WAT     H211379   5.332   2.896   9.626
 3713WAT      O11380   1.914   8.191   3.334
 3713WAT     H111381   1.826   8.154   3.305
 3713WAT     H211382   1.929   8.172   3.431
 3714WAT      O11383   7.977   4.025   6.965
 3714WAT     H111384   7.944   3.934   6.943
 3714WAT     H211385   7.916   4.068   7.032
 3715WAT      O11386   0.228   0.789   9.813
 3715WAT     H111387   0.303   0.792   9.879
 3715WAT     H211388   0.162   0.720   9.842
 3716WAT      O11389   0.006   6.148   3.466
 3716WAT     H111390   0.070   6.168   3.392
 3716WAT     H211391  -0.015   6.233   3.516
 3717WAT      O11392   1.914   0.944   0.118
 3717WAT     H111393   1.900   0.846   0.133
 3717WAT     H211394   1.825   0.989   0.113
 3718WAT      O11395   7.210   0.875   8.861
 3718WAT     H111396   7.270   0.799   8.888
 3718WAT     H211397   7.143   0.891   8.933
 3719WAT      O11398   1.120   4.321   3.495
 3719WAT     H111399   1.142   4.322   3.593
 3719WAT     H211400   1.045   4.257   3.478
 3720WAT      O11401   1.163   6.333   7.483
 3720WAT     H111402   1.137   6.420   7.442
 3720WAT     H211403   1.203   6.350   7.573
 3721WAT      O11404   8.844   5.333   2.634
 3721WAT     H111405   8.871   5.429   2.623
 3721WAT     H211406   8.776   5.310   2.563
 3722WAT      O11407   2.926   2.767   0.738
 3722WAT     H111408   2.923   2.815   0.826
 3722WAT     H211409   2.840   2.718   0.724
 3723WAT      O11410   7.662   0.222   0.295
 3723WAT     H111411   7.735   0.172   0.341
 3723WAT     H211412   7.573   0.185   0.322
 3724WAT      O11413   8.402   5.322   7.454
 3724WAT     H111414   8.314   5.302   7.498
 3724WAT     H211415   8.403   5.282   7.363
 3725WAT      O11416   1.326   6.552   0.225
 3725WAT     H111417   1.392   6.585   0.158
 3725WAT     H211418   1.310   6.623   0.294
 3726WAT      O11419   5.643   2.642   2.445
 3726WAT     H111420   5.594   2.726   2.421
 3726WAT     H211421   5.637   2.627   2.543
 3727WAT      O11422   0.600   9.375   5.192
 3727WAT     H111423   0.534   9.358   5.265
 3727WAT     H211424   0.649   9.291   5.171
 3728WAT      O11425   3.412   7.449   5.464
 3728WAT     H111426   3.422   7.538   5.508
 3728WAT     H211427   3.326   7.407   5.490
 3729WAT      O11428   4.479   8.513   5.891
 3729WAT     H111429   4.384   8.504   5.860
 3729WAT     H211430   4.533   8.557   5.819
 3730WAT      O11431   2.241   4.496   8.307
 3730WAT     H111432   2.164   4.452   8.260
 3730WAT     H211433   2.216   4.590   8.330
 3731WAT      O11434   2.190   4.163   7.959
 3731WAT     H111435   2.151   4.115   8.038
 3731WAT     H211436   2.283   4.131   7.943
 3732WAT      O11437   8.718   6.123   0.493
 3732WAT     H111438   8.627   6.157   0.515
 3732WAT     H211439   8.775   6.199   0.461
 3733WAT      O11440   0.530   2.256   4.847
 3733WAT     H111441   0.463   2.193   4.807
 3733WAT     H211442   0.617   2.248   4.798
 3734WAT      O11443   4.358   4.417   6.956
 3734WAT     H111444   4.264   4.384   6.948
 3734WAT     H211445   4.380   4.429   7.053
 3735WAT      O11446   0.329   5.744   6.734
 3735WAT     H111447   0.336   5.723   6.831
 3735WAT     H211448   0.412   5.714   6.687
 3736WAT      O11449   5.551   4.692   0.162
 3736WAT     H111450   5.554   4.787   0.191
 3736WAT     H211451   5.563   4.686   0.063
 3737WAT      O11452   9.087   1.468   8.669
 3737WAT     H111453   9.097   1.427   8.579
 3737WAT     H211454   9.074   1.396   8.737
 3738WAT      O11455   7.436   8.182   5.505
 3738WAT     H111456   7.470   8.158   5.414
 3738WAT     H211457   7.339   8.203   5.500
 3739WAT      O11458   0.679   9.735   9.362
 3739WAT     H111459   0.629   9.807   9.409
 3739WAT     H211460   0.699   9.763   9.268
 3740WAT      O11461   7.283   3.250   5.325
 3740WAT     H111462   7.351   3.240   5.252
 3740WAT     H211463   7.324   3.222   5.412
 3741WAT      O11464   6.200   0.353   9.344
 3741WAT     H111465   6.107   0.323   9.363
 3741WAT     H211466   6.206   0.384   9.249
 3742WAT      O11467   3.308   4.671   3.605
 3742WAT     H111468   3.358   4.750   3.569
 3742WAT     H211469   3.368   4.617   3.663
 3743WAT      O11470   5.919   3.080   5.640
 3743WAT     H111471   5.877   3.162   5.600
 3743WAT     H211472   6.017   3.096   5.653
 3744WAT      O11473   4.321   8.631   1.409
 3744WAT     H111474   4.273   8.703   1.458
 3744WAT     H211475   4.383   8.671   1.342
 3745WAT      O11476   8.934   9.381   6.943
 3745WAT     H111477   8.899   9.458   6.997
 3745WAT     H211478   8.872   9.303   6.953
 3746WAT      O11479   9.736   5.250   0.827
 3746WAT     H111480   9.642   5.221   0.811
 3746WAT     H211481   9.752   5.257   0.926
 3747WAT      O11482   9.824   8.522   2.849
 3747WAT     H111483   9.765   8.478   2.780
 3747WAT     H211484   9.899   8.570   2.803
 3748WAT      O11485   7.632   5.521   8.988
 3748WAT     H111486   7.658   5.441   8.934
 3748WAT     H211487   7.585   5.492   9.071
 3749WAT      O11488   9.082   0.916   0.725
 3749WAT     H111489   9.156   0.897   0.660
 3749WAT     H211490   9.120   0.922   0.817
 3750WAT      O11491   9.342   2.086   3.432
 3750WAT     H111492   9.376   2.150   3.501
 3750WAT     H211493   9.316   2.000   3.475
 3751WAT      O11494   3.859   7.797   2.431
 3751WAT     H111495   3.923   7.721   2.435
 3751WAT     H211496   3.767   7.762   2.415
 3752WAT      O11497   2.028   7.866   7.504
 3752WAT     H111498   2.026   7.891   7.600
 3752WAT     H211499   1.935   7.842   7.474
 3753WAT      O11500   0.613   1.372   9.716
 3753WAT     H111501   0.712   1.370   9.728
 3753WAT     H211502   0.570   1.309   9.781
 3754WAT      O11503   3.635   5.174   9.638
 3754WAT     H111504   3.694   5.136   9.566
 3754WAT     H211505   3.554   5.214   9.596
 3755WAT      O11506   2.027   8.278   1.451
 3755WAT     H111507   1.988   8.281   1.543
 3755WAT     H211508   2.061   8.186   1.432
 3756WAT      O11509   3.779   4.039   7.479
 3756WAT     H111510   3.746   4.068   7.388
 3756WAT     H211511   3.874   4.069   7.490
 3757WAT      O11512   8.778   3.167   7.458
 3757WAT     H111513   8.700   3.148   7.517
 3757WAT     H211514   8.772   3.261   7.423
 3758WAT      O11515   5.880   7.730   0.034
 3758WAT     H111516   5.794   7.780   0.020
 3758WAT     H211517   5.918   7.753   0.124
 3759WAT      O11518   6.496   1.799   3.853
 3759WAT     H111519   6.575   1.774   3.909
 3759WAT     H211520   6.525   1.864   3.783
 3760WAT      O11521   1.471   2.436   5.562
 3760WAT     H111522   1.450   2.407   5.655
 3760WAT     H211523   1.548   2.500   5.563
 3761WAT      O11524   3.414   1.004   7.856
 3761WAT     H111525   3.331   1.033   7.807
 3761WAT     H211526   3.491   1.003   7.794
 3762WAT      O11527   9.094   6.964   8.625
 3762WAT     H111528   9.038   6.931   8.550
 3762WAT     H211529   9.181   6.915   8.626
 3763WAT      O11530   4.693   7.586   9.407
 3763WAT     H111531   4.629   7.509   9.403
 3763WAT     H211532   4.786   7.552   9.419
 3764WAT      O11533   6.965   7.310   4.823
 3764WAT     H111534   6.906   7.327   4.901
 3764WAT     H211535   6.926   7.237   4.767
 3765WAT      O11536   0.133   8.893   6.488
 3765WAT     H111537   0.139   8.822   6.559
 3765WAT     H211538   0.206   8.879   6.421
 3766WAT      O11539   0.989   2.555   8.125
 3766WAT     H111540   1.056   2.624   8.098
 3766WAT     H211541   0.947   2.516   8.043
 3767WAT      O11542   7.346   1.759   4.008
 3767WAT     H111543   7.253   1.780   4.039
 3767WAT     H211544   7.342   1.723   3.915
 3768WAT      O11545   0.491   8.820   7.451
 3768WAT     H111546   0.511   8.726   7.425
 3768WAT     H211547   0.573   8.861   7.492
 3769WAT      O11548   8.106   8.119   9.528
 3769WAT     H111549   8.123   8.210   9.565
 3769WAT     H211550   8.099   8.053   9.602
 3770WAT      O11551   8.727   7.031   8.294
 3770WAT     H111552   8.660   7.040   8.367
 3770WAT     H211553   8.679   7.027   8.205
 3771WAT      O11554   7.071   2.644   9.573
 3771WAT     H111555   7.001   2.706   9.538
 3771WAT     H211556   7.060   2.635   9.672
 3772WAT      O11557   1.690   1.560   2.252
 3772WAT     H111558   1.678   1.656   2.280
 3772WAT     H211559   1.767   1.554   2.189
 3773WAT      O11560   4.339   7.825   1.872
 3773WAT     H111561   4.261   7.851   1.815
 3773WAT     H211562   4.423   7.859   1.831
 3774WAT      O11563   2.150   5.072   4.065
 3774WAT     H111564   2.130   5.155   4.014
 3774WAT     H211565   2.069   5.013   4.066
 3775WAT      O11566   9.582   0.019   5.477
 3775WAT     H111567   9.533  -0.029   5.549
 3775WAT     H211568   9.530   0.016   5.392
 3776WAT      O11569   7.472   8.597   6.316
 3776WAT     H111570   7.418   8.516   6.341
 3776WAT     H211571   7.564   8.568   6.291
 3777WAT      O11572   3.433   8.082   3.031
 3777WAT     H111573   3.510   8.136   2.997
 3777WAT     H211574   3.380   8.137   3.095
 3778WAT      O11575   5.394   8.249   0.732
 3778WAT     H111576   5.405   8.166   0.677
 3778WAT     H211577   5.313   8.299   0.701
 3779WAT      O11578   6.465   1.475   8.998
 3779WAT     H111579   6.525   1.416   9.052
 3779WAT     H211580   6.420   1.541   9.058
 3780WAT      O11581   5.797   9.004   5.534
 3780WAT     H111582   5.801   9.031   5.630
 3780WAT     H211583   5.711   8.957   5.517
 3781WAT      O11584   7.601   3.320   2.316
 3781WAT     H111585   7.558   3.409   2.328
 3781WAT     H211586   7.584   3.263   2.396
 3782WAT      O11587   6.456   1.036   5.492
 3782WAT     H111588   6.409   1.052   5.579
 3782WAT     H211589   6.428   1.105   5.426
 3783WAT      O11590   9.573   5.868   2.980
 3783WAT     H111591   9.626   5.951   2.996
 3783WAT     H211592   9.614   5.792   3.031
 3784WAT      O11593   1.879   3.686   3.275
 3784WAT     H111594   1.841   3.701   3.366
 3784WAT     H211595   1.941   3.761   3.252
 3785WAT      O11596   3.062   0.228   7.128
 3785WAT     H111597   3.106   0.316   7.110
 3785WAT     H211598   3.082   0.200   7.222
 3786WAT      O11599   4.243   9.522   1.204
 3786WAT     H111600   4.310   9.576   1.255
 3786WAT     H211601   4.195   9.581   1.139
 3787WAT      O11602   7.989   3.733   3.024
 3787WAT     H111603   8.079   3.692   3.004
 3787WAT     H211604   7.991   3.830   3.000
 3788WAT      O11605   2.735   1.307   1.699
 3788WAT     H111606   2.773   1.255   1.622
 3788WAT     H211607   2.802   1.373   1.731
 3789WAT      O11608   7.893   6.006   5.978
 3789WAT     H111609   7.987   5.973   5.972
 3789WAT     H211610   7.850   6.001   5.888
 3790WAT      O11611   7.564   7.502   1.380
 3790WAT     H111612   7.644   7.562   1.377
 3790WAT     H211613   7.594   7.407   1.380
 3791WAT      O11614   9.565   5.479   5.280
 3791WAT     H111615   9.604   5.550   5.221
 3791WAT     H211616   9.582   5.503   5.376
 3792WAT      O11617   0.833   2.398   7.381
 3792WAT     H111618   0.911   2.358   7.333
 3792WAT     H211619   0.752   2.343   7.364
 3793WAT      O11620   8.354   7.101   4.616
 3793WAT     H111621   8.404   7.181   4.650
 3793WAT     H211622   8.256   7.123   4.610
 3794WAT      O11623   4.423   9.306   4.234
 3794WAT     H111624   4.417   9.289   4.332
 3794WAT     H211625   4.506   9.358   4.214
 3795WAT      O11626   0.514   3.645   1.482
 3795WAT     H111627   0.554   3.625   1.572
 3795WAT     H211628   0.579   3.698   1.428
 3796WAT      O11629   5.673   5.685   2.563
 3796WAT     H111630   5.597   5.652   2.620
 3796WAT     H211631   5.644   5.688   2.468
 3797WAT      O11632   3.874   0.248   3.924
 3797WAT     H111633   3.851   0.173   3.861
 3797WAT     H211634   3.829   0.232   4.012
 3798WAT      O11635   5.012   6.783   4.503
 3798WAT     H111636   5.068   6.745   4.429
 3798WAT     H211637   5.072   6.823   4.572
 3799WAT      O11638   1.134   8.294   6.130
 3799WAT     H111639   1.081   8.257   6.206
 3799WAT     H211640   1.181   8.220   6.082
 3800WAT      O11641   0.649   4.766   5.232
 3800WAT     H111642   0.573   4.724   5.183
 3800WAT     H211643   0.620   4.789   5.325
 3801WAT      O11644   6.580   0.036   4.456
 3801WAT     H111645   6.596  -0.028   4.531
 3801WAT     H211646   6.543   0.121   4.492
 3802WAT      O11647   8.999   8.426   4.949
 3802WAT     H111648   9.022   8.329   4.943
 3802WAT     H211649   9.083   8.480   4.943
 3803WAT      O11650   2.647   8.242   4.062
 3803WAT     H111651   2.576   8.256   3.993
 3803WAT     H211652   2.654   8.324   4.119
 3804WAT      O11653   2.580   2.431   1.071
 3804WAT     H111654   2.500   2.371   1.072
 3804WAT     H211655   2.659   2.380   1.036
 3805WAT      O11656   2.381   8.414   4.118
 3805WAT     H111657   2.473   8.423   4.156
 3805WAT     H211658   2.367   8.483   4.046
 3806WAT      O11659   3.564   6.495   8.566
 3806WAT     H111660   3.615   6.413   8.541
 3806WAT     H211661   3.475   6.494   8.520
 3807WAT      O11662   6.259   0.039   1.369
 3807WAT     H111663   6.259   0.034   1.469
 3807WAT     H211664   6.307   0.122   1.341
 3808WAT      O11665   0.283   4.632   7.122
 3808WAT     H111666   0.243   4.717   7.158
 3808WAT     H211667   0.246   4.554   7.172
 3809WAT      O11668   7.647   8.465   3.975
 3809WAT     H111669   7.629   8.481   3.878
 3809WAT     H211670   7.708   8.536   4.010
 3810WAT      O11671   8.542   8.853   9.863
 3810WAT     H111672   8.624   8.909   9.876
 3810WAT     H211673   8.486   8.892   9.791
 3811WAT      O11674   7.437   4.208   2.847
 3811WAT     H111675   7.400   4.271   2.778
 3811WAT     H211676   7.503   4.147   2.803
 3812WAT      O11677   7.220   4.427   9.007
 3812WAT     H111678   7.247   4.517   8.973
 3812WAT     H211679   7.221   4.427   9.107
 3813WAT      O11680   7.513   8.795   8.111
 3813WAT     H111681   7.507   8.727   8.038
 3813WAT     H211682   7.423   8.835   8.127
 3814WAT      O11683   9.882   6.311   0.034
 3814WAT     H111684   9.845   6.219   0.049
 3814WAT     H211685   9.810   6.371  -0.001
 3815WAT      O11686   7.674   8.408   5.431
 3815WAT     H111687   7.647   8.345   5.357
 3815WAT     H211688   7.592   8.440   5.479
 3816WAT      O11689   6.094   6.431   6.339
 3816WAT     H111690   6.183   6.403   6.302
 3816WAT     H211691   6.031   6.353   6.337
 3817WAT      O11692   3.319   0.165   1.322
 3817WAT     H111693   3.382   0.105   1.274
 3817WAT     H211694   3.303   0.248   1.268
 3818WAT      O11695   0.606   8.056   1.564
 3818WAT     H111696   0.662   8.066   1.481
 3818WAT     H211697   0.563   7.966   1.564
 3819WAT      O11698   3.670   2.362   7.437
 3819WAT     H111699   3.766   2.340   7.453
 3819WAT     H211700   3.613   2.285   7.469
 3820WAT      O11701   1.361   6.249   9.243
 3820WAT     H111702   1.387   6.320   9.178
 3820WAT     H211703   1.436   6.185   9.255
 3821WAT      O11704   8.703   4.894   9.514
 3821WAT     H111705   8.663   4.981   9.542
 3821WAT     H211706   8.630   4.833   9.483
 3822WAT      O11707   8.330   2.100   7.191
 3822WAT     H111708   8.238   2.103   7.152
 3822WAT     H211709   8.326   2.055   7.281
 3823WAT      O11710   3.372   1.435   8.741
 3823WAT     H111711   3.354   1.533   8.748
 3823WAT     H211712   3.340   1.390   8.824
 3824WAT      O11713   8.718   3.329   8.954
 3824WAT     H111714   8.721   3.313   8.855
 3824WAT     H211715   8.646   3.273   8.995
 3825WAT      O11716   6.934   8.027   1.609
 3825WAT     H111717   6.940   8.097   1.681
 3825WAT     H211718   6.886   8.065   1.530
 3826WAT      O11719   6.558   6.745   7.033
 3826WAT     H111720   6.542   6.772   7.128
 3826WAT     H211721   6.504   6.663   7.013
 3827WAT      O11722   2.835   7.303   3.049
 3827WAT     H111723   2.843   7.353   2.963
 3827WAT     H211724   2.775   7.224   3.036
 3828WAT      O11725   4.912   9.177   7.727
 3828WAT     H111726   4.987   9.212   7.671
 3828WAT     H211727   4.938   9.178   7.823
 3829WAT      O11728   6.672   9.287   6.230
 3829WAT     H111729   6.591   9.339   6.202
 3829WAT     H211730   6.647   9.221   6.301
 3830WAT      O11731   2.410   1.896   1.866
 3830WAT     H111732   2.359   1.810   1.863
 3830WAT     H211733   2.490   1.889   1.805
 3831WAT      O11734   2.164   1.706   0.882
 3831WAT     H111735   2.209   1.625   0.922
 3831WAT     H211736   2.077   1.722   0.929
 3832WAT      O11737   1.485   2.044   1.779
 3832WAT     H111738   1.461   2.135   1.745
 3832WAT     H211739   1.432   1.975   1.730
 3833WAT      O11740   4.214   7.355   4.230
 3833WAT     H111741   4.269   7.410   4.168
 3833WAT     H211742   4.181   7.274   4.182
 3834WAT      O11743   7.671   4.774   0.297
 3834WAT     H111744   7.661   4.675   0.298
 3834WAT     H211745   7.658   4.811   0.389
 3835WAT      O11746   3.919   8.687   0.436
 3835WAT     H111747   3.904   8.744   0.516
 3835WAT     H211748   3.912   8.591   0.461
 3836WAT      O11749   2.966   8.971   6.251
 3836WAT     H111750   3.011   9.058   6.270
 3836WAT     H211751   2.869   8.979   6.273
 3837WAT      O11752   1.068   8.431   5.317
 3837WAT     H111753   1.088   8.346   5.365
 3837WAT     H211754   0.992   8.478   5.362
 3838WAT      O11755   4.352   7.196   1.162
 3838WAT     H111756   4.429   7.205   1.100
 3838WAT     H211757   4.277   7.255   1.131
 3839WAT      O11758   9.280   1.579   8.937
 3839WAT     H111759   9.286   1.580   9.037
 3839WAT     H211760   9.226   1.500   8.908
 3840WAT      O11761   0.691   9.668   1.680
 3840WAT     H111762   0.689   9.648   1.582
 3840WAT     H211763   0.598   9.687   1.712
 3841WAT      O11764   4.384   9.319   3.963
 3841WAT     H111765   4.405   9.413   3.934
 3841WAT     H211766   4.403   9.309   4.060
 3842WAT      O11767   7.210   1.182   7.125
 3842WAT     H111768   7.272   1.114   7.164
 3842WAT     H211769   7.145   1.136   7.063
 3843WAT      O11770   6.568   4.536   4.311
 3843WAT     H111771   6.595   4.630   4.292
 3843WAT     H211772   6.468   4.531   4.322
 3844WAT      O11773   4.908   9.355   0.603
 3844WAT     H111774   5.003   9.383   0.595
 3844WAT     H211775   4.867   9.397   0.684
 3845WAT      O11776   6.882   8.049   4.616
 3845WAT     H111777   6.945   8.123   4.593
 3845WAT     H211778   6.928   7.983   4.675
 3846WAT      O11779   4.094   8.856   7.124
 3846WAT     H111780   4.147   8.839   7.041
 3846WAT     H211781   4.004   8.893   7.099
 3847WAT      O11782   6.531   5.242   6.510
 3847WAT     H111783   6.461   5.175   6.487
 3847WAT     H211784   6.490   5.318   6.561
 3848WAT      O11785   9.331   8.165   5.064
 3848WAT     H111786   9.341   8.100   4.988
 3848WAT     H211787   9.403   8.148   5.131
 3849WAT      O11788   1.231   4.568   2.091
 3849WAT     H111789   1.287   4.614   2.160
 3849WAT     H211790   1.213   4.474   2.119
 3850WAT      O11791   9.270   3.647   6.666
 3850WAT     H111792   9.305   3.575   6.607
 3850WAT     H211793   9.332   3.726   6.663
 3851WAT      O11794   6.811   0.599   9.357
 3851WAT     H111795   6.756   0.522   9.326
 3851WAT     H211796   6.769   0.641   9.438
 3852WAT      O11797   9.243   8.131   9.397
 3852WAT     H111798   9.206   8.063   9.333
 3852WAT     H211799   9.317   8.090   9.451
 3853WAT      O11800   4.001   0.545   1.498
 3853WAT     H111801   4.054   0.584   1.573
 3853WAT     H211802   4.010   0.445   1.499
 3854WAT      O11803   3.628   7.556   7.749
 3854WAT     H111804   3.684   7.639   7.760
 3854WAT     H211805   3.648   7.514   7.661
 3855WAT      O11806   3.023   0.144   6.083
 3855WAT     H111807   3.043   0.071   6.148
 3855WAT     H211808   3.025   0.232   6.131
 3856WAT      O11809   4.658   5.051   3.747
 3856WAT     H111810   4.571   5.099   3.753
 3856WAT     H211811   4.642   4.952   3.745
 3857WAT      O11812   2.150   0.884   8.489
 3857WAT     H111813   2.084   0.849   8.422
 3857WAT     H211814   2.209   0.810   8.520
 3858WAT      O11815   6.374   3.865   5.493
 3858WAT     H111816   6.326   3.846   5.408
 3858WAT     H211817   6.454   3.805   5.501
 3859WAT      O11818   8.844   1.938   7.583
 3859WAT     H111819   8.863   1.915   7.487
 3859WAT     H211820   8.859   2.035   7.598
 3860WAT      O11821   0.668   5.246   7.574
 3860WAT     H111822   0.594   5.307   7.601
 3860WAT     H211823   0.631   5.170   7.521
 3861WAT      O11824   1.314   6.482   2.204
 3861WAT     H111825   1.296   6.522   2.114
 3861WAT     H211826   1.231   6.487   2.260
 3862WAT      O11827   5.380   8.698   9.036
 3862WAT     H111828   5.382   8.676   8.938
 3862WAT     H211829   5.418   8.622   9.088
 3863WAT      O11830   7.633   5.685   0.610
 3863WAT     H111831   7.707   5.747   0.583
 3863WAT     H211832   7.662   5.633   0.690
 3864WAT      O11833   1.363   5.192   3.339
 3864WAT     H111834   1.363   5.110   3.397
 3864WAT     H211835   1.320   5.267   3.388
 3865WAT      O11836   0.157   7.203   3.183
 3865WAT     H111837   0.175   7.136   3.111
 3865WAT     H211838   0.062   7.193   3.215
 3866WAT      O11839   4.340   7.697   9.156
 3866WAT     H111840   4.273   7.757   9.200
 3866WAT     H211841   4.306   7.672   9.065
 3867WAT      O11842   0.705   0.854   8.576
 3867WAT     H111843   0.652   0.799   8.640
 3867WAT     H211844   0.799   0.821   8.574
 3868WAT      O11845   8.837   1.806   4.961
 3868WAT     H111846   8.910   1.856   5.008
 3868WAT     H211847   8.799   1.863   4.888
 3869WAT      O11848   0.183   6.325   8.832
 3869WAT     H111849   0.175   6.274   8.747
 3869WAT     H211850   0.140   6.273   8.907
 3870WAT      O11851   6.112   1.666   9.725
 3870WAT     H111852   6.023   1.651   9.684
 3870WAT     H211853   6.178   1.692   9.654
 3871WAT      O11854   1.311   0.894   6.239
 3871WAT     H111855   1.401   0.849   6.242
 3871WAT     H211856   1.240   0.825   6.223
 3872WAT      O11857   4.910   5.484   1.163
 3872WAT     H111858   4.895   5.422   1.240
 3872WAT     H211859   4.958   5.565   1.194
 3873WAT      O11860   6.005   9.012   3.732
 3873WAT     H111861   5.914   9.038   3.700
 3873WAT     H211862   6.064   8.992   3.653
 3874WAT      O11863   2.116   3.142   1.883
 3874WAT     H111864   2.150   3.234   1.861
 3874WAT     H211865   2.191   3.077   1.880
 3875WAT      O11866   9.808   0.970   0.569
 3875WAT     H111867   9.831   1.029   0.491
 3875WAT     H211868   9.713   0.986   0.596
 3876WAT      O11869   9.038   3.636   7.268
 3876WAT     H111870   9.111   3.643   7.200
 3876WAT     H211871   8.985   3.721   7.270
 3877WAT      O11872   5.866   8.473   0.593
 3877WAT     H111873   5.872   8.549   0.658
 3877WAT     H211874   5.817   8.504   0.511
 3878WAT      O11875   7.263   4.351   1.002
 3878WAT     H111876   7.165   4.363   0.990
 3878WAT     H211877   7.310   4.438   0.984
 3879WAT      O11878   8.101   7.404   0.979
 3879WAT     H111879   8.181   7.463   0.969
 3879WAT     H211880   8.040   7.416   0.901
 3880WAT      O11881   8.487   3.068   4.056
 3880WAT     H111882   8.412   3.097   3.997
 3880WAT     H211883   8.458   3.072   4.151
 3881WAT      O11884   5.552   7.036   9.354
 3881WAT     H111885   5.594   6.946   9.363
 3881WAT     H211886   5.500   7.041   9.269
 3882WAT      O11887   0.744   7.938   6.249
 3882WAT     H111888   0.658   7.955   6.297
 3882WAT     H211889   0.728   7.873   6.174
 3883WAT      O11890   6.705   1.159   5.080
 3883WAT     H111891   6.656   1.093   5.136
 3883WAT     H211892   6.786   1.116   5.040
 3884WAT      O11893   6.385   0.972   4.934
 3884WAT     H111894   6.468   0.953   4.882
 3884WAT     H211895   6.352   0.887   4.975
 3885WAT      O11896   5.591   8.585   2.558
 3885WAT     H111897   5.663   8.633   2.610
 3885WAT     H211898   5.504   8.631   2.572
 3886WAT      O11899   1.602   5.597   0.179
 3886WAT     H111900   1.592   5.596   0.279
 3886WAT     H211901   1.673   5.662   0.153
 3887WAT      O11902   6.592   1.381   4.979
 3887WAT     H111903   6.650   1.461   4.995
 3887WAT     H211904   6.633   1.301   5.022
 3888WAT      O11905   9.792   5.915   9.171
 3888WAT     H111906   9.813   5.977   9.096
 3888WAT     H211907   9.865   5.917   9.239
 3889WAT      O11908   7.902   5.459   5.320
 3889WAT     H111909   7.937   5.503   5.402
 3889WAT     H211910   7.951   5.373   5.305
 3890WAT      O11911   3.072   1.139   8.159
 3890WAT     H111912   3.054   1.102   8.068
 3890WAT     H211913   3.155   1.195   8.156
 3891WAT      O11914   7.266   5.339   1.874
 3891WAT     H111915   7.254   5.425   1.823
 3891WAT     H211916   7.276   5.263   1.810
 3892WAT      O11917   1.186   6.602   3.126
 3892WAT     H111918   1.133   6.684   3.148
 3892WAT     H211919   1.125   6.523   3.120
 3893WAT      O11920   4.997   7.729   5.769
 3893WAT     H111921   4.994   7.829   5.772
 3893WAT     H211922   4.904   7.692   5.777
 3894WAT      O11923   1.048   3.731   9.361
 3894WAT     H111924   1.127   3.669   9.353
 3894WAT     H211925   1.033   3.752   9.458
 3895WAT      O11926   2.258   5.806   5.144
 3895WAT     H111927   2.296   5.714   5.153
 3895WAT     H211928   2.167   5.808   5.185
 3896WAT      O11929   4.561   6.534   1.574
 3896WAT     H111930   4.501   6.498   1.503
 3896WAT     H211931   4.623   6.462   1.605
 3897WAT      O11932   0.747   0.753   5.867
 3897WAT     H111933   0.786   0.706   5.787
 3897WAT     H211934   0.650   0.732   5.874
 3898WAT      O11935   0.757   8.077   3.359
 3898WAT     H111936   0.731   8.171   3.382
 3898WAT     H211937   0.756   8.066   3.259
 3899WAT      O11938   0.519   2.423   0.859
 3899WAT     H111939   0.478   2.496   0.804
 3899WAT     H211940   0.564   2.461   0.939
 3900WAT      O11941   0.694   6.261   0.349
 3900WAT     H111942   0.716   6.287   0.444
 3900WAT     H211943   0.774   6.220   0.306
 3901WAT      O11944   8.893   2.999   3.432
 3901WAT     H111945   8.891   3.012   3.333
 3901WAT     H211946   8.921   3.084   3.477
 3902WAT      O11947   3.183   5.069   9.570
 3902WAT     H111948   3.146   4.976   9.567
 3902WAT     H211949   3.133   5.122   9.638
 3903WAT      O11950   3.929   2.209   9.194
 3903WAT     H111951   3.922   2.220   9.293
 3903WAT     H211952   4.000   2.270   9.159
 3904WAT      O11953   9.622   9.177   7.481
 3904WAT     H111954   9.555   9.105   7.496
 3904WAT     H211955   9.631   9.194   7.383
 3905WAT      O11956   4.953   1.580   5.000
 3905WAT     H111957   4.871   1.544   4.955
 3905WAT     H211958   5.000   1.506   5.048
 3906WAT      O11959   6.652   9.705   4.751
 3906WAT     H111960   6.671   9.773   4.821
 3906WAT     H211961   6.557   9.675   4.758
 3907WAT      O11962   3.970   5.295   9.457
 3907WAT     H111963   4.068   5.279   9.465
 3907WAT     H211964   3.923   5.208   9.439
 3908WAT      O11965   5.602   1.740   4.113
 3908WAT     H111966   5.616   1.775   4.206
 3908WAT     H211967   5.505   1.746   4.089
 3909WAT      O11968   9.797   4.389   6.847
 3909WAT     H111969   9.769   4.485   6.844
 3909WAT     H211970   9.874   4.378   6.910
 3910WAT      O11971   4.403   1.992   3.134
 3910WAT     H111972   4.475   2.048   3.093
 3910WAT     H211973   4.356   1.940   3.063
 3911WAT      O11974   5.966   2.955   5.226
 3911WAT     H111975   6.054   2.978   5.269
 3911WAT     H211976   5.927   3.037   5.185
 3912WAT      O11977   8.567   4.448   3.267
 3912WAT     H111978   8.519   4.363   3.243
 3912WAT     H211979   8.589   4.448   3.364
 3913WAT      O11980   8.907   9.322   2.944
 3913WAT     H111981   8.831   9.298   2.884
 3913WAT     H211982   8.876   9.320   3.040
 3914WAT      O11983   6.837   8.632   4.303
 3914WAT     H111984   6.916   8.589   4.347
 3914WAT     H211985   6.868   8.687   4.225
 3915WAT      O11986   0.269   0.888   6.371
 3915WAT     H111987   0.353   0.942   6.363
 3915WAT     H211988   0.243   0.881   6.467
 3916WAT      O11989   8.209   6.923   5.077
 3916WAT     H111990   8.119   6.947   5.113
 3916WAT     H211991   8.237   6.834   5.113
 3917WAT      O11992   3.342   3.749   7.605
 3917WAT     H111993   3.437   3.778   7.596
 3917WAT     H211994   3.294   3.810   7.668
 3918WAT      O11995   0.984   2.016   3.113
 3918WAT     H111996   0.953   2.039   3.205
 3918WAT     H211997   1.075   2.057   3.098
 3919WAT      O11998   5.953   1.985   2.480
 3919WAT     H111999   5.878   1.919   2.488
 3919WAT     H212000   5.977   1.996   2.384
 3920WAT      O12001   5.960   0.046   4.236
 3920WAT     H112002   5.909   0.014   4.156
 3920WAT     H212003   5.901   0.042   4.317
 3921WAT      O12004   4.248   5.640   6.168
 3921WAT     H112005   4.251   5.708   6.095
 3921WAT     H212006   4.161   5.649   6.217
 3922WAT      O12007   2.228   0.398   6.597
 3922WAT     H112008   2.300   0.421   6.661
 3922WAT     H212009   2.267   0.382   6.507
 3923WAT      O12010   0.036   9.426   0.087
 3923WAT     H112011  -0.002   9.510   0.050
 3923WAT     H212012  -0.036   9.357   0.094
 3924WAT      O12013   6.855   3.513   8.315
 3924WAT     H112014   6.782   3.448   8.292
 3924WAT     H212015   6.935   3.496   8.258
 3925WAT      O12016   0.559   8.713   4.278
 3925WAT     H112017   0.481   8.721   4.217
 3925WAT     H212018   0.541   8.763   4.363
 3926WAT      O12019   8.548   9.091   5.896
 3926WAT     H112020   8.636   9.075   5.851
 3926WAT     H212021   8.526   9.188   5.891
 3927WAT      O12022   1.675   7.104   1.682
 3927WAT     H112023   1.737   7.031   1.711
 3927WAT     H212024   1.677   7.178   1.749
 3928WAT      O12025   5.321   6.604   5.917
 3928WAT     H112026   5.349   6.697   5.893
 3928WAT     H212027   5.236   6.607   5.970
 3929WAT      O12028   3.954   9.316   0.735
 3929WAT     H112029   3.855   9.318   0.752
 3929WAT     H212030   3.982   9.400   0.690
 3930WAT      O12031   1.774   7.281   1.219
 3930WAT     H112032   1.691   7.249   1.174
 3930WAT     H212033   1.761   7.279   1.319
 3931WAT      O12034   9.217   4.683   4.192
 3931WAT     H112035   9.168   4.736   4.261
 3931WAT     H212036   9.220   4.587   4.219
 3932WAT      O12037   3.866   4.403   2.224
 3932WAT     H112038   3.858   4.476   2.156
 3932WAT     H212039   3.812   4.324   2.195
 3933WAT      O12040   1.921   1.537   5.764
 3933WAT     H112041   1.852   1.506   5.699
 3933WAT     H212042   2.003   1.480   5.756
 3934WAT      O12043   3.292   9.026   7.690
 3934WAT     H112044   3.366   8.960   7.675
 3934WAT     H212045   3.323   9.117   7.664
 3935WAT      O12046   2.045   0.785   8.232
 3935WAT     H112047   1.975   0.728   8.189
 3935WAT     H212048   2.117   0.806   8.166
 3936WAT      O12049   7.709   2.597   2.557
 3936WAT     H112050   7.790   2.650   2.583
 3936WAT     H212051   7.644   2.596   2.634
 3937WAT      O12052   6.942   2.454   3.725
 3937WAT     H112053   7.003   2.392   3.676
 3937WAT     H212054   6.996   2.526   3.769
 3938WAT      O12055   7.103   7.002   1.249
 3938WAT     H112056   7.179   6.938   1.246
 3938WAT     H212057   7.113   7.070   1.177
 3939WAT      O12058   3.293   3.966   2.289
 3939WAT     H112059   3.265   4.060   2.310
 3939WAT     H212060   3.245   3.902   2.349
 3940WAT      O12061   9.760   8.386   7.418
 3940WAT     H112062   9.716   8.355   7.503
 3940WAT     H212063   9.834   8.449   7.440
 3941WAT      O12064   0.399   8.715   3.586
 3941WAT     H112065   0.447   8.631   3.608
 3941WAT     H212066   0.342   8.700   3.504
 3942WAT      O12067   2.158   9.836   7.462
 3942WAT     H112068   2.063   9.869   7.469
 3942WAT     H212069   2.219   9.914   7.446
 3943WAT      O12070   0.496   7.584   3.640
 3943WAT     H112071   0.413   7.528   3.642
 3943WAT     H212072   0.550   7.560   3.560
 3944WAT      O12073   9.459   4.724   6.286
 3944WAT     H112074   9.452   4.632   6.323
 3944WAT     H212075   9.529   4.726   6.215
 3945WAT      O12076   3.715   6.868   1.608
 3945WAT     H112077   3.640   6.803   1.622
 3945WAT     H212078   3.707   6.908   1.517
 3946WAT      O12079   7.660   0.608   1.097
 3946WAT     H112080   7.584   0.585   1.035
 3946WAT     H212081   7.624   0.619   1.190
 3947WAT      O12082   6.897   0.261   5.527
 3947WAT     H112083   6.858   0.332   5.586
 3947WAT     H212084   6.865   0.171   5.557
 3948WAT      O12085   8.023   8.432   7.530
 3948WAT     H112086   8.075   8.494   7.471
 3948WAT     H212087   7.967   8.371   7.473
 3949WAT      O12088   7.607   4.412   9.174
 3949WAT     H112089   7.521   4.379   9.214
 3949WAT     H212090   7.645   4.341   9.115
 3950WAT      O12091   0.714   9.289   3.018
 3950WAT     H112092   0.698   9.383   2.988
 3950WAT     H212093   0.692   9.225   2.944
 3951WAT      O12094   0.919   3.016   1.273
 3951WAT     H112095   0.832   3.004   1.224
 3951WAT     H212096   0.995   2.999   1.210
 3952WAT      O12097   8.398   6.117   5.645
 3952WAT     H112098   8.310   6.152   5.678
 3952WAT     H212099   8.407   6.137   5.548
 3953WAT      O12100   3.910   6.909   2.609
 3953WAT     H112101   3.859   6.825   2.594
 3953WAT     H212102   4.000   6.902   2.566
 3954WAT      O12103   5.533   1.150   2.706
 3954WAT     H112104   5.525   1.055   2.674
 3954WAT     H212105   5.469   1.208   2.656
 3955WAT      O12106   3.347   2.864   3.578
 3955WAT     H112107   3.315   2.910   3.495
 3955WAT     H212108   3.430   2.911   3.612
 3956WAT      O12109   1.453   0.820   0.062
 3956WAT     H112110   1.538   0.768   0.053
 3956WAT     H212111   1.398   0.781   0.136
 3957WAT      O12112   4.154   4.675   5.057
 3957WAT     H112113   4.124   4.582   5.080
 3957WAT     H212114   4.193   4.675   4.965
 3958WAT      O12115   8.126   2.195   9.712
 3958WAT     H112116   8.168   2.285   9.728
 3958WAT     H212117   8.168   2.153   9.632
 3959WAT      O12118   7.154   6.775   5.879
 3959WAT     H112119   7.223   6.817   5.820
 3959WAT     H212120   7.064   6.813   5.856
 3960WAT      O12121   6.387   5.400   8.904
 3960WAT     H112122   6.354   5.494   8.917
 3960WAT     H212123   6.316   5.336   8.931
 3961WAT      O12124   4.356   2.034   8.893
 3961WAT     H112125   4.404   1.953   8.926
 3961WAT     H212126   4.423   2.103   8.865
 3962WAT      O12127   0.902   7.533   7.083
 3962WAT     H112128   0.864   7.605   7.026
 3962WAT     H212129   0.867   7.444   7.052
 3963WAT      O12130   6.147   1.136   5.190
 3963WAT     H112131   6.150   1.049   5.239
 3963WAT     H212132   6.236   1.156   5.150
 3964WAT      O12133   2.168   7.301   9.848
 3964WAT     H112134   2.229   7.222   9.840
 3964WAT     H212135   2.081   7.280   9.805
 3965WAT      O12136   2.580   4.023   3.548
 3965WAT     H112137   2.608   3.946   3.606
 3965WAT     H212138   2.661   4.069   3.512
 3966WAT      O12139   5.011   9.691   8.806
 3966WAT     H112140   5.105   9.718   8.823
 3966WAT     H212141   4.993   9.602   8.850
 3967WAT      O12142   4.271   1.450   6.462
 3967WAT     H112143   4.190   1.427   6.409
 3967WAT     H212144   4.246   1.510   6.538
 3968WAT      O12145   5.106   3.322   7.735
 3968WAT     H112146   5.026   3.381   7.730
 3968WAT     H212147   5.188   3.377   7.749
 3969WAT      O12148   7.332   0.179   5.020
 3969WAT     H112149   7.313   0.080   5.026
 3969WAT     H212150   7.247   0.227   4.999
 3970WAT      O12151   2.922   2.355   9.334
 3970WAT     H112152   2.867   2.283   9.291
 3970WAT     H212153   3.018   2.327   9.334
 3971WAT      O12154   8.386   1.554   0.862
 3971WAT     H112155   8.478   1.586   0.889
 3971WAT     H212156   8.336   1.525   0.944
 3972WAT      O12157   3.389   0.246   6.391
 3972WAT     H112158   3.305   0.198   6.415
 3972WAT     H212159   3.447   0.185   6.337
 3973WAT      O12160   4.420   4.114   8.797
 3973WAT     H112161   4.400   4.042   8.862
 3973WAT     H212162   4.394   4.085   8.705
 3974WAT      O12163   3.732   6.039   2.926
 3974WAT     H112164   3.760   5.944   2.914
 3974WAT     H212165   3.632   6.044   2.931
 3975WAT      O12166   6.823   0.113   1.129
 3975WAT     H112167   6.862   0.122   1.221
 3975WAT     H212168   6.737   0.063   1.134
 3976WAT      O12169   4.598   8.268   1.112
 3976WAT     H112170   4.551   8.348   1.074
 3976WAT     H212171   4.534   8.212   1.164
 3977WAT      O12172   5.956   2.541   5.140
 3977WAT     H112173   5.903   2.459   5.119
 3977WAT     H212174   6.049   2.529   5.106
 3978WAT      O12175   3.408   0.547   1.157
 3978WAT     H112176   3.345   0.596   1.217
 3978WAT     H212177   3.494   0.598   1.151
 3979WAT      O12178   0.559   8.800   9.762
 3979WAT     H112179   0.468   8.841   9.756
 3979WAT     H212180   0.557   8.708   9.723
 3980WAT      O12181   3.517   4.597   3.886
 3980WAT     H112182   3.552   4.671   3.829
 3980WAT     H212183   3.498   4.517   3.829
 3981WAT      O12184   4.396   2.011   0.844
 3981WAT     H112185   4.304   2.001   0.805
 3981WAT     H212186   4.420   2.108   0.848
 3982WAT      O12187   8.487   3.322   0.556
 3982WAT     H112188   8.518   3.395   0.617
 3982WAT     H212189   8.524   3.234   0.588
 3983WAT      O12190   9.556   8.652   7.892
 3983WAT     H112191   9.630   8.716   7.916
 3983WAT     H212192   9.473   8.677   7.942
 3984WAT      O12193   8.059   2.774   3.586
 3984WAT     H112194   8.120   2.743   3.513
 3984WAT     H212195   8.092   2.738   3.674
 3985WAT      O12196   8.869   4.698   3.369
 3985WAT     H112197   8.799   4.769   3.379
 3985WAT     H212198   8.825   4.610   3.353
 3986WAT      O12199   8.287   3.693   2.605
 3986WAT     H112200   8.235   3.741   2.534
 3986WAT     H212201   8.325   3.759   2.670
 3987WAT      O12202   4.837   2.493   6.129
 3987WAT     H112203   4.813   2.575   6.077
 3987WAT     H212204   4.896   2.519   6.206
 3988WAT      O12205   0.409   6.486   5.982
 3988WAT     H112206   0.493   6.445   5.948
 3988WAT     H212207   0.341   6.415   6.000
 3989WAT      O12208   2.108   7.998   9.559
 3989WAT     H112209   2.153   8.087   9.570
 3989WAT     H212210   2.098   7.955   9.649
 3990WAT      O12211   9.611   8.352   4.262
 3990WAT     H112212   9.558   8.326   4.343
 3990WAT     H212213   9.673   8.427   4.286
 3991WAT      O12214   0.216   7.521   3.681
 3991WAT     H112215   0.149   7.595   3.683
 3991WAT     H212216   0.179   7.444   3.628
 3992WAT      O12217   6.599   7.918   8.897
 3992WAT     H112218   6.672   7.987   8.894
 3992WAT     H212219   6.584   7.889   8.991
 3993WAT      O12220   9.626   6.346   6.755
 3993WAT     H112221   9.579   6.349   6.667
 3993WAT     H212222   9.683   6.264   6.760
 3994WAT      O12223   5.686   9.650   2.648
 3994WAT     H112224   5.619   9.653   2.574
 3994WAT     H212225   5.655   9.711   2.722
 3995WAT      O12226   4.508   8.857   3.368
 3995WAT     H112227   4.601   8.823   3.364
 3995WAT     H212228   4.487   8.887   3.461
 3996WAT      O12229   8.860   5.449   1.384
 3996WAT     H112230   8.845   5.364   1.333
 3996WAT     H212231   8.771   5.493   1.400
 3997WAT      O12232   2.941   9.061   5.631
 3997WAT     H112233   2.880   9.009   5.572
 3997WAT     H212234   2.888   9.115   5.696
 3998WAT      O12235   1.825   7.503   7.482
 3998WAT     H112236   1.869   7.552   7.407
 3998WAT     H212237   1.727   7.495   7.464
 3999WAT      O12238   6.370   1.836   0.961
 3999WAT     H112239   6.272   1.854   0.967
 3999WAT     H212240   6.421   1.916   0.993
 4000WAT      O12241   2.611   0.465   1.633
 4000WAT     H112242   2.608   0.369   1.608
 4000WAT     H212243   2.641   0.519   1.553
 4001WAT      O12244   9.618   3.611   1.947
 4001WAT     H112245   9.613   3.610   1.848
 4001WAT     H212246   9.525   3.616   1.985
 4002WAT      O12247   7.876   1.317   2.712
 4002WAT     H112248   7.957   1.353   2.757
 4002WAT     H212249   7.808   1.292   2.780
 4003WAT      O12250   7.435   8.189   3.583
 4003WAT     H112251   7.377   8.269   3.571
 4003WAT     H212252   7.430   8.132   3.501
 4004WAT      O12253   4.013   2.240   8.077
 4004WAT     H112254   3.972   2.329   8.097
 4004WAT     H212255   4.085   2.251   8.009
 4005WAT      O12256   7.142   1.197   3.632
 4005WAT     H112257   7.085   1.116   3.642
 4005WAT     H212258   7.152   1.242   3.720
 4006WAT      O12259   3.639   2.975   5.361
 4006WAT     H112260   3.687   3.058   5.388
 4006WAT     H212261   3.696   2.922   5.298
 4007WAT      O12262   3.660   7.196   7.489
 4007WAT     H112263   3.618   7.167   7.575
 4007WAT     H212264   3.653   7.295   7.480
 4008WAT      O12265   9.313   3.143   6.754
 4008WAT     H112266   9.339   3.085   6.831
 4008WAT     H212267   9.387   3.207   6.733
 4009WAT      O12268   9.535   8.265   8.168
 4009WAT     H112269   9.500   8.257   8.074
 4009WAT     H212270   9.511   8.355   8.204
 4010WAT      O12271   8.492   5.139   5.680
 4010WAT     H112272   8.541   5.201   5.741
 4010WAT     H212273   8.539   5.134   5.592
 4011WAT      O12274   1.367   4.813   1.780
 4011WAT     H112275   1.407   4.852   1.863
 4011WAT     H212276   1.427   4.830   1.702
 4012WAT      O12277   1.590   6.281   6.545
 4012WAT     H112278   1.588   6.198   6.490
 4012WAT     H212279   1.651   6.348   6.503
 4013WAT      O12280   6.258   5.540   4.845
 4013WAT     H112281   6.247   5.534   4.746
 4013WAT     H212282   6.349   5.577   4.866
 4014WAT      O12283   4.881   1.514   7.381
 4014WAT     H112284   4.849   1.561   7.298
 4014WAT     H212285   4.972   1.475   7.364
 4015WAT      O12286   9.638   4.300   2.056
 4015WAT     H112287   9.567   4.276   2.123
 4015WAT     H212288   9.714   4.235   2.064
 4016WAT      O12289   0.623   1.403   6.571
 4016WAT     H112290   0.636   1.384   6.669
 4016WAT     H212291   0.663   1.330   6.517
 4017WAT      O12292   7.412   3.253   0.937
 4017WAT     H112293   7.504   3.288   0.921
 4017WAT     H212294   7.395   3.176   0.876
 4018WAT      O12295   1.919   6.814   6.071
 4018WAT     H112296   1.874   6.797   5.984
 4018WAT     H212297   1.961   6.729   6.104
 4019WAT      O12298   5.665   2.784   1.752
 4019WAT     H112299   5.656   2.685   1.743
 4019WAT     H212300   5.627   2.813   1.839
 4020WAT      O12301   7.259   3.320   4.152
 4020WAT     H112302   7.312   3.244   4.190
 4020WAT     H212303   7.312   3.365   4.080
 4021WAT      O12304   0.900   1.257   9.249
 4021WAT     H112305   0.990   1.271   9.290
 4021WAT     H212306   0.845   1.198   9.307
 4022WAT      O12307   3.941   5.901   7.796
 4022WAT     H112308   3.959   5.943   7.707
 4022WAT     H212309   3.923   5.973   7.864
 4023WAT      O12310   5.109   1.043   5.467
 4023WAT     H112311   5.181   1.077   5.406
 4023WAT     H212312   5.148   0.976   5.529
 4024WAT      O12313   8.902   4.273   2.723
 4024WAT     H112314   8.965   4.228   2.660
 4024WAT     H212315   8.877   4.363   2.687
 4025WAT      O12316   1.784   4.005   3.114
 4025WAT     H112317   1.760   3.949   3.034
 4025WAT     H212318   1.717   4.078   3.125
 4026WAT      O12319   5.413   6.889   1.192
 4026WAT     H112320   5.340   6.913   1.128
 4026WAT     H212321   5.425   6.790   1.194
 4027WAT      O12322   1.676   4.605   2.508
 4027WAT     H112323   1.773   4.630   2.503
 4027WAT     H212324   1.631   4.660   2.578
 4028WAT      O12325   9.075   2.745   9.466
 4028WAT     H112326   9.133   2.739   9.547
 4028WAT     H212327   9.126   2.790   9.392
 4029WAT      O12328   0.461   8.612   4.549
 4029WAT     H112329   0.370   8.598   4.511
 4029WAT     H212330   0.498   8.524   4.579
 4030WAT      O12331   9.327   3.374   6.144
 4030WAT     H112332   9.255   3.412   6.202
 4030WAT     H212333   9.370   3.297   6.191
 4031WAT      O12334   3.479   8.978   0.563
 4031WAT     H112335   3.502   8.912   0.635
 4031WAT     H212336   3.449   8.928   0.482
 4032WAT      O12337   7.204   1.394   2.209
 4032WAT     H112338   7.296   1.400   2.248
 4032WAT     H212339   7.156   1.481   2.222
 4033WAT      O12340   9.381   4.742   7.208
 4033WAT     H112341   9.441   4.803   7.260
 4033WAT     H212342   9.329   4.684   7.272
 4034WAT      O12343   0.630   1.599   4.984
 4034WAT     H112344   0.557   1.667   4.985
 4034WAT     H212345   0.639   1.557   5.074
 4035WAT      O12346   4.910   7.387   5.919
 4035WAT     H112347   5.004   7.363   5.898
 4035WAT     H212348   4.854   7.303   5.920
 4036WAT      O12349   9.407   5.566   0.660
 4036WAT     H112350   9.400   5.479   0.611
 4036WAT     H212351   9.477   5.559   0.731
 4037WAT      O12352   8.827   7.021   8.825
 4037WAT     H112353   8.793   6.949   8.886
 4037WAT     H212354   8.879   6.979   8.750
 4038WAT      O12355   8.891   6.077   2.969
 4038WAT     H112356   8.945   6.023   3.035
 4038WAT     H212357   8.952   6.131   2.912
 4039WAT      O12358   0.616   8.178   0.987
 4039WAT     H112359   0.573   8.165   0.898
 4039WAT     H212360   0.684   8.251   0.981
 4040WAT      O12361   6.643   7.963   8.029
 4040WAT     H112362   6.602   7.970   8.119
 4040WAT     H212363   6.737   7.997   8.033
 4041WAT      O12364   4.954   1.480   3.591
 4041WAT     H112365   4.932   1.557   3.651
 4041WAT     H212366   5.051   1.456   3.601
 4042WAT      O12367   7.601   2.028   3.649
 4042WAT     H112368   7.586   1.931   3.665
 4042WAT     H212369   7.546   2.058   3.571
 4043WAT      O12370   2.537   1.680   3.310
 4043WAT     H112371   2.481   1.599   3.289
 4043WAT     H212372   2.520   1.750   3.240
 4044WAT      O12373   7.280   0.208   8.908
 4044WAT     H112374   7.290   0.239   8.813
 4044WAT     H212375   7.338   0.264   8.967
 4045WAT      O12376   2.058   4.466   5.114
 4045WAT     H112377   2.089   4.379   5.076
 4045WAT     H212378   1.960   4.477   5.096
 4046WAT      O12379   9.648   6.531   3.427
 4046WAT     H112380   9.732   6.492   3.388
 4046WAT     H212381   9.589   6.458   3.461
 4047WAT      O12382   3.308   6.975   3.806
 4047WAT     H112383   3.402   6.951   3.783
 4047WAT     H212384   3.305   7.013   3.899
 4048WAT      O12385   0.701   5.910   5.671
 4048WAT     H112386   0.773   5.907   5.602
 4048WAT     H212387   0.742   5.927   5.761
 4049WAT      O12388   6.296   2.308   8.405
 4049WAT     H112389   6.380   2.264   8.435
 4049WAT     H212390   6.228   2.306   8.478
 4050WAT      O12391   7.495   3.777   5.550
 4050WAT     H112392   7.525   3.686   5.521
 4050WAT     H212393   7.552   3.808   5.626
 4051WAT      O12394   1.248   4.868   3.126
 4051WAT     H112395   1.209   4.797   3.185
 4051WAT     H212396   1.180   4.940   3.111
 4052WAT      O12397   8.067   8.638   5.018
 4052WAT     H112398   8.105   8.551   4.988
 4052WAT     H212399   8.015   8.680   4.944
 4053WAT      O12400   2.439   3.644   3.957
 4053WAT     H112401   2.418   3.741   3.971
 4053WAT     H212402   2.459   3.601   4.045
 4054WAT      O12403   2.846   3.468   2.329
 4054WAT     H112404   2.798   3.551   2.354
 4054WAT     H212405   2.803   3.389   2.373
 4055WAT      O12406   1.671   4.936   7.548
 4055WAT     H112407   1.673   4.968   7.453
 4055WAT     H212408   1.617   4.999   7.603
 4056WAT      O12409   6.217   2.505   3.574
 4056WAT     H112410   6.214   2.428   3.510
 4056WAT     H212411   6.128   2.551   3.575
 4057WAT      O12412   0.769   4.158   9.107
 4057WAT     H112413   0.722   4.095   9.044
 4057WAT     H212414   0.782   4.114   9.195
 4058WAT      O12415   8.901   5.048   6.273
 4058WAT     H112416   8.918   5.039   6.175
 4058WAT     H212417   8.814   5.003   6.296
 4059WAT      O12418   7.869   1.688   4.031
 4059WAT     H112419   7.950   1.745   4.013
 4059WAT     H212420   7.798   1.744   4.075
 4060WAT      O12421   2.653   7.059   1.698
 4060WAT     H112422   2.631   7.113   1.779
 4060WAT     H212423   2.590   6.982   1.691
 4061WAT      O12424   9.844   1.623   5.286
 4061WAT     H112425   9.825   1.630   5.384
 4061WAT     H212426   9.936   1.658   5.268
 4062WAT      O12427   5.389   9.078   7.993
 4062WAT     H112428   5.358   9.075   7.897
 4062WAT     H212429   5.323   9.130   8.047
 4063WAT      O12430   6.750   4.840   4.854
 4063WAT     H112431   6.751   4.878   4.761
 4063WAT     H212432   6.662   4.861   4.897
 4064WAT      O12433   4.216   7.405   6.907
 4064WAT     H112434   4.166   7.479   6.952
 4064WAT     H212435   4.154   7.330   6.886
 4065WAT      O12436   0.750   4.540   0.977
 4065WAT     H112437   0.667   4.494   0.946
 4065WAT     H212438   0.798   4.577   0.897
 4066WAT      O12439   8.128   1.263   8.480
 4066WAT     H112440   8.061   1.334   8.500
 4066WAT     H212441   8.116   1.186   8.543
 4067WAT      O12442   0.343   4.901   9.505
 4067WAT     H112443   0.374   4.988   9.544
 4067WAT     H212444   0.253   4.913   9.464
 4068WAT      O12445   9.880   3.014   8.694
 4068WAT     H112446   9.958   2.953   8.710
 4068WAT     H212447   9.843   2.998   8.602
 4069WAT      O12448   1.558   1.928   9.777
 4069WAT     H112449   1.540   1.993   9.852
 4069WAT     H212450   1.520   1.839   9.801
 4070WAT      O12451   6.318   7.692   4.809
 4070WAT     H112452   6.376   7.764   4.847
 4070WAT     H212453   6.223   7.726   4.803
 4071WAT      O12454   2.049   3.590   1.868
 4071WAT     H112455   2.067   3.626   1.959
 4071WAT     H212456   1.999   3.505   1.874
 4072WAT      O12457   6.788   3.758   7.000
 4072WAT     H112458   6.749   3.813   7.073
 4072WAT     H212459   6.758   3.663   7.010
 4073WAT      O12460   8.467   6.959   2.721
 4073WAT     H112461   8.375   6.990   2.745
 4073WAT     H212462   8.467   6.922   2.628
 4074WAT      O12463   9.653   1.103   4.694
 4074WAT     H112464   9.603   1.022   4.664
 4074WAT     H212465   9.649   1.109   4.794
 4075WAT      O12466   9.073   2.389   6.950
 4075WAT     H112467   9.119   2.456   6.891
 4075WAT     H212468   8.999   2.346   6.899
 4076WAT      O12469   5.847   6.571   2.624
 4076WAT     H112470   5.830   6.552   2.528
 4076WAT     H212471   5.790   6.649   2.653
 4077WAT      O12472   8.116   9.432   3.231
 4077WAT     H112473   8.095   9.453   3.135
 4077WAT     H212474   8.201   9.478   3.257
 4078WAT      O12475   2.017   8.953   5.916
 4078WAT     H112476   2.075   9.032   5.899
 4078WAT     H212477   1.997   8.947   6.014
 4079WAT      O12478   3.671   1.396   0.904
 4079WAT     H112479   3.729   1.333   0.853
 4079WAT     H212480   3.580   1.355   0.917
 4080WAT      O12481   9.523   9.432   1.606
 4080WAT     H112482   9.466   9.501   1.651
 4080WAT     H212483   9.613   9.472   1.585
 4081WAT      O12484   9.292   9.587   0.624
 4081WAT     H112485   9.330   9.615   0.537
 4081WAT     H212486   9.194   9.610   0.627
 4082WAT      O12487   2.132   7.924   0.660
 4082WAT     H112488   2.200   7.997   0.666
 4082WAT     H212489   2.142   7.863   0.739
 4083WAT      O12490   5.113   5.217   0.473
 4083WAT     H112491   5.085   5.122   0.489
 4083WAT     H212492   5.046   5.262   0.414
 4084WAT      O12493   4.147   2.311   1.334
 4084WAT     H112494   4.246   2.299   1.324
 4084WAT     H212495   4.102   2.221   1.330
 4085WAT      O12496   3.202   8.623   4.349
 4085WAT     H112497   3.192   8.541   4.405
 4085WAT     H212498   3.150   8.698   4.391
 4086WAT      O12499   5.666   7.883   7.584
 4086WAT     H112500   5.575   7.843   7.595
 4086WAT     H212501   5.670   7.970   7.633
 4087WAT      O12502   9.629   1.545   0.688
 4087WAT     H112503   9.699   1.485   0.725
 4087WAT     H212504   9.605   1.516   0.595
 4088WAT      O12505   3.721   7.938   8.531
 4088WAT     H112506   3.714   7.903   8.437
 4088WAT     H212507   3.696   8.035   8.532
 4089WAT      O12508   2.485   4.092   2.939
 4089WAT     H112509   2.513   4.156   2.868
 4089WAT     H212510   2.413   4.135   2.995
 4090WAT      O12511   1.718   0.329   1.201
 4090WAT     H112512   1.681   0.376   1.282
 4090WAT     H212513   1.818   0.326   1.207
 4091WAT      O12514   2.026   9.284   5.578
 4091WAT     H112515   2.020   9.237   5.490
 4091WAT     H212516   1.936   9.284   5.622
 4092WAT      O12517   9.629   8.250   6.056
 4092WAT     H112518   9.617   8.289   6.148
 4092WAT     H212519   9.723   8.220   6.045
 4093WAT      O12520   9.608   4.949   4.099
 4093WAT     H112521   9.551   4.880   4.143
 4093WAT     H212522   9.644   5.011   4.168
 4094WAT      O12523   3.470   4.690   6.704
 4094WAT     H112524   3.535   4.765   6.720
 4094WAT     H212525   3.513   4.603   6.730
 4095WAT      O12526   5.326   2.966   0.432
 4095WAT     H112527   5.246   2.909   0.452
 4095WAT     H212528   5.340   3.030   0.508
 4096WAT      O12529   8.502   8.403   5.194
 4096WAT     H112530   8.462   8.313   5.211
 4096WAT     H212531   8.587   8.393   5.142
 4097WAT      O12532   2.366   7.234   3.131
 4097WAT     H112533   2.275   7.210   3.097
 4097WAT     H212534   2.429   7.244   3.054
 4098WAT      O12535   6.561   7.680   4.617
 4098WAT     H112536   6.608   7.768   4.616
 4098WAT     H212537   6.464   7.695   4.637
 4099WAT      O12538   1.137   3.668   1.999
 4099WAT     H112539   1.094   3.578   2.004
 4099WAT     H212540   1.234   3.660   2.025
 4100WAT      O12541   0.455   7.191   1.187
 4100WAT     H112542   0.421   7.142   1.106
 4100WAT     H212543   0.517   7.131   1.238
 4101WAT      O12544   5.086   7.639   3.281
 4101WAT     H112545   5.007   7.594   3.239
 4101WAT     H212546   5.148   7.570   3.318
 4102WAT      O12547   5.038   3.359   1.232
 4102WAT     H112548   5.075   3.273   1.265
 4102WAT     H212549   4.994   3.345   1.143
 4103WAT      O12550   9.114   5.506   9.055
 4103WAT     H112551   9.017   5.513   9.030
 4103WAT     H212552   9.137   5.578   9.120
 4104WAT      O12553   5.363   2.859   0.016
 4104WAT     H112554   5.336   2.765  -0.002
 4104WAT     H212555   5.405   2.898  -0.066
 4105WAT      O12556   6.760   8.935   7.713
 4105WAT     H112557   6.675   8.923   7.661
 4105WAT     H212558   6.760   9.024   7.757
 4106WAT      O12559   5.573   8.920   4.741
 4106WAT     H112560   5.670   8.927   4.720
 4106WAT     H212561   5.521   8.908   4.656
 4107WAT      O12562   1.595   5.719   8.753
 4107WAT     H112563   1.568   5.814   8.768
 4107WAT     H212564   1.640   5.684   8.835
 4108WAT      O12565   6.450   8.342   7.667
 4108WAT     H112566   6.426   8.280   7.592
 4108WAT     H212567   6.538   8.315   7.705
 4109WAT      O12568   9.468   4.648   0.385
 4109WAT     H112569   9.498   4.726   0.439
 4109WAT     H212570   9.548   4.604   0.344
 4110WAT      O12571   4.760   0.569   7.786
 4110WAT     H112572   4.734   0.493   7.845
 4110WAT     H212573   4.678   0.620   7.759
 4111WAT      O12574   5.549   3.672   0.453
 4111WAT     H112575   5.454   3.661   0.425
 4111WAT     H212576   5.586   3.584   0.480
 4112WAT      O12577   8.304   1.008   7.890
 4112WAT     H112578   8.374   0.968   7.830
 4112WAT     H212579   8.215   1.003   7.846
 4113WAT      O12580   1.983   6.084   2.093
 4113WAT     H112581   1.965   6.096   1.995
 4113WAT     H212582   2.082   6.090   2.109
 4114WAT      O12583   3.882   6.094   5.198
 4114WAT     H112584   3.791   6.084   5.159
 4114WAT     H212585   3.935   6.011   5.183
 4115WAT      O12586   2.181   5.975   1.411
 4115WAT     H112587   2.221   5.905   1.471
 4115WAT     H212588   2.239   5.987   1.331
 4116WAT      O12589   3.729   9.662   6.874
 4116WAT     H112590   3.634   9.636   6.858
 4116WAT     H212591   3.735   9.762   6.882
 4117WAT      O12592   5.464   7.702   2.264
 4117WAT     H112593   5.400   7.745   2.200
 4117WAT     H212594   5.539   7.765   2.283
 4118WAT      O12595   7.445   3.744   1.279
 4118WAT     H112596   7.432   3.669   1.215
 4118WAT     H212597   7.383   3.732   1.357
 4119WAT      O12598   5.435   4.461   5.734
 4119WAT     H112599   5.491   4.377   5.735
 4119WAT     H212600   5.394   4.475   5.824
 4120WAT      O12601   0.323   7.812   8.413
 4120WAT     H112602   0.283   7.735   8.462
 4120WAT     H212603   0.421   7.815   8.429
 4121WAT      O12604   7.319   7.166   5.251
 4121WAT     H112605   7.368   7.247   5.219
 4121WAT     H212606   7.272   7.186   5.337
 4122WAT      O12607   0.458   1.182   4.265
 4122WAT     H112608   0.470   1.272   4.309
 4122WAT     H212609   0.456   1.111   4.336
 4123WAT      O12610   9.384   2.127   4.219
 4123WAT     H112611   9.411   2.207   4.163
 4123WAT     H212612   9.318   2.072   4.168
 4124WAT      O12613   1.396   4.716   7.878
 4124WAT     H112614   1.336   4.768   7.938
 4124WAT     H212615   1.475   4.683   7.930
 4125WAT      O12616   8.163   6.652   0.064
 4125WAT     H112617   8.241   6.591   0.050
 4125WAT     H212618   8.134   6.646   0.160
 4126WAT      O12619   7.965   7.994   9.036
 4126WAT     H112620   7.869   8.018   9.021
 4126WAT     H212621   8.020   8.077   9.037
 4127WAT      O12622   4.721   6.813   5.473
 4127WAT     H112623   4.660   6.858   5.408
 4127WAT     H212624   4.671   6.742   5.522
 4128WAT      O12625   3.960   8.149   3.051
 4128WAT     H112626   3.949   8.223   3.117
 4128WAT     H212627   3.936   8.062   3.093
 4129WAT      O12628   4.405   6.411   9.832
 4129WAT     H112629   4.359   6.411   9.743
 4129WAT     H212630   4.500   6.439   9.820
 4130WAT      O12631   9.563   6.295   7.891
 4130WAT     H112632   9.620   6.349   7.952
 4130WAT     H212633   9.604   6.205   7.878
 4131WAT      O12634   2.223   4.170   3.119
 4131WAT     H112635   2.167   4.108   3.174
 4131WAT     H212636   2.239   4.255   3.170
 4132WAT      O12637   6.038   4.891   6.917
 4132WAT     H112638   6.111   4.947   6.880
 4132WAT     H212639   6.036   4.899   7.017
 4133WAT      O12640   7.265   0.922   6.338
 4133WAT     H112641   7.267   0.948   6.435
 4133WAT     H212642   7.304   0.996   6.283
 4134WAT      O12643   4.496   4.426   8.193
 4134WAT     H112644   4.403   4.432   8.229
 4134WAT     H212645   4.504   4.484   8.112
 4135WAT      O12646   8.453   7.069   0.072
 4135WAT     H112647   8.412   6.988   0.030
 4135WAT     H212648   8.549   7.051   0.092
 4136WAT      O12649   6.787   7.015   7.297
 4136WAT     H112650   6.875   7.059   7.311
 4136WAT     H212651   6.788   6.965   7.210
 4137WAT      O12652   9.439   3.736   1.428
 4137WAT     H112653   9.472   3.815   1.376
 4137WAT     H212654   9.350   3.757   1.468
 4138WAT      O12655   9.296   9.662   9.653
 4138WAT     H112656   9.233   9.656   9.731
 4138WAT     H212657   9.319   9.758   9.637
 4139WAT      O12658   2.260   1.469   8.012
 4139WAT     H112659   2.323   1.393   8.024
 4139WAT     H212660   2.207   1.482   8.096
 4140WAT      O12661   8.886   0.071   0.894
 4140WAT     H112662   8.791   0.095   0.914
 4140WAT     H212663   8.902  -0.026   0.915
 4141WAT      O12664   6.490   4.056   0.652
 4141WAT     H112665   6.489   3.957   0.666
 4141WAT     H212666   6.508   4.076   0.556
 4142WAT      O12667   2.280   9.669   8.405
 4142WAT     H112668   2.223   9.750   8.416
 4142WAT     H212669   2.283   9.617   8.490
 4143WAT      O12670   5.608   4.660   5.666
 4143WAT     H112671   5.680   4.603   5.626
 4143WAT     H212672   5.525   4.605   5.678
 4144WAT      O12673   9.753   5.109   6.829
 4144WAT     H112674   9.849   5.116   6.801
 4144WAT     H212675   9.742   5.031   6.891
 4145WAT      O12676   8.405   9.254   6.377
 4145WAT     H112677   8.497   9.256   6.336
 4145WAT     H212678   8.361   9.343   6.363
 4146WAT      O12679   9.386   6.200   0.114
 4146WAT     H112680   9.416   6.111   0.079
 4146WAT     H212681   9.367   6.261   0.037
 4147WAT      O12682   2.599   6.627   3.208
 4147WAT     H112683   2.579   6.724   3.193
 4147WAT     H212684   2.516   6.579   3.233
 4148WAT      O12685   1.892   6.332   3.998
 4148WAT     H112686   1.824   6.374   3.939
 4148WAT     H212687   1.924   6.398   4.065
 4149WAT      O12688   3.630   2.341   9.725
 4149WAT     H112689   3.629   2.414   9.794
 4149WAT     H212690   3.675   2.374   9.642
 4150WAT      O12691   2.722   1.580   4.747
 4150WAT     H112692   2.791   1.570   4.818
 4150WAT     H212693   2.686   1.489   4.723
 4151WAT      O12694   2.344   4.187   7.389
 4151WAT     H112695   2.291   4.144   7.461
 4151WAT     H212696   2.436   4.147   7.386
 4152WAT      O12697   2.228   8.399   6.289
 4152WAT     H112698   2.195   8.380   6.196
 4152WAT     H212699   2.152   8.392   6.353
 4153WAT      O12700   6.954   8.620   5.794
 4153WAT     H112701   6.931   8.632   5.890
 4153WAT     H212702   6.999   8.703   5.760
 4154WAT      O12703   7.821   5.939   8.360
 4154WAT     H112704   7.875   5.916   8.441
 4154WAT     H212705   7.836   6.035   8.336
 4155WAT      O12706   0.800   8.345   4.113
 4155WAT     H112707   0.748   8.430   4.121
 4155WAT     H212708   0.784   8.288   4.193
 4156WAT      O12709   2.236   6.880   9.100
 4156WAT     H112710   2.240   6.797   9.045
 4156WAT     H212711   2.170   6.944   9.059
 4157WAT      O12712   7.861   8.002   2.894
 4157WAT     H112713   7.852   7.941   2.973
 4157WAT     H212714   7.855   8.097   2.925
 4158WAT      O12715   2.022   5.173   4.409
 4158WAT     H112716   2.006   5.202   4.314
 4158WAT     H212717   2.058   5.251   4.461
 4159WAT      O12718   0.854   8.840   8.269
 4159WAT     H112719   0.836   8.755   8.319
 4159WAT     H212720   0.946   8.836   8.230
 4160WAT      O12721   4.026   4.029   9.058
 4160WAT     H112722   3.954   4.022   9.127
 4160WAT     H212723   4.096   3.959   9.075
 4161WAT      O12724   9.665   6.160   7.154
 4161WAT     H112725   9.721   6.182   7.074
 4161WAT     H212726   9.613   6.076   7.135
 4162WAT      O12727   6.947   3.307   1.400
 4162WAT     H112728   6.996   3.354   1.473
 4162WAT     H212729   7.010   3.287   1.325
 4163WAT      O12730   6.587   0.779   3.704
 4163WAT     H112731   6.644   0.774   3.786
 4163WAT     H212732   6.502   0.729   3.719
 4164WAT      O12733   7.796   2.334   9.421
 4164WAT     H112734   7.728   2.375   9.482
 4164WAT     H212735   7.818   2.242   9.454
 4165WAT      O12736   1.108   7.787   3.109
 4165WAT     H112737   1.184   7.813   3.049
 4165WAT     H212738   1.123   7.695   3.143
 4166WAT      O12739   0.194   3.739   1.104
 4166WAT     H112740   0.222   3.716   1.197
 4166WAT     H212741   0.130   3.670   1.070
 4167WAT      O12742   4.851   8.556   1.744
 4167WAT     H112743   4.941   8.569   1.784
 4167WAT     H212744   4.820   8.643   1.703
 4168WAT      O12745   5.958   0.298   8.117
 4168WAT     H112746   5.957   0.225   8.186
 4168WAT     H212747   5.912   0.265   8.034
 4169WAT      O12748   4.598   9.043   0.698
 4169WAT     H112749   4.632   9.010   0.786
 4169WAT     H212750   4.508   9.084   0.711
 4170WAT      O12751   8.897   3.457   7.083
 4170WAT     H112752   8.974   3.395   7.066
 4170WAT     H212753   8.931   3.540   7.128
 4171WAT      O12754   3.051   0.232   4.536
 4171WAT     H112755   2.979   0.228   4.468
 4171WAT     H212756   3.077   0.139   4.562
 4172WAT      O12757   3.781   6.896   9.283
 4172WAT     H112758   3.863   6.952   9.298
 4172WAT     H212759   3.709   6.952   9.244
 4173WAT      O12760   0.056   8.239   0.355
 4173WAT     H112761  -0.018   8.287   0.401
 4173WAT     H212762   0.024   8.206   0.266
 4174WAT      O12763   8.693   2.392   9.631
 4174WAT     H112764   8.637   2.441   9.698
 4174WAT     H212765   8.633   2.345   9.566
 4175WAT      O12766   4.130   2.543   5.296
 4175WAT     H112767   4.220   2.537   5.338
 4175WAT     H212768   4.062   2.505   5.358
 4176WAT      O12769   9.258   7.246   0.936
 4176WAT     H112770   9.201   7.212   0.861
 4176WAT     H212771   9.350   7.209   0.927
 4177WAT      O12772   2.726   5.825   8.121
 4177WAT     H112773   2.680   5.797   8.205
 4177WAT     H212774   2.761   5.745   8.073
 4178WAT      O12775   1.285   9.418   4.877
 4178WAT     H112776   1.293   9.386   4.783
 4178WAT     H212777   1.193   9.399   4.912
 4179WAT      O12778   3.024   2.046   6.691
 4179WAT     H112779   3.034   2.138   6.653
 4179WAT     H212780   3.058   1.979   6.624
 4180WAT      O12781   5.295   1.977   7.557
 4180WAT     H112782   5.346   1.907   7.508
 4180WAT     H212783   5.357   2.028   7.617
 4181WAT      O12784   7.340   2.655   5.769
 4181WAT     H112785   7.362   2.721   5.697
 4181WAT     H212786   7.259   2.602   5.743
 4182WAT      O12787   0.365   5.498   8.751
 4182WAT     H112788   0.296   5.523   8.818
 4182WAT     H212789   0.386   5.400   8.760
 4183WAT      O12790   6.451   6.929   7.622
 4183WAT     H112791   6.502   7.009   7.588
 4183WAT     H212792   6.514   6.851   7.631
 4184WAT      O12793   5.958   8.706   4.876
 4184WAT     H112794   5.899   8.670   4.947
 4184WAT     H212795   6.049   8.725   4.914
 4185WAT      O12796   5.962   1.781   7.268
 4185WAT     H112797   5.983   1.811   7.361
 4185WAT     H212798   5.922   1.689   7.271
 4186WAT      O12799   2.528   7.098   3.620
 4186WAT     H112800   2.555   7.166   3.552
 4186WAT     H212801   2.594   7.097   3.695
 4187WAT      O12802   2.168   2.495   0.496
 4187WAT     H112803   2.133   2.588   0.489
 4187WAT     H212804   2.106   2.432   0.448
 4188WAT      O12805   1.567   8.580   2.232
 4188WAT     H112806   1.563   8.621   2.141
 4188WAT     H212807   1.622   8.497   2.228
 4189WAT      O12808   4.501   8.277   8.462
 4189WAT     H112809   4.543   8.230   8.385
 4189WAT     H212810   4.455   8.210   8.521
 4190WAT      O12811   1.568   6.954   8.770
 4190WAT     H112812   1.537   6.966   8.864
 4190WAT     H212813   1.490   6.929   8.712
 4191WAT      O12814   4.685   8.262   0.723
 4191WAT     H112815   4.723   8.334   0.781
 4191WAT     H212816   4.592   8.241   0.753
 4192WAT      O12817   4.137   1.811   3.278
 4192WAT     H112818   4.229   1.845   3.294
 4192WAT     H212819   4.108   1.834   3.185
 4193WAT      O12820   4.679   4.560   2.837
 4193WAT     H112821   4.624   4.549   2.919
 4193WAT     H212822   4.741   4.638   2.849
 4194WAT      O12823   2.895   7.543   0.570
 4194WAT     H112824   2.942   7.632   0.565
 4194WAT     H212825   2.800   7.558   0.597
 4195WAT      O12826   0.559   7.735   2.491
 4195WAT     H112827   0.527   7.801   2.423
 4195WAT     H212828   0.565   7.780   2.580
 4196WAT      O12829   4.476   6.717   2.049
 4196WAT     H112830   4.574   6.733   2.049
 4196WAT     H212831   4.452   6.649   2.119
 4197WAT      O12832   8.211   7.400   4.237
 4197WAT     H112833   8.259   7.316   4.264
 4197WAT     H212834   8.113   7.384   4.240
 4198WAT      O12835   1.276   5.282   4.700
 4198WAT     H112836   1.198   5.226   4.676
 4198WAT     H212837   1.244   5.371   4.734
 4199WAT      O12838   2.217   8.053   5.272
 4199WAT     H112839   2.146   8.036   5.340
 4199WAT     H212840   2.180   8.037   5.180
 4200WAT      O12841   4.830   2.933   1.545
 4200WAT     H112842   4.845   2.979   1.458
 4200WAT     H212843   4.742   2.963   1.584
 4201WAT      O12844   6.562   1.664   5.478
 4201WAT     H112845   6.496   1.691   5.549
 4201WAT     H212846   6.642   1.724   5.484
 4202WAT      O12847   7.816   8.304   8.186
 4202WAT     H112848   7.858   8.220   8.219
 4202WAT     H212849   7.849   8.382   8.241
 4203WAT      O12850   3.526   5.917   2.408
 4203WAT     H112851   3.575   5.921   2.321
 4203WAT     H212852   3.430   5.894   2.391
 4204WAT      O12853   9.612   9.249   6.843
 4204WAT     H112854   9.528   9.294   6.812
 4204WAT     H212855   9.608   9.151   6.820
 4205WAT      O12856   8.052   0.447   5.666
 4205WAT     H112857   8.060   0.538   5.625
 4205WAT     H212858   8.001   0.453   5.752
 4206WAT      O12859   3.521   1.305   7.481
 4206WAT     H112860   3.603   1.356   7.454
 4206WAT     H212861   3.495   1.244   7.406
 4207WAT      O12862   9.765   7.271   0.136
 4207WAT     H112863   9.716   7.241   0.218
 4207WAT     H212864   9.743   7.210   0.059
 4208WAT      O12865   2.400   1.421   4.544
 4208WAT     H112866   2.330   1.355   4.570
 4208WAT     H212867   2.425   1.477   4.623
 4209WAT      O12868   1.470   9.572   9.066
 4209WAT     H112869   1.552   9.524   9.096
 4209WAT     H212870   1.478   9.669   9.088
 4210WAT      O12871   9.569   7.467   4.034
 4210WAT     H112872   9.511   7.419   4.099
 4210WAT     H212873   9.515   7.493   3.954
 4211WAT      O12874   5.225   9.057   7.341
 4211WAT     H112875   5.305   9.054   7.280
 4211WAT     H212876   5.198   8.964   7.364
 4212WAT      O12877   9.462   7.159   1.329
 4212WAT     H112878   9.555   7.182   1.357
 4212WAT     H212879   9.455   7.160   1.229
 4213WAT      O12880   5.118   0.715   1.264
 4213WAT     H112881   5.213   0.724   1.292
 4213WAT     H212882   5.112   0.656   1.184
 4214WAT      O12883   9.465   0.392   2.836
 4214WAT     H112884   9.466   0.295   2.812
 4214WAT     H212885   9.383   0.412   2.889
 4215WAT      O12886   0.834   1.060   1.455
 4215WAT     H112887   0.777   1.047   1.536
 4215WAT     H212888   0.917   1.109   1.480
 4216WAT      O12889   1.295   3.689   7.509
 4216WAT     H112890   1.263   3.724   7.597
 4216WAT     H212891   1.361   3.615   7.524
 4217WAT      O12892   5.960   0.163   4.951
 4217WAT     H112893   6.021   0.230   4.993
 4217WAT     H212894   6.014   0.084   4.919
 4218WAT      O12895   2.347   0.602   4.664
 4218WAT     H112896   2.362   0.644   4.575
 4218WAT     H212897   2.379   0.507   4.663
 4219WAT      O12898   2.086   1.722   8.647
 4219WAT     H112899   2.033   1.692   8.568
 4219WAT     H212900   2.181   1.694   8.635
 4220WAT      O12901   8.704   6.977   9.441
 4220WAT     H112902   8.658   6.900   9.486
 4220WAT     H212903   8.792   6.947   9.405
 4221WAT      O12904   4.043   6.184   4.719
 4221WAT     H112905   4.129   6.219   4.757
 4221WAT     H212906   4.022   6.234   4.634
 4222WAT      O12907   6.965   5.239   9.705
 4222WAT     H112908   7.050   5.213   9.751
 4222WAT     H212909   6.978   5.327   9.659
 4223WAT      O12910   0.102   5.028   1.959
 4223WAT     H112911   0.045   5.025   1.877
 4223WAT     H212912   0.070   5.100   2.020
 4224WAT      O12913   1.935   9.764   8.820
 4224WAT     H112914   1.907   9.811   8.904
 4224WAT     H212915   1.863   9.771   8.752
 4225WAT      O12916   7.976   8.108   2.177
 4225WAT     H112917   7.999   8.023   2.129
 4225WAT     H212918   8.010   8.103   2.271
 4226WAT      O12919   0.179   2.332   2.621
 4226WAT     H112920   0.197   2.259   2.555
 4226WAT     H212921   0.084   2.326   2.652
 4227WAT      O12922   4.219   9.702   7.354
 4227WAT     H112923   4.316   9.682   7.349
 4227WAT     H212924   4.182   9.713   7.261
 4228WAT      O12925   9.352   5.904   7.783
 4228WAT     H112926   9.417   5.852   7.839
 4228WAT     H212927   9.323   5.986   7.832
 4229WAT      O12928   5.317   2.526   2.121
 4229WAT     H112929   5.234   2.515   2.177
 4229WAT     H212930   5.349   2.621   2.128
 4230WAT      O12931   1.292   6.954   2.392
 4230WAT     H112932   1.267   6.857   2.387
 4230WAT     H212933   1.306   6.991   2.300
 4231WAT      O12934   4.863   5.573   8.969
 4231WAT     H112935   4.806   5.564   8.887
 4231WAT     H212936   4.939   5.508   8.965
 4232WAT      O12937   0.809   8.935   6.838
 4232WAT     H112938   0.895   8.948   6.887
 4232WAT     H212939   0.828   8.896   6.748
 4233WAT      O12940   0.042   0.704   0.265
 4233WAT     H112941   0.110   0.713   0.338
 4233WAT     H212942   0.054   0.779   0.200
 4234WAT      O12943   6.413   7.262   3.206
 4234WAT     H112944   6.363   7.229   3.286
 4234WAT     H212945   6.383   7.355   3.184
 4235WAT      O12946   3.720   3.488   4.496
 4235WAT     H112947   3.789   3.529   4.437
 4235WAT     H212948   3.653   3.439   4.440
 4236WAT      O12949   0.184   2.858   9.410
 4236WAT     H112950   0.123   2.815   9.477
 4236WAT     H212951   0.239   2.928   9.454
 4237WAT      O12952   9.074   6.596   7.894
 4237WAT     H112953   9.133   6.538   7.838
 4237WAT     H212954   9.131   6.657   7.950
 4238WAT      O12955   7.361   1.082   3.544
 4238WAT     H112956   7.431   1.124   3.601
 4238WAT     H212957   7.271   1.116   3.569
 4239WAT      O12958   0.463   5.194   1.025
 4239WAT     H112959   0.424   5.259   1.090
 4239WAT     H212960   0.422   5.103   1.039
 4240WAT      O12961   5.466   3.840   4.476
 4240WAT     H112962   5.499   3.884   4.392
 4240WAT     H212963   5.374   3.874   4.498
 4241WAT      O12964   1.048   5.889   7.331
 4241WAT     H112965   1.105   5.961   7.371
 4241WAT     H212966   1.009   5.923   7.245
 4242WAT      O12967   1.937   5.179   4.986
 4242WAT     H112968   1.866   5.141   5.045
 4242WAT     H212969   2.000   5.234   5.042
 4243WAT      O12970   2.820   7.533   4.990
 4243WAT     H112971   2.793   7.455   5.046
 4243WAT     H212972   2.769   7.614   5.017
 4244WAT      O12973   0.429   3.160   7.613
 4244WAT     H112974   0.402   3.203   7.526
 4244WAT     H212975   0.456   3.065   7.596
 4245WAT      O12976   5.862   8.895   1.430
 4245WAT     H112977   5.951   8.857   1.402
 4245WAT     H212978   5.805   8.909   1.349
 4246WAT      O12979   3.488   8.132   2.386
 4246WAT     H112980   3.416   8.142   2.318
 4246WAT     H212981   3.466   8.187   2.466
 4247WAT      O12982   8.818   2.331   8.758
 4247WAT     H112983   8.814   2.431   8.764
 4247WAT     H212984   8.885   2.305   8.689
 4248WAT      O12985   0.342   2.202   8.162
 4248WAT     H112986   0.383   2.143   8.093
 4248WAT     H212987   0.347   2.298   8.132
 4249WAT      O12988   4.085   7.752   0.137
 4249WAT     H112989   4.117   7.687   0.206
 4249WAT     H212990   3.991   7.730   0.110
 4250WAT      O12991   6.277   4.564   1.054
 4250WAT     H112992   6.319   4.560   0.964
 4250WAT     H212993   6.234   4.653   1.067
 4251WAT      O12994   8.994   9.271   4.849
 4251WAT     H112995   9.010   9.278   4.751
 4251WAT     H212996   9.045   9.344   4.895
 4252WAT      O12997   1.682   3.716   0.185
 4252WAT     H112998   1.603   3.664   0.215
 4252WAT     H212999   1.652   3.796   0.133
 4253WAT      O13000   5.860   8.107   3.585
 4253WAT     H113001   5.857   8.063   3.495
 4253WAT     H213002   5.923   8.185   3.582
 4254WAT      O13003   6.038   6.379   8.264
 4254WAT     H113004   6.014   6.345   8.172
 4254WAT     H213005   5.961   6.364   8.326
 4255WAT      O13006   8.167   1.251   1.786
 4255WAT     H113007   8.201   1.328   1.731
 4255WAT     H213008   8.105   1.196   1.731
 4256WAT      O13009   8.526   0.958   1.890
 4256WAT     H113010   8.532   0.860   1.908
 4256WAT     H213011   8.585   1.007   1.955
 4257WAT      O13012   4.659   5.747   0.207
 4257WAT     H113013   4.588   5.745   0.136
 4257WAT     H213014   4.626   5.698   0.288
 4258WAT      O13015   6.789   5.328   7.984
 4258WAT     H113016   6.816   5.287   8.071
 4258WAT     H213017   6.770   5.256   7.918
 4259WAT      O13018   0.375   0.602   2.638
 4259WAT     H113019   0.452   0.660   2.664
 4259WAT     H213020   0.312   0.594   2.715
 4260WAT      O13021   4.614   7.426   6.619
 4260WAT     H113022   4.649   7.479   6.541
 4260WAT     H213023   4.537   7.474   6.660
 4261WAT      O13024   7.463   1.981   2.923
 4261WAT     H113025   7.426   1.890   2.944
 4261WAT     H213026   7.413   2.050   2.975
 4262WAT      O13027   7.030   2.434   7.649
 4262WAT     H113028   6.981   2.434   7.562
 4262WAT     H213029   7.006   2.516   7.700
 4263WAT      O13030   4.201   1.486   1.687
 4263WAT     H113031   4.195   1.505   1.589
 4263WAT     H213032   4.294   1.506   1.719
 4264WAT      O13033   0.375   1.859   4.559
 4264WAT     H113034   0.372   1.957   4.577
 4264WAT     H213035   0.343   1.809   4.639
 4265WAT      O13036   0.627   2.623   3.641
 4265WAT     H113037   0.685   2.677   3.580
 4265WAT     H213038   0.547   2.677   3.667
 4266WAT      O13039   7.973   7.865   0.166
 4266WAT     H113040   7.954   7.772   0.197
 4266WAT     H213041   8.071   7.875   0.149
 4267WAT      O13042   1.960   5.474   2.832
 4267WAT     H113043   1.962   5.509   2.738
 4267WAT     H213044   2.049   5.434   2.854
 4268WAT      O13045   7.535   3.101   7.077
 4268WAT     H113046   7.499   3.090   7.169
 4268WAT     H213047   7.477   3.053   7.011
 4269WAT      O13048   7.729   8.178   3.947
 4269WAT     H113049   7.650   8.131   3.986
 4269WAT     H213050   7.703   8.271   3.921
 4270WAT      O13051   6.821   8.874   6.349
 4270WAT     H113052   6.782   8.909   6.264
 4270WAT     H213053   6.805   8.940   6.422
 4271WAT      O13054   4.459   5.544   4.232
 4271WAT     H113055   4.465   5.459   4.284
 4271WAT     H213056   4.471   5.621   4.295
 4272WAT      O13057   1.611   8.704   1.006
 4272WAT     H113058   1.559   8.622   1.028
 4272WAT     H213059   1.603   8.725   0.909
 4273WAT      O13060   9.011   7.228   4.070
 4273WAT     H113061   8.917   7.246   4.042
 4273WAT     H213062   9.051   7.157   4.011
 4274WAT      O13063   8.320   8.853   0.746
 4274WAT     H113064   8.258   8.826   0.672
 4274WAT     H213065   8.266   8.884   0.825
 4275WAT      O13066   6.565   6.670   5.806
 4275WAT     H113067   6.555   6.756   5.756
 4275WAT     H213068   6.661   6.655   5.829
 4276WAT      O13069   8.172   0.688   5.376
 4276WAT     H113070   8.077   0.720   5.376
 4276WAT     H213071   8.186   0.625   5.301
 4277WAT      O13072   9.271   5.670   7.652
 4277WAT     H113073   9.212   5.626   7.721
 4277WAT     H213074   9.282   5.767   7.675
 4278WAT      O13075   9.176   5.000   0.154
 4278WAT     H113076   9.267   4.977   0.120
 4278WAT     H213077   9.147   4.932   0.221
 4279WAT      O13078   3.048   1.632   9.426
 4279WAT     H113079   3.114   1.596   9.362
 4279WAT     H213080   3.093   1.652   9.514
 4280WAT      O13081   9.657   6.681   0.871
 4280WAT     H113082   9.612   6.647   0.788
 4280WAT     H213083   9.588   6.702   0.940
 4281WAT      O13084   6.586   4.376   3.778
 4281WAT     H113085   6.563   4.366   3.875
 4281WAT     H213086   6.578   4.287   3.733
 4282WAT      O13087   2.212   9.759   5.432
 4282WAT     H113088   2.146   9.804   5.491
 4282WAT     H213089   2.226   9.665   5.463
 4283WAT      O13090   3.947   3.171   5.150
 4283WAT     H113091   3.851   3.186   5.174
 4283WAT     H213092   3.985   3.100   5.210
 4284WAT      O13093   2.808   2.653   2.489
 4284WAT     H113094   2.714   2.642   2.521
 4284WAT     H213095   2.871   2.635   2.564
 4285WAT      O13096   7.253   2.351   5.011
 4285WAT     H113097   7.287   2.257   5.004
 4285WAT     H213098   7.288   2.405   4.935
 4286WAT      O13099   0.375   4.365   7.651
 4286WAT     H113100   0.354   4.312   7.734
 4286WAT     H213101   0.301   4.430   7.634
 4287WAT      O13102   5.454   1.186   7.457
 4287WAT     H113103   5.484   1.254   7.524
 4287WAT     H213104   5.529   1.123   7.437
 4288WAT      O13105   4.311   9.573   4.459
 4288WAT     H113106   4.371   9.502   4.425
 4288WAT     H213107   4.336   9.661   4.417
 4289WAT      O13108   0.995   9.007   5.161
 4289WAT     H113109   1.011   8.909   5.174
 4289WAT     H213110   1.050   9.059   5.227
 4290WAT      O13111   2.944   3.529   0.527
 4290WAT     H113112   3.018   3.465   0.507
 4290WAT     H213113   2.982   3.619   0.546
 4291WAT      O13114   5.288   8.878   5.461
 4291WAT     H113115   5.205   8.917   5.420
 4291WAT     H213116   5.307   8.789   5.421
 4292WAT      O13117   3.052   2.675   8.151
 4292WAT     H113118   2.991   2.595   8.153
 4292WAT     H213119   2.997   2.758   8.153
 4293WAT      O13120   6.485   5.557   9.721
 4293WAT     H113121   6.492   5.655   9.700
 4293WAT     H213122   6.535   5.505   9.652
 4294WAT      O13123   9.650   0.624   0.622
 4294WAT     H113124   9.681   0.701   0.678
 4294WAT     H213125   9.676   0.641   0.526
 4295WAT      O13126   3.215   8.741   3.436
 4295WAT     H113127   3.197   8.684   3.356
 4295WAT     H213128   3.159   8.824   3.431
 4296WAT      O13129   8.625   1.235   2.763
 4296WAT     H113130   8.544   1.196   2.807
 4296WAT     H213131   8.703   1.230   2.825
 4297WAT      O13132   9.067   7.547   8.331
 4297WAT     H113133   9.123   7.536   8.249
 4297WAT     H213134   9.116   7.509   8.410
 4298WAT      O13135   7.252   0.732   9.744
 4298WAT     H113136   7.171   0.788   9.723
 4298WAT     H213137   7.223   0.639   9.767
 4299WAT      O13138   2.208   0.526   7.223
 4299WAT     H113139   2.199   0.433   7.188
 4299WAT     H213140   2.304   0.551   7.227
 4300WAT      O13141   6.487   9.484   9.544
 4300WAT     H113142   6.546   9.565   9.548
 4300WAT     H213143   6.433   9.478   9.628
 4301WAT      O13144   0.873   7.527   8.819
 4301WAT     H113145   0.838   7.520   8.912
 4301WAT     H213146   0.944   7.598   8.815
 4302WAT      O13147   5.425   7.721   3.597
 4302WAT     H113148   5.357   7.651   3.621
 4302WAT     H213149   5.517   7.686   3.613
 4303WAT      O13150   5.662   7.613   0.271
 4303WAT     H113151   5.621   7.522   0.268
 4303WAT     H213152   5.644   7.661   0.185
 4304WAT      O13153   6.808   5.750   6.591
 4304WAT     H113154   6.829   5.810   6.514
 4304WAT     H213155   6.808   5.655   6.561
 4305WAT      O13156   3.022   7.605   4.586
 4305WAT     H113157   2.955   7.572   4.652
 4305WAT     H213158   3.098   7.648   4.635
 4306WAT      O13159   2.593   3.726   3.251
 4306WAT     H113160   2.683   3.726   3.295
 4306WAT     H213161   2.523   3.747   3.319
 4307WAT      O13162   0.688   7.741   1.751
 4307WAT     H113163   0.720   7.830   1.785
 4307WAT     H213164   0.740   7.668   1.795
 4308WAT      O13165   4.055   6.888   3.376
 4308WAT     H113166   4.031   6.975   3.333
 4308WAT     H213167   4.148   6.893   3.412
 4309WAT      O13168   6.565   8.300   1.443
 4309WAT     H113169   6.491   8.244   1.406
 4309WAT     H213170   6.545   8.397   1.425
 4310WAT      O13171   8.773   6.859   1.606
 4310WAT     H113172   8.757   6.866   1.508
 4310WAT     H213173   8.814   6.944   1.639
 4311WAT      O13174   5.680   9.585   3.634
 4311WAT     H113175   5.589   9.616   3.661
 4311WAT     H213176   5.749   9.644   3.677
 4312WAT      O13177   4.492   7.049   4.414
 4312WAT     H113178   4.525   7.021   4.505
 4312WAT     H213179   4.410   6.998   4.391
 4313WAT      O13180   4.585   7.238   1.458
 4313WAT     H113181   4.677   7.267   1.486
 4313WAT     H213182   4.587   7.208   1.363
 4314WAT      O13183   1.925   4.374   4.048
 4314WAT     H113184   1.928   4.436   3.970
 4314WAT     H213185   1.966   4.287   4.023
 4315WAT      O13186   7.270   4.981   3.110
 4315WAT     H113187   7.200   4.988   3.039
 4315WAT     H213188   7.258   5.057   3.175
 4316WAT      O13189   5.845   7.317   9.042
 4316WAT     H113190   5.764   7.361   9.081
 4316WAT     H213191   5.924   7.332   9.102
 4317WAT      O13192   6.932   5.922   6.406
 4317WAT     H113193   6.905   6.008   6.362
 4317WAT     H213194   7.025   5.932   6.443
 4318WAT      O13195   1.671   8.975   4.626
 4318WAT     H113196   1.623   9.005   4.543
 4318WAT     H213197   1.751   9.033   4.640
 4319WAT      O13198   6.322   1.117   3.609
 4319WAT     H113199   6.397   1.109   3.674
 4319WAT     H213200   6.318   1.035   3.552
 4320WAT      O13201   1.202   8.048   0.208
 4320WAT     H113202   1.285   8.018   0.160
 4320WAT     H213203   1.155   8.117   0.153
 4321WAT      O13204   2.155   0.623   7.806
 4321WAT     H113205   2.252   0.609   7.822
 4321WAT     H213206   2.115   0.541   7.765
 4322WAT      O13207   1.150   7.173   9.678
 4322WAT     H113208   1.173   7.089   9.727
 4322WAT     H213209   1.191   7.252   9.725
 4323WAT      O13210   1.881   6.801   1.520
 4323WAT     H113211   1.910   6.711   1.550
 4323WAT     H213212   1.781   6.803   1.513
 4324WAT      O13213   5.156   8.835   9.861
 4324WAT     H113214   5.102   8.762   9.818
 4324WAT     H213215   5.101   8.918   9.865
 4325WAT      O13216   0.841   1.417   6.911
 4325WAT     H113217   0.898   1.450   6.836
 4325WAT     H213218   0.746   1.414   6.882
 4326WAT      O13219   5.066   4.428   1.332
 4326WAT     H113220   5.043   4.404   1.426
 4326WAT     H213221   4.982   4.441   1.279
 4327WAT      O13222   1.682   5.218   0.045
 4327WAT     H113223   1.613   5.250   0.110
 4327WAT     H213224   1.643   5.219  -0.047
 4328WAT      O13225   3.699   6.629   1.927
 4328WAT     H113226   3.689   6.567   1.848
 4328WAT     H213227   3.786   6.677   1.921
 4329WAT      O13228   0.456   6.384   7.478
 4329WAT     H113229   0.519   6.402   7.554
 4329WAT     H213230   0.503   6.332   7.407
 4330WAT      O13231   4.452   3.994   1.102
 4330WAT     H113232   4.395   4.035   1.031
 4330WAT     H213233   4.399   3.984   1.186
 4331WAT      O13234   4.372   4.924   0.932
 4331WAT     H113235   4.385   5.014   0.972
 4331WAT     H213236   4.288   4.923   0.878
 4332WAT      O13237   8.870   5.184   8.969
 4332WAT     H113238   8.841   5.262   9.025
 4332WAT     H213239   8.790   5.137   8.933
 4333WAT      O13240   1.782   2.900   6.169
 4333WAT     H113241   1.708   2.845   6.129
 4333WAT     H213242   1.775   2.994   6.137
 4334WAT      O13243   8.971   0.434   2.380
 4334WAT     H113244   8.958   0.467   2.286
 4334WAT     H213245   9.062   0.394   2.389
 4335WAT      O13246   9.554   1.858   0.100
 4335WAT     H113247   9.530   1.955   0.107
 4335WAT     H213248   9.501   1.817   0.025
 4336WAT      O13249   0.164   3.787   9.884
 4336WAT     H113250   0.082   3.730   9.880
 4336WAT     H213251   0.176   3.832   9.795
 4337WAT      O13252   4.167   6.778   2.483
 4337WAT     H113253   4.261   6.764   2.514
 4337WAT     H213254   4.162   6.863   2.430
 4338WAT      O13255   4.294   5.890   1.318
 4338WAT     H113256   4.241   5.808   1.338
 4338WAT     H213257   4.290   5.910   1.220
 4339WAT      O13258   0.783   1.196   4.492
 4339WAT     H113259   0.701   1.253   4.488
 4339WAT     H213260   0.855   1.245   4.542
 4340WAT      O13261   8.576   9.762   8.840
 4340WAT     H113262   8.573   9.696   8.915
 4340WAT     H213263   8.483   9.788   8.815
 4341WAT      O13264   5.734   2.235   6.051
 4341WAT     H113265   5.685   2.309   6.097
 4341WAT     H213266   5.832   2.244   6.068
 4342WAT      O13267   4.653   6.187   2.695
 4342WAT     H113268   4.617   6.178   2.788
 4342WAT     H213269   4.697   6.102   2.668
 4343WAT      O13270   3.137   5.206   9.164
 4343WAT     H113271   3.156   5.136   9.234
 4343WAT     H213272   3.221   5.254   9.141
 4344WAT      O13273   7.066   9.006   2.125
 4344WAT     H113274   6.982   8.973   2.082
 4344WAT     H213275   7.069   9.106   2.122
 4345WAT      O13276   8.307   8.437   4.701
 4345WAT     H113277   8.315   8.358   4.641
 4345WAT     H213278   8.301   8.520   4.647
 4346WAT      O13279   4.967   5.338   7.419
 4346WAT     H113280   5.003   5.264   7.476
 4346WAT     H213281   4.994   5.426   7.458
 4347WAT      O13282   7.900   2.962   6.323
 4347WAT     H113283   7.946   3.049   6.307
 4347WAT     H213284   7.819   2.976   6.379
 4348WAT      O13285   9.202   7.225   8.322
 4348WAT     H113286   9.120   7.172   8.344
 4348WAT     H213287   9.212   7.299   8.389
 4349WAT      O13288   6.963   1.650   7.751
 4349WAT     H113289   6.928   1.712   7.821
 4349WAT     H213290   7.031   1.589   7.790
 4350WAT      O13291   0.827   6.260   9.128
 4350WAT     H113292   0.923   6.237   9.145
 4350WAT     H213293   0.811   6.261   9.029
 4351WAT      O13294   8.220   9.683   3.849
 4351WAT     H113295   8.129   9.713   3.821
 4351WAT     H213296   8.262   9.629   3.775
 4352WAT      O13297   7.075   0.949   2.310
 4352WAT     H113298   7.085   1.044   2.339
 4352WAT     H213299   7.143   0.928   2.240
 4353WAT      O13300   8.934   1.384   9.502
 4353WAT     H113301   8.908   1.287   9.504
 4353WAT     H213302   8.946   1.416   9.596
 4354WAT      O13303   8.513   2.828   3.597
 4354WAT     H113304   8.443   2.883   3.551
 4354WAT     H213305   8.561   2.886   3.664
 4355WAT      O13306   1.655   1.100   0.801
 4355WAT     H113307   1.750   1.077   0.782
 4355WAT     H213308   1.609   1.021   0.841
 4356WAT      O13309   1.571   7.445   7.406
 4356WAT     H113310   1.565   7.345   7.397
 4356WAT     H213311   1.539   7.488   7.322
 4357WAT      O13312   5.475   9.203   3.946
 4357WAT     H113313   5.514   9.126   3.897
 4357WAT     H213314   5.544   9.275   3.956
 4358WAT      O13315   8.147   6.727   7.526
 4358WAT     H113316   8.179   6.820   7.543
 4358WAT     H213317   8.095   6.694   7.604
 4359WAT      O13318   2.828   3.486   9.168
 4359WAT     H113319   2.750   3.521   9.115
 4359WAT     H213320   2.843   3.390   9.145
 4360WAT      O13321   8.810   7.529   8.245
 4360WAT     H113322   8.772   7.619   8.225
 4360WAT     H213323   8.899   7.540   8.290
 4361WAT      O13324   9.852   8.123   3.988
 4361WAT     H113325   9.822   8.061   4.060
 4361WAT     H213326   9.786   8.198   3.978
 4362WAT      O13327   0.438   1.990   6.265
 4362WAT     H113328   0.518   1.936   6.292
 4362WAT     H213329   0.460   2.042   6.182
 4363WAT      O13330   8.893   3.144   0.599
 4363WAT     H113331   8.934   3.200   0.671
 4363WAT     H213332   8.914   3.185   0.510
 4364WAT      O13333   2.310   7.397   9.188
 4364WAT     H113334   2.238   7.450   9.232
 4364WAT     H213335   2.314   7.306   9.230
 4365WAT      O13336   9.087   5.668   7.888
 4365WAT     H113337   9.038   5.737   7.834
 4365WAT     H213338   9.033   5.646   7.970
 4366WAT      O13339   7.625   3.147   6.557
 4366WAT     H113340   7.646   3.053   6.530
 4366WAT     H213341   7.686   3.175   6.631
 4367WAT      O13342   5.753   8.956   1.199
 4367WAT     H113343   5.831   8.944   1.138
 4367WAT     H213344   5.692   8.878   1.191
 4368WAT      O13345   5.094   9.319   4.987
 4368WAT     H113346   5.162   9.248   5.004
 4368WAT     H213347   5.104   9.392   5.055
 4369WAT      O13348   5.107   6.691   0.482
 4369WAT     H113349   5.105   6.611   0.542
 4369WAT     H213350   5.201   6.708   0.453
 4370WAT      O13351   2.897   4.390   7.016
 4370WAT     H113352   2.819   4.343   7.058
 4370WAT     H213353   2.907   4.481   7.057
 4371WAT      O13354   1.419   0.984   7.481
 4371WAT     H113355   1.357   0.917   7.522
 4371WAT     H213356   1.419   1.068   7.536
 4372WAT      O13357   1.325   6.567   6.044
 4372WAT     H113358   1.391   6.634   6.009
 4372WAT     H213359   1.323   6.488   5.983
 4373WAT      O13360   6.932   3.614   3.109
 4373WAT     H113361   6.850   3.620   3.166
 4373WAT     H213362   7.012   3.595   3.166
 4374WAT      O13363   7.943   2.651   5.049
 4374WAT     H113364   7.909   2.559   5.029
 4374WAT     H213365   7.935   2.668   5.147
 4375WAT      O13366   0.564   6.484   5.633
 4375WAT     H113367   0.597   6.458   5.723
 4375WAT     H213368   0.533   6.579   5.635
 4376WAT      O13369   0.397   8.988   4.965
 4376WAT     H113370   0.435   9.041   4.888
 4376WAT     H213371   0.462   8.989   5.041
 4377WAT      O13372   8.336   2.005   4.542
 4377WAT     H113373   8.390   2.089   4.554
 4377WAT     H213374   8.299   1.976   4.630
 4378WAT      O13375   7.777   4.856   7.573
 4378WAT     H113376   7.738   4.841   7.664
 4378WAT     H213377   7.703   4.873   7.508
 4379WAT      O13378   2.905   5.911   9.512
 4379WAT     H113379   2.995   5.881   9.480
 4379WAT     H213380   2.912   6.003   9.551
 4380WAT      O13381   7.595   7.371   4.439
 4380WAT     H113382   7.526   7.299   4.442
 4380WAT     H213383   7.620   7.397   4.532
 4381WAT      O13384   0.275   2.420   2.881
 4381WAT     H113385   0.373   2.436   2.876
 4381WAT     H213386   0.238   2.407   2.789
 4382WAT      O13387   8.155   7.113   7.760
 4382WAT     H113388   8.079   7.080   7.814
 4382WAT     H213389   8.211   7.175   7.815
 4383WAT      O13390   3.854   0.599   0.577
 4383WAT     H113391   3.916   0.600   0.656
 4383WAT     H213392   3.764   0.630   0.606
 4384WAT      O13393   9.073   1.590   4.245
 4384WAT     H113394   9.065   1.517   4.177
 4384WAT     H213395   8.998   1.655   4.233
 4385WAT      O13396   2.949   3.548   9.874
 4385WAT     H113397   2.971   3.578   9.967
 4385WAT     H213398   2.976   3.619   9.809
 4386WAT      O13399   8.332   8.933   4.563
 4386WAT     H113400   8.361   8.950   4.468
 4386WAT     H213401   8.259   8.996   4.588
 4387WAT      O13402   1.610   7.333   9.320
 4387WAT     H113403   1.651   7.288   9.241
 4387WAT     H213404   1.518   7.296   9.335
 4388WAT      O13405   2.004   9.241   2.471
 4388WAT     H113406   1.937   9.228   2.398
 4388WAT     H213407   1.958   9.234   2.560
 4389WAT      O13408   3.518   1.345   5.687
 4389WAT     H113409   3.428   1.388   5.690
 4389WAT     H213410   3.510   1.254   5.648
 4390WAT      O13411   9.744   3.695   4.169
 4390WAT     H113412   9.694   3.780   4.178
 4390WAT     H213413   9.829   3.700   4.223
 4391WAT      O13414   9.851   7.740   1.310
 4391WAT     H113415   9.884   7.818   1.255
 4391WAT     H213416   9.760   7.715   1.279
 4392WAT      O13417   9.865   8.151   9.126
 4392WAT     H113418   9.835   8.065   9.085
 4392WAT     H213419   9.840   8.153   9.223
 4393WAT      O13420   6.453   7.933   0.256
 4393WAT     H113421   6.456   8.029   0.229
 4393WAT     H213422   6.493   7.922   0.347
 4394WAT      O13423   1.215   6.694   2.450
 4394WAT     H113424   1.279   6.636   2.499
 4394WAT     H213425   1.123   6.654   2.454
 4395WAT      O13426   6.131   0.663   6.165
 4395WAT     H113427   6.039   0.642   6.131
 4395WAT     H213428   6.128   0.681   6.263
 4396WAT      O13429   5.699   4.087   4.420
 4396WAT     H113430   5.675   4.039   4.335
 4396WAT     H213431   5.794   4.119   4.414
 4397WAT      O13432   4.252   6.286   4.130
 4397WAT     H113433   4.199   6.240   4.202
 4397WAT     H213434   4.296   6.217   4.073
 4398WAT      O13435   3.437   3.815   1.147
 4398WAT     H113436   3.443   3.881   1.222
 4398WAT     H213437   3.385   3.735   1.177
 4399WAT      O13438   0.236   9.454   9.244
 4399WAT     H113439   0.278   9.374   9.201
 4399WAT     H213440   0.177   9.425   9.319
 4400WAT      O13441   0.794   4.699   3.249
 4400WAT     H113442   0.768   4.659   3.162
 4400WAT     H213443   0.851   4.635   3.300
 4401WAT      O13444   7.963   3.039   3.524
 4401WAT     H113445   7.992   2.945   3.504
 4401WAT     H213446   7.966   3.054   3.623
 4402WAT      O13447   5.431   3.056   7.909
 4402WAT     H113448   5.361   3.074   7.839
 4402WAT     H213449   5.507   3.007   7.868
 4403WAT      O13450   5.439   7.229   3.685
 4403WAT     H113451   5.408   7.237   3.590
 4403WAT     H213452   5.378   7.282   3.744
 4404WAT      O13453   6.894   2.502   5.830
 4404WAT     H113454   6.890   2.584   5.887
 4404WAT     H213455   6.838   2.516   5.748
 4405WAT      O13456   3.369   5.148   4.889
 4405WAT     H113457   3.270   5.157   4.893
 4405WAT     H213458   3.410   5.236   4.866
 4406WAT      O13459   6.929   8.476   4.916
 4406WAT     H113460   6.856   8.508   4.975
 4406WAT     H213461   6.896   8.471   4.822
 4407WAT      O13462   2.598   8.065   4.888
 4407WAT     H113463   2.598   7.980   4.836
 4407WAT     H213464   2.521   8.065   4.952
 4408WAT      O13465   2.624   1.418   5.850
 4408WAT     H113466   2.573   1.490   5.802
 4408WAT     H213467   2.611   1.331   5.804
 4409WAT      O13468   9.387   6.296   2.482
 4409WAT     H113469   9.400   6.223   2.549
 4409WAT     H213470   9.399   6.384   2.526
 4410WAT      O13471   0.649   3.536   9.389
 4410WAT     H113472   0.615   3.487   9.309
 4410WAT     H213473   0.633   3.481   9.471
 4411WAT      O13474   6.660   4.100   9.248
 4411WAT     H113475   6.747   4.130   9.208
 4411WAT     H213476   6.595   4.078   9.175
 4412WAT      O13477   9.398   2.194   6.143
 4412WAT     H113478   9.424   2.159   6.053
 4412WAT     H213479   9.442   2.139   6.214
 4413WAT      O13480   1.942   6.975   1.725
 4413WAT     H113481   1.941   6.906   1.652
 4413WAT     H213482   2.026   7.028   1.720
 4414WAT      O13483   9.681   6.507   6.142
 4414WAT     H113484   9.608   6.446   6.173
 4414WAT     H213485   9.657   6.602   6.163
 4415WAT      O13486   7.025   8.406   0.643
 4415WAT     H113487   7.087   8.428   0.568
 4415WAT     H213488   7.060   8.445   0.728
 4416WAT      O13489   8.689   5.904   9.392
 4416WAT     H113490   8.749   5.831   9.426
 4416WAT     H213491   8.605   5.905   9.447
 4417WAT      O13492   7.904   9.082   0.052
 4417WAT     H113493   7.914   9.000   0.107
 4417WAT     H213494   7.871   9.157   0.109
 4418WAT      O13495   8.155   6.185   7.794
 4418WAT     H113496   8.217   6.142   7.859
 4418WAT     H213497   8.208   6.235   7.726
 4419WAT      O13498   1.722   5.882   7.333
 4419WAT     H113499   1.733   5.789   7.367
 4419WAT     H213500   1.787   5.899   7.259
 4420WAT      O13501   5.470   4.235   4.117
 4420WAT     H113502   5.399   4.305   4.104
 4420WAT     H213503   5.560   4.278   4.117
 4421WAT      O13504   1.209   3.833   1.477
 4421WAT     H113505   1.262   3.916   1.456
 4421WAT     H213506   1.206   3.821   1.576
 4422WAT      O13507   0.496   8.506   7.064
 4422WAT     H113508   0.470   8.581   7.003
 4422WAT     H213509   0.532   8.430   7.010
 4423WAT      O13510   8.715   3.457   1.215
 4423WAT     H113511   8.639   3.406   1.176
 4423WAT     H213512   8.717   3.549   1.176
 4424WAT      O13513   5.100   3.113   7.538
 4424WAT     H113514   5.083   3.141   7.443
 4424WAT     H213515   5.067   3.183   7.600
 4425WAT      O13516   1.822   8.198   6.666
 4425WAT     H113517   1.917   8.183   6.640
 4425WAT     H213518   1.762   8.143   6.607
 4426WAT      O13519   4.369   0.085   6.518
 4426WAT     H113520   4.356   0.108   6.422
 4426WAT     H213521   4.308   0.141   6.574
 4427WAT      O13522   1.106   8.517   1.425
 4427WAT     H113523   1.074   8.590   1.486
 4427WAT     H213524   1.072   8.533   1.333
 4428WAT      O13525   6.910   2.454   4.342
 4428WAT     H113526   6.846   2.437   4.418
 4428WAT     H213527   6.980   2.518   4.372
 4429WAT      O13528   5.295   3.209   1.343
 4429WAT     H113529   5.267   3.271   1.417
 4429WAT     H213530   5.263   3.116   1.364
 4430WAT      O13531   9.382   4.833   3.344
 4430WAT     H113532   9.374   4.901   3.270
 4430WAT     H213533   9.298   4.779   3.348
 4431WAT      O13534   7.792   4.497   8.372
 4431WAT     H113535   7.807   4.406   8.335
 4431WAT     H213536   7.880   4.546   8.378
 4432WAT      O13537   1.612   6.249   6.200
 4432WAT     H113538   1.529   6.223   6.250
 4432WAT     H213539   1.688   6.259   6.263
 4433WAT      O13540   1.156   7.695   1.554
 4433WAT     H113541   1.071   7.652   1.584
 4433WAT     H213542   1.228   7.626   1.549
 4434WAT      O13543   5.401   8.399   5.407
 4434WAT     H113544   5.458   8.318   5.419
 4434WAT     H213545   5.393   8.420   5.310
 4435WAT      O13546   3.865   2.859   1.203
 4435WAT     H113547   3.853   2.899   1.112
 4435WAT     H213548   3.790   2.797   1.222
 4436WAT      O13549   6.884   7.164   6.718
 4436WAT     H113550   6.917   7.071   6.736
 4436WAT     H213551   6.925   7.227   6.784
 4437WAT      O13552   4.709   4.419   8.356
 4437WAT     H113553   4.677   4.408   8.450
 4437WAT     H213554   4.630   4.425   8.294
 4438WAT      O13555   7.315   9.593   9.775
 4438WAT     H113556   7.372   9.589   9.857
 4438WAT     H213557   7.348   9.666   9.715
 4439WAT      O13558   2.861   7.553   0.866
 4439WAT     H113559   2.783   7.537   0.805
 4439WAT     H213560   2.925   7.617   0.823
 4440WAT      O13561   6.091   9.271   2.236
 4440WAT     H113562   6.073   9.177   2.265
 4440WAT     H213563   6.092   9.331   2.317
 4441WAT      O13564   7.546   7.502   2.413
 4441WAT     H113565   7.614   7.492   2.341
 4441WAT     H213566   7.461   7.537   2.373
 4442WAT      O13567   0.818   6.835   5.657
 4442WAT     H113568   0.780   6.926   5.668
 4442WAT     H213569   0.816   6.809   5.560
 4443WAT      O13570   0.881   7.452   5.311
 4443WAT     H113571   0.839   7.377   5.259
 4443WAT     H213572   0.864   7.438   5.409
 4444WAT      O13573   6.055   4.254   4.858
 4444WAT     H113574   6.071   4.314   4.937
 4444WAT     H213575   6.139   4.205   4.835
 4445WAT      O13576   1.780   7.012   2.582
 4445WAT     H113577   1.815   6.929   2.625
 4445WAT     H213578   1.687   7.029   2.613
 4446WAT      O13579   1.726   7.582   4.818
 4446WAT     H113580   1.769   7.573   4.908
 4446WAT     H213581   1.774   7.651   4.764
 4447WAT      O13582   2.937   1.800   7.324
 4447WAT     H113583   2.887   1.885   7.341
 4447WAT     H213584   2.972   1.764   7.410
 4448WAT      O13585   4.385   3.133   6.223
 4448WAT     H113586   4.462   3.089   6.269
 4448WAT     H213587   4.299   3.104   6.266
 4449WAT      O13588   4.701   4.241   3.724
 4449WAT     H113589   4.629   4.246   3.655
 4449WAT     H213590   4.770   4.310   3.705
 4450WAT      O13591   4.413   2.970   2.288
 4450WAT     H113592   4.460   3.055   2.313
 4450WAT     H213593   4.315   2.979   2.308
 4451WAT      O13594   8.998   3.761   8.259
 4451WAT     H113595   8.959   3.692   8.319
 4451WAT     H213596   9.049   3.717   8.185
 4452WAT      O13597   4.875   2.590   7.875
 4452WAT     H113598   4.792   2.598   7.931
 4452WAT     H213599   4.956   2.600   7.933
 4453WAT      O13600   2.391   8.444   8.606
 4453WAT     H113601   2.419   8.380   8.534
 4453WAT     H213602   2.443   8.426   8.689
 4454WAT      O13603   5.755   3.282   5.570
 4454WAT     H113604   5.741   3.229   5.486
 4454WAT     H213605   5.732   3.378   5.552
 4455WAT      O13606   2.857   9.732   1.462
 4455WAT     H113607   2.895   9.677   1.388
 4455WAT     H213608   2.767   9.697   1.487
 4456WAT      O13609   2.833   9.672   3.530
 4456WAT     H113610   2.738   9.700   3.520
 4456WAT     H213611   2.842   9.575   3.510
 4457WAT      O13612   9.868   7.267   7.555
 4457WAT     H113613   9.877   7.168   7.565
 4457WAT     H213614   9.821   7.288   7.469
 4458WAT      O13615   6.512   0.539   4.857
 4458WAT     H113616   6.529   0.593   4.940
 4458WAT     H213617   6.419   0.557   4.825
 4459WAT      O13618   5.607   4.407   0.795
 4459WAT     H113619   5.613   4.441   0.889
 4459WAT     H213620   5.572   4.479   0.736
 4460WAT      O13621   5.298   6.175   7.718
 4460WAT     H113622   5.224   6.112   7.696
 4460WAT     H213623   5.346   6.201   7.634
 4461WAT      O13624   2.455   9.524   2.078
 4461WAT     H113625   2.419   9.499   1.988
 4461WAT     H213626   2.420   9.614   2.104
 4462WAT      O13627   2.243   2.552   3.616
 4462WAT     H113628   2.150   2.547   3.653
 4462WAT     H213629   2.244   2.611   3.536
 4463WAT      O13630   2.444   2.180   2.175
 4463WAT     H113631   2.430   2.082   2.159
 4463WAT     H213632   2.358   2.229   2.157
 4464WAT      O13633   6.663   4.597   6.496
 4464WAT     H113634   6.656   4.684   6.446
 4464WAT     H213635   6.758   4.584   6.526
 4465WAT      O13636   6.699   4.225   1.690
 4465WAT     H113637   6.614   4.204   1.739
 4465WAT     H213638   6.773   4.168   1.726
 4466WAT      O13639   7.643   0.847   4.008
 4466WAT     H113640   7.626   0.805   3.919
 4466WAT     H213641   7.690   0.935   3.994
 4467WAT      O13642   6.762   8.134   1.384
 4467WAT     H113643   6.717   8.045   1.378
 4467WAT     H213644   6.695   8.204   1.408
 4468WAT      O13645   2.590   8.997   2.317
 4468WAT     H113646   2.515   8.970   2.378
 4468WAT     H213647   2.642   8.915   2.290
 4469WAT      O13648   2.572   1.022   1.501
 4469WAT     H113649   2.654   0.983   1.545
 4469WAT     H213650   2.584   1.022   1.402
 4470WAT      O13651   0.318   4.018   2.077
 4470WAT     H113652   0.415   4.042   2.088
 4470WAT     H213653   0.290   3.959   2.152
 4471WAT      O13654   2.568   1.064   7.516
 4471WAT     H113655   2.481   1.045   7.563
 4471WAT     H213656   2.549   1.108   7.429
 4472WAT      O13657   4.710   0.334   7.111
 4472WAT     H113658   4.774   0.341   7.187
 4472WAT     H213659   4.700   0.424   7.067
 4473WAT      O13660   4.432   6.493   3.036
 4473WAT     H113661   4.434   6.537   3.126
 4473WAT     H213662   4.344   6.448   3.023
 4474WAT      O13663   4.766   0.420   6.590
 4474WAT     H113664   4.841   0.395   6.529
 4474WAT     H213665   4.783   0.511   6.628
 4475WAT      O13666   4.356   2.515   7.779
 4475WAT     H113667   4.433   2.570   7.811
 4475WAT     H213668   4.279   2.575   7.758
 4476WAT      O13669   1.610   4.215   3.190
 4476WAT     H113670   1.635   4.311   3.176
 4476WAT     H213671   1.585   4.201   3.286
 4477WAT      O13672   1.290   0.918   7.127
 4477WAT     H113673   1.227   0.912   7.205
 4477WAT     H213674   1.383   0.902   7.160
 4478WAT      O13675   0.534   3.499   3.834
 4478WAT     H113676   0.579   3.588   3.839
 4478WAT     H213677   0.522   3.462   3.926
 4479WAT      O13678   1.207   4.816   9.742
 4479WAT     H113679   1.283   4.776   9.792
 4479WAT     H213680   1.240   4.856   9.657
 4480WAT      O13681   4.552   9.280   2.204
 4480WAT     H113682   4.463   9.274   2.250
 4480WAT     H213683   4.547   9.237   2.114
 4481WAT      O13684   3.304   3.484   8.025
 4481WAT     H113685   3.380   3.524   8.077
 4481WAT     H213686   3.226   3.470   8.085
 4482WAT      O13687   2.056   2.999   0.907
 4482WAT     H113688   2.009   2.912   0.897
 4482WAT     H213689   2.154   2.984   0.915
 4483WAT      O13690   5.007   5.232   2.480
 4483WAT     H113691   4.996   5.328   2.505
 4483WAT     H213692   5.014   5.176   2.563
 4484WAT      O13693   2.330   2.890   0.806
 4484WAT     H113694   2.418   2.936   0.799
 4484WAT     H213695   2.275   2.910   0.725
 4485WAT      O13696   7.212   1.592   7.920
 4485WAT     H113697   7.193   1.678   7.966
 4485WAT     H213698   7.194   1.516   7.981
 4486WAT      O13699   2.693   8.332   2.098
 4486WAT     H113700   2.709   8.290   2.009
 4486WAT     H213701   2.715   8.430   2.094
 4487WAT      O13702   8.022   2.300   3.348
 4487WAT     H113703   8.060   2.327   3.436
 4487WAT     H213704   7.988   2.381   3.300
 4488WAT      O13705   9.209   5.946   2.500
 4488WAT     H113706   9.199   5.865   2.441
 4488WAT     H213707   9.301   5.948   2.538
 4489WAT      O13708   8.349   3.465   6.705
 4489WAT     H113709   8.287   3.428   6.636
 4489WAT     H213710   8.439   3.422   6.693
 4490WAT      O13711   2.545   7.819   0.782
 4490WAT     H113712   2.632   7.863   0.806
 4490WAT     H213713   2.473   7.853   0.842
 4491WAT      O13714   0.926   7.263   1.993
 4491WAT     H113715   0.958   7.171   1.973
 4491WAT     H213716   0.999   7.315   2.038
 4492WAT      O13717   2.716   2.311   9.554
 4492WAT     H113718   2.687   2.386   9.613
 4492WAT     H213719   2.658   2.308   9.472
 4493WAT      O13720   7.499   0.331   3.825
 4493WAT     H113721   7.506   0.237   3.859
 4493WAT     H213722   7.417   0.340   3.768
 4494WAT      O13723   3.278   7.513   8.132
 4494WAT     H113724   3.268   7.597   8.079
 4494WAT     H213725   3.188   7.481   8.160
 4495WAT      O13726   1.989   4.617   0.522
 4495WAT     H113727   1.957   4.712   0.518
 4495WAT     H213728   1.911   4.556   0.534
 4496WAT      O13729   3.079   8.629   6.875
 4496WAT     H113730   3.020   8.560   6.917
 4496WAT     H213731   3.056   8.719   6.911
 4497WAT      O13732   2.763   3.021   5.276
 4497WAT     H113733   2.732   3.114   5.257
 4497WAT     H213734   2.712   2.956   5.221
 4498WAT      O13735   0.169   7.286   1.529
 4498WAT     H113736   0.102   7.359   1.543
 4498WAT     H213737   0.195   7.281   1.433
 4499WAT      O13738   7.589   1.961   2.689
 4499WAT     H113739   7.523   1.978   2.762
 4499WAT     H213740   7.541   1.958   2.601
 4500WAT      O13741   6.535   1.430   0.742
 4500WAT     H113742   6.488   1.436   0.830
 4500WAT     H213743   6.543   1.334   0.715
 4501WAT      O13744   1.370   8.839   1.031
 4501WAT     H113745   1.448   8.778   1.017
 4501WAT     H213746   1.398   8.933   1.012
 4502WAT      O13747   5.953   3.256   0.419
 4502WAT     H113748   5.954   3.292   0.512
 4502WAT     H213749   5.970   3.157   0.421
 4503WAT      O13750   7.702   5.270   8.850
 4503WAT     H113751   7.710   5.267   8.949
 4503WAT     H213752   7.792   5.257   8.809
 4504WAT      O13753   9.442   0.752   6.958
 4504WAT     H113754   9.399   0.778   6.871
 4504WAT     H213755   9.410   0.661   6.984
 4505WAT      O13756   9.696   8.800   3.816
 4505WAT     H113757   9.652   8.738   3.751
 4505WAT     H213758   9.789   8.768   3.836
 4506WAT      O13759   1.508   5.303   0.490
 4506WAT     H113760   1.454   5.248   0.553
 4506WAT     H213761   1.464   5.392   0.477
 4507WAT      O13762   0.905   1.172   4.820
 4507WAT     H113763   0.943   1.212   4.737
 4507WAT     H213764   0.896   1.243   4.890
 4508WAT      O13765   9.786   3.869   2.667
 4508WAT     H113766   9.841   3.793   2.631
 4508WAT     H213767   9.760   3.849   2.761
 4509WAT      O13768   7.220   5.488   9.472
 4509WAT     H113769   7.283   5.551   9.518
 4509WAT     H213770   7.190   5.529   9.385
 4510WAT      O13771   2.472   5.757   2.422
 4510WAT     H113772   2.476   5.687   2.351
 4510WAT     H213773   2.519   5.840   2.390
 4511WAT      O13774   4.920   1.783   1.993
 4511WAT     H113775   4.944   1.785   2.090
 4511WAT     H213776   4.950   1.868   1.949
 4512WAT      O13777   7.057   6.392   7.419
 4512WAT     H113778   7.012   6.392   7.508
 4512WAT     H213779   7.020   6.319   7.362
 4513WAT      O13780   3.191   9.319   6.770
 4513WAT     H113781   3.108   9.270   6.799
 4513WAT     H213782   3.165   9.402   6.720
 4514WAT      O13783   7.703   4.580   7.390
 4514WAT     H113784   7.635   4.644   7.425
 4514WAT     H213785   7.714   4.505   7.455
 4515WAT      O13786   4.840   8.045   6.508
 4515WAT     H113787   4.785   7.980   6.455
 4515WAT     H213788   4.881   8.112   6.446
 4516WAT      O13789   0.742   4.121   2.402
 4516WAT     H113790   0.800   4.202   2.408
 4516WAT     H213791   0.686   4.113   2.484
 4517WAT      O13792   0.272   2.902   6.817
 4517WAT     H113793   0.239   2.895   6.911
 4517WAT     H213794   0.235   2.827   6.763
 4518WAT      O13795   0.415   2.734   9.179
 4518WAT     H113796   0.405   2.822   9.131
 4518WAT     H213797   0.508   2.700   9.165
 4519WAT      O13798   4.233   3.940   8.570
 4519WAT     H113799   4.194   3.976   8.654
 4519WAT     H213800   4.316   3.991   8.548
 4520WAT      O13801   4.130   7.387   9.233
 4520WAT     H113802   4.112   7.373   9.135
 4520WAT     H213803   4.045   7.410   9.280
 4521WAT      O13804   2.451   5.677   6.177
 4521WAT     H113805   2.377   5.621   6.139
 4521WAT     H213806   2.463   5.760   6.122
 4522WAT      O13807   4.720   7.613   7.855
 4522WAT     H113808   4.690   7.589   7.762
 4522WAT     H213809   4.764   7.703   7.854
 4523WAT      O13810   4.975   6.805   7.647
 4523WAT     H113811   4.893   6.750   7.662
 4523WAT     H213812   4.966   6.892   7.696
 4524WAT      O13813   3.547   1.059   7.615
 4524WAT     H113814   3.543   1.007   7.529
 4524WAT     H213815   3.568   1.155   7.594
 4525WAT      O13816   7.079   8.499   4.360
 4525WAT     H113817   7.094   8.470   4.455
 4525WAT     H213818   7.150   8.564   4.333
 4526WAT      O13819   1.936   2.162   5.648
 4526WAT     H113820   1.920   2.260   5.642
 4526WAT     H213821   1.877   2.122   5.718
 4527WAT      O13822   7.434   2.793   1.471
 4527WAT     H113823   7.399   2.784   1.565
 4527WAT     H213824   7.477   2.883   1.460
 4528WAT      O13825   2.725   7.751   6.226
 4528WAT     H113826   2.660   7.692   6.273
 4528WAT     H213827   2.815   7.743   6.269
 4529WAT      O13828   7.971   7.309   9.545
 4529WAT     H113829   7.898   7.300   9.477
 4529WAT     H213830   7.955   7.245   9.620
 4530WAT      O13831   3.112   4.731   2.009
 4530WAT     H113832   3.211   4.720   1.999
 4530WAT     H213833   3.081   4.804   1.948
 4531WAT      O13834   4.413   8.720   7.503
 4531WAT     H113835   4.372   8.713   7.412
 4531WAT     H213836   4.403   8.814   7.537
 4532WAT      O13837   7.514   2.578   4.675
 4532WAT     H113838   7.597   2.544   4.719
 4532WAT     H213839   7.518   2.678   4.668
 4533WAT      O13840   0.851   2.106   6.997
 4533WAT     H113841   0.844   2.087   7.095
 4533WAT     H213842   0.847   2.021   6.945
 4534WAT      O13843   1.885   4.027   1.406
 4534WAT     H113844   1.883   4.103   1.341
 4534WAT     H213845   1.844   3.946   1.364
 4535WAT      O13846   8.595   8.590   8.815
 4535WAT     H113847   8.550   8.516   8.765
 4535WAT     H213848   8.527   8.660   8.840
 4536WAT      O13849   4.758   2.143   6.258
 4536WAT     H113850   4.717   2.060   6.221
 4536WAT     H213851   4.794   2.199   6.183
 4537WAT      O13852   5.921   4.858   8.627
 4537WAT     H113853   6.002   4.803   8.644
 4537WAT     H213854   5.943   4.930   8.561
 4538WAT      O13855   9.103   6.250   5.430
 4538WAT     H113856   9.126   6.329   5.487
 4538WAT     H213857   9.136   6.167   5.474
 4539WAT      O13858   6.433   4.970   7.193
 4539WAT     H113859   6.426   4.935   7.100
 4539WAT     H213860   6.496   5.047   7.196
 4540WAT      O13861   3.966   8.140   5.563
 4540WAT     H113862   3.937   8.150   5.659
 4540WAT     H213863   3.897   8.089   5.512
 4541WAT      O13864   7.427   0.744   5.382
 4541WAT     H113865   7.341   0.721   5.429
 4541WAT     H213866   7.457   0.666   5.327
 4542WAT      O13867   7.944   5.431   5.607
 4542WAT     H113868   7.973   5.508   5.664
 4542WAT     H213869   8.009   5.356   5.617
 4543WAT      O13870   3.353   8.439   3.698
 4543WAT     H113871   3.378   8.415   3.792
 4543WAT     H213872   3.268   8.491   3.698
 4544WAT      O13873   5.519   0.402   5.819
 4544WAT     H113874   5.519   0.424   5.721
 4544WAT     H213875   5.605   0.356   5.842
 4545WAT      O13876   1.637   4.465   1.433
 4545WAT     H113877   1.555   4.430   1.387
 4545WAT     H213878   1.674   4.393   1.492
 4546WAT      O13879   5.869   2.661   3.125
 4546WAT     H113880   5.915   2.712   3.198
 4546WAT     H213881   5.855   2.721   3.046
 4547WAT      O13882   4.141   1.560   5.678
 4547WAT     H113883   4.154   1.604   5.589
 4547WAT     H213884   4.226   1.565   5.730
 4548WAT      O13885   0.815   0.794   6.534
 4548WAT     H113886   0.861   0.878   6.504
 4548WAT     H213887   0.798   0.735   6.454
 4549WAT      O13888   9.328   5.483   8.868
 4549WAT     H113889   9.296   5.498   8.774
 4549WAT     H213890   9.250   5.484   8.930
 4550WAT      O13891   4.157   7.970   1.732
 4550WAT     H113892   4.162   8.027   1.650
 4550WAT     H213893   4.114   8.022   1.806
 4551WAT      O13894   8.707   3.094   4.947
 4551WAT     H113895   8.735   3.120   4.855
 4551WAT     H213896   8.762   3.142   5.015
 4552WAT      O13897   6.696   6.907   9.550
 4552WAT     H113898   6.784   6.873   9.583
 4552WAT     H213899   6.705   6.937   9.455
 4553WAT      O13900   7.332   5.724   7.945
 4553WAT     H113901   7.234   5.724   7.966
 4553WAT     H213902   7.346   5.759   7.852
 4554WAT      O13903   5.726   2.845   0.662
 4554WAT     H113904   5.680   2.851   0.574
 4554WAT     H213905   5.678   2.780   0.721
 4555WAT      O13906   0.785   8.599   0.541
 4555WAT     H113907   0.725   8.678   0.530
 4555WAT     H213908   0.870   8.627   0.584
 4556WAT      O13909   9.250   4.649   8.730
 4556WAT     H113910   9.282   4.574   8.671
 4556WAT     H213911   9.299   4.733   8.706
 4557WAT      O13912   6.785   3.554   5.969
 4557WAT     H113913   6.739   3.631   5.926
 4557WAT     H213914   6.724   3.475   5.969
 4558WAT      O13915   1.884   6.023   6.225
 4558WAT     H113916   1.951   5.956   6.191
 4558WAT     H213917   1.794   5.979   6.231
 4559WAT      O13918   9.698   8.435   8.657
 4559WAT     H113919   9.795   8.446   8.680
 4559WAT     H213920   9.674   8.338   8.660
 4560WAT      O13921   7.675   8.061   2.071
 4560WAT     H113922   7.689   8.085   2.167
 4560WAT     H213923   7.656   7.963   2.063
 4561WAT      O13924   9.763   8.364   7.142
 4561WAT     H113925   9.751   8.357   7.241
 4561WAT     H213926   9.709   8.441   7.107
 4562WAT      O13927   8.830   6.349   2.397
 4562WAT     H113928   8.927   6.372   2.389
 4562WAT     H213929   8.802   6.358   2.492
 4563WAT      O13930   9.301   3.106   7.218
 4563WAT     H113931   9.358   3.055   7.283
 4563WAT     H213932   9.210   3.120   7.257
 4564WAT      O13933   1.561   5.252   6.852
 4564WAT     H113934   1.522   5.176   6.903
 4564WAT     H213935   1.618   5.216   6.778
 4565WAT      O13936   4.340   5.067   9.157
 4565WAT     H113937   4.357   5.143   9.094
 4565WAT     H213938   4.386   5.086   9.244
 4566WAT      O13939   5.239   5.083   1.805
 4566WAT     H113940   5.274   4.992   1.831
 4566WAT     H213941   5.171   5.073   1.733
 4567WAT      O13942   8.398   0.515   4.558
 4567WAT     H113943   8.450   0.584   4.507
 4567WAT     H213944   8.304   0.513   4.524
 4568WAT      O13945   9.359   3.817   0.374
 4568WAT     H113946   9.427   3.816   0.301
 4568WAT     H213947   9.298   3.739   0.364
 4569WAT      O13948   3.893   8.344   0.694
 4569WAT     H113949   3.993   8.351   0.686
 4569WAT     H213950   3.862   8.396   0.774
 4570WAT      O13951   5.268   6.687   2.471
 4570WAT     H113952   5.319   6.704   2.556
 4570WAT     H213953   5.235   6.593   2.471
 4571WAT      O13954   0.226   7.748   0.948
 4571WAT     H113955   0.164   7.808   0.997
 4571WAT     H213956   0.280   7.694   1.013
 4572WAT      O13957   3.633   2.532   3.204
 4572WAT     H113958   3.600   2.542   3.297
 4572WAT     H213959   3.676   2.442   3.194
 4573WAT      O13960   0.708   5.065   9.405
 4573WAT     H113961   0.758   5.118   9.474
 4573WAT     H213962   0.740   4.970   9.407
 4574WAT      O13963   9.808   1.128   7.298
 4574WAT     H113964   9.793   1.178   7.212
 4574WAT     H213965   9.876   1.057   7.284
 4575WAT      O13966   6.373   6.720   1.305
 4575WAT     H113967   6.441   6.760   1.367
 4575WAT     H213968   6.326   6.645   1.352
 4576WAT      O13969   8.224   2.712   1.281
 4576WAT     H113970   8.277   2.686   1.362
 4576WAT     H213971   8.215   2.812   1.279
 4577WAT      O13972   7.694   4.147   1.760
 4577WAT     H113973   7.755   4.087   1.708
 4577WAT     H213974   7.611   4.097   1.783
 4578WAT      O13975   9.876   5.274   9.248
 4578WAT     H113976   9.860   5.211   9.172
 4578WAT     H213977   9.819   5.248   9.325
 4579WAT      O13978   2.565   3.029   7.444
 4579WAT     H113979   2.657   3.000   7.472
 4579WAT     H213980   2.555   3.127   7.460
 4580WAT      O13981   8.973   4.937   2.547
 4580WAT     H113982   9.020   4.873   2.609
 4580WAT     H213983   8.875   4.921   2.551
 4581WAT      O13984   6.696   6.464   8.742
 4581WAT     H113985   6.599   6.480   8.727
 4581WAT     H213986   6.749   6.526   8.684
 4582WAT      O13987   8.206   0.156   9.855
 4582WAT     H113988   8.146   0.234   9.874
 4582WAT     H213989   8.259   0.174   9.773
 4583WAT      O13990   0.691   9.308   8.425
 4583WAT     H113991   0.716   9.346   8.514
 4583WAT     H213992   0.771   9.265   8.384
 4584WAT      O13993   7.764   1.433   0.309
 4584WAT     H113994   7.799   1.482   0.389
 4584WAT     H213995   7.666   1.414   0.322
 4585WAT      O13996   0.010   7.877   1.080
 4585WAT     H113997   0.011   7.973   1.052
 4585WAT     H213998  -0.060   7.828   1.029
 4586WAT      O13999   3.846   5.040   0.370
 4586WAT     H114000   3.779   5.037   0.297
 4586WAT     H214001   3.938   5.039   0.332
 4587WAT      O14002   7.343   1.087   6.153
 4587WAT     H114003   7.339   1.173   6.204
 4587WAT     H214004   7.354   1.107   6.055
 4588WAT      O14005   5.849   0.209   7.898
 4588WAT     H114006   5.897   0.183   7.814
 4588WAT     H214007   5.802   0.296   7.883
 4589WAT      O14008   7.809   4.844   8.285
 4589WAT     H114009   7.889   4.879   8.334
 4589WAT     H214010   7.776   4.913   8.221
 4590WAT      O14011   1.216   4.236   5.986
 4590WAT     H114012   1.164   4.154   5.963
 4590WAT     H214013   1.302   4.210   6.029
 4591WAT      O14014   7.235   7.938   6.393
 4591WAT     H114015   7.233   7.848   6.350
 4591WAT     H214016   7.275   7.931   6.484
 4592WAT      O14017   2.937   6.671   8.478
 4592WAT     H114018   2.876   6.598   8.448
 4592WAT     H214019   2.937   6.677   8.578
 4593WAT      O14020   8.684   6.123   8.755
 4593WAT     H114021   8.615   6.184   8.716
 4593WAT     H214022   8.775   6.156   8.730
 4594WAT      O14023   2.422   7.534   5.976
 4594WAT     H114024   2.513   7.500   5.950
 4594WAT     H214025   2.414   7.630   5.950
 4595WAT      O14026   0.061   9.279   8.212
 4595WAT     H114027   0.144   9.325   8.243
 4595WAT     H214028   0.061   9.184   8.245
 4596WAT      O14029   1.870   5.338   9.028
 4596WAT     H114030   1.969   5.333   9.022
 4596WAT     H214031   1.837   5.267   9.090
 4597WAT      O14032   1.917   9.568   5.462
 4597WAT     H114033   1.942   9.647   5.518
 4597WAT     H214034   2.000   9.521   5.432
 4598WAT      O14035   1.115   8.815   0.069
 4598WAT     H114036   1.065   8.747   0.014
 4598WAT     H214037   1.061   8.898   0.076
 4599WAT      O14038   2.250   6.167   5.821
 4599WAT     H114039   2.241   6.144   5.918
 4599WAT     H214040   2.210   6.256   5.804
 4600WAT      O14041   2.104   5.905   3.916
 4600WAT     H114042   2.094   5.994   3.959
 4600WAT     H214043   2.199   5.890   3.891
 4601WAT      O14044   1.238   3.338   6.055
 4601WAT     H114045   1.218   3.367   5.961
 4601WAT     H214046   1.234   3.238   6.060
 4602WAT      O14047   2.617   7.829   4.756
 4602WAT     H114048   2.645   7.794   4.667
 4602WAT     H214049   2.572   7.756   4.808
 4603WAT      O14050   8.513   6.488   0.385
 4603WAT     H114051   8.556   6.559   0.441
 4603WAT     H214052   8.525   6.510   0.288
 4604WAT      O14053   8.003   3.984   5.809
 4604WAT     H114054   8.098   3.995   5.777
 4604WAT     H214055   7.996   3.899   5.861
 4605WAT      O14056   6.378   1.856   7.767
 4605WAT     H114057   6.382   1.795   7.847
 4605WAT     H214058   6.321   1.935   7.789
 4606WAT      O14059   2.609   1.899   0.072
 4606WAT     H114060   2.565   1.839   0.139
 4606WAT     H214061   2.595   1.861  -0.020
 4607WAT      O14062   6.026   9.362   0.736
 4607WAT     H114063   5.994   9.291   0.799
 4607WAT     H214064   6.084   9.321   0.666
 4608WAT      O14065   9.408   3.938   6.340
 4608WAT     H114066   9.371   3.974   6.255
 4608WAT     H214067   9.453   4.011   6.391
 4609WAT      O14068   2.695   4.935   2.789
 4609WAT     H114069   2.690   4.912   2.692
 4609WAT     H214070   2.660   4.858   2.843
 4610WAT      O14071   3.945   9.096   5.778
 4610WAT     H114072   3.903   9.172   5.729
 4610WAT     H214073   3.951   9.118   5.875
 4611WAT      O14074   5.097   4.341   9.569
 4611WAT     H114075   5.166   4.388   9.625
 4611WAT     H214076   5.028   4.407   9.539
 4612WAT      O14077   7.681   9.064   0.982
 4612WAT     H114078   7.693   9.064   0.883
 4612WAT     H214079   7.612   9.132   1.007
 4613WAT      O14080   7.601   3.910   8.045
 4613WAT     H114081   7.671   3.919   8.116
 4613WAT     H214082   7.640   3.936   7.956
 4614WAT      O14083   4.764   7.011   2.814
 4614WAT     H114084   4.716   6.978   2.895
 4614WAT     H214085   4.855   7.044   2.840
 4615WAT      O14086   4.455   5.380   1.465
 4615WAT     H114087   4.458   5.477   1.490
 4615WAT     H214088   4.539   5.335   1.494
 4616WAT      O14089   1.732   6.090   9.802
 4616WAT     H114090   1.821   6.113   9.762
 4616WAT     H214091   1.703   6.001   9.768
 4617WAT      O14092   3.241   1.276   7.449
 4617WAT     H114093   3.207   1.209   7.383
 4617WAT     H214094   3.340   1.266   7.460
 4618WAT      O14095   9.619   6.921   4.644
 4618WAT     H114096   9.573   6.854   4.702
 4618WAT     H214097   9.693   6.964   4.695
 4619WAT      O14098   9.160   7.013   4.529
 4619WAT     H114099   9.175   6.989   4.433
 4619WAT     H214100   9.248   7.037   4.570
 4620WAT      O14101   7.172   0.475   9.530
 4620WAT     H114102   7.123   0.543   9.476
 4620WAT     H214103   7.269   0.501   9.536
 4621WAT      O14104   8.922   2.742   3.520
 4621WAT     H114105   8.922   2.685   3.438
 4621WAT     H214106   8.922   2.839   3.494
 4622WAT      O14107   1.414   5.956   8.395
 4622WAT     H114108   1.345   5.884   8.406
 4622WAT     H214109   1.368   6.044   8.388
 4623WAT      O14110   6.632   9.402   4.247
 4623WAT     H114111   6.589   9.339   4.311
 4623WAT     H214112   6.618   9.369   4.153
 4624WAT      O14113   1.134   6.487   5.763
 4624WAT     H114114   1.180   6.409   5.805
 4624WAT     H214115   1.069   6.454   5.695
 4625WAT      O14116   3.443   2.254   3.584
 4625WAT     H114117   3.482   2.246   3.492
 4625WAT     H214118   3.375   2.327   3.585
 4626WAT      O14119   8.773   9.002   8.807
 4626WAT     H114120   8.772   8.940   8.729
 4626WAT     H214121   8.803   9.093   8.777
 4627WAT      O14122   3.205   8.600   3.213
 4627WAT     H114123   3.183   8.505   3.195
 4627WAT     H214124   3.205   8.652   3.128
 4628WAT      O14125   8.499   5.713   7.804
 4628WAT     H114126   8.450   5.723   7.891
 4628WAT     H214127   8.597   5.705   7.821
 4629WAT      O14128   6.812   9.125   8.305
 4629WAT     H114129   6.861   9.140   8.391
 4629WAT     H214130   6.869   9.153   8.228
 4630WAT      O14131   8.137   9.457   9.147
 4630WAT     H114132   8.094   9.369   9.166
 4630WAT     H214133   8.129   9.477   9.049
 4631WAT      O14134   2.898   9.471   4.298
 4631WAT     H114135   2.900   9.476   4.198
 4631WAT     H214136   2.910   9.562   4.337
 4632WAT      O14137   6.889   6.253   5.892
 4632WAT     H114138   6.963   6.318   5.908
 4632WAT     H214139   6.802   6.303   5.886
 4633WAT      O14140   9.672   3.800   0.697
 4633WAT     H114141   9.666   3.703   0.676
 4633WAT     H214142   9.597   3.849   0.651
 4634WAT      O14143   1.410   8.973   5.577
 4634WAT     H114144   1.414   8.943   5.482
 4634WAT     H214145   1.317   8.962   5.612
 4635WAT      O14146   9.143   4.848   2.979
 4635WAT     H114147   9.104   4.756   2.983
 4635WAT     H214148   9.070   4.913   2.959
 4636WAT      O14149   4.788   3.417   4.822
 4636WAT     H114150   4.742   3.445   4.738
 4636WAT     H214151   4.878   3.379   4.800
 4637WAT      O14152   0.705   2.348   3.715
 4637WAT     H114153   0.665   2.440   3.713
 4637WAT     H214154   0.672   2.299   3.796
 4638WAT      O14155   1.787   6.975   3.185
 4638WAT     H114156   1.776   7.043   3.258
 4638WAT     H214157   1.811   7.021   3.100
 4639WAT      O14158   5.558   4.697   0.678
 4639WAT     H114159   5.525   4.711   0.771
 4639WAT     H214160   5.481   4.686   0.616
 4640WAT      O14161   4.359   7.751   1.256
 4640WAT     H114162   4.360   7.660   1.298
 4640WAT     H214163   4.395   7.818   1.320
 4641WAT      O14164   4.833   4.405   9.331
 4641WAT     H114165   4.755   4.464   9.350
 4641WAT     H214166   4.905   4.458   9.286
 4642WAT      O14167   6.048   2.855   8.125
 4642WAT     H114168   5.948   2.860   8.131
 4642WAT     H214169   6.080   2.914   8.051
 4643WAT      O14170   2.359   5.214   6.257
 4643WAT     H114171   2.279   5.156   6.243
 4643WAT     H214172   2.353   5.258   6.346
 4644WAT      O14173   3.833   0.257   9.586
 4644WAT     H114174   3.875   0.262   9.676
 4644WAT     H214175   3.765   0.331   9.577
 4645WAT      O14176   4.933   5.296   0.955
 4645WAT     H114177   4.924   5.370   1.022
 4645WAT     H214178   4.939   5.334   0.863
 4646WAT      O14179   9.598   4.384   8.527
 4646WAT     H114180   9.690   4.412   8.553
 4646WAT     H214181   9.592   4.374   8.428
 4647WAT      O14182   6.466   9.162   3.668
 4647WAT     H114183   6.431   9.150   3.575
 4647WAT     H214184   6.462   9.074   3.716
 4648WAT      O14185   4.865   2.015   4.064
 4648WAT     H114186   4.814   1.955   4.003
 4648WAT     H214187   4.823   2.013   4.155
 4649WAT      O14188   7.697   2.088   6.486
 4649WAT     H114189   7.714   2.034   6.403
 4649WAT     H214190   7.599   2.111   6.491
 4650WAT      O14191   5.899   8.493   7.941
 4650WAT     H114192   5.842   8.492   8.023
 4650WAT     H214193   5.967   8.420   7.947
 4651WAT      O14194   0.012   4.848   8.163
 4651WAT     H114195  -0.068   4.898   8.131
 4651WAT     H214196   0.093   4.879   8.113
 4652WAT      O14197   8.778   1.824   5.999
 4652WAT     H114198   8.764   1.922   6.015
 4652WAT     H214199   8.875   1.808   5.980
 4653WAT      O14200   7.008   2.125   8.561
 4653WAT     H114201   7.005   2.062   8.484
 4653WAT     H214202   6.944   2.094   8.632
 4654WAT      O14203   3.967   4.568   3.066
 4654WAT     H114204   3.996   4.500   3.133
 4654WAT     H214205   3.900   4.629   3.107
 4655WAT      O14206   6.105   3.933   8.618
 4655WAT     H114207   6.191   3.983   8.625
 4655WAT     H214208   6.057   3.937   8.705
 4656WAT      O14209   3.925   0.898   1.563
 4656WAT     H114210   3.865   0.975   1.583
 4656WAT     H214211   3.877   0.813   1.583
 4657WAT      O14212   1.760   0.793   7.612
 4657WAT     H114213   1.852   0.792   7.652
 4657WAT     H214214   1.702   0.727   7.660
 4658WAT      O14215   2.183   0.690   4.841
 4658WAT     H114216   2.253   0.646   4.784
 4658WAT     H214217   2.156   0.777   4.799
 4659WAT      O14218   6.383   3.927   8.877
 4659WAT     H114219   6.365   3.995   8.806
 4659WAT     H214220   6.463   3.954   8.930
 4660WAT      O14221   1.784   5.763   2.918
 4660WAT     H114222   1.843   5.713   2.982
 4660WAT     H214223   1.736   5.698   2.859
 4661WAT      O14224   0.534   2.788   6.565
 4661WAT     H114225   0.541   2.814   6.661
 4661WAT     H214226   0.586   2.704   6.549
 4662WAT      O14227   4.014   7.090   8.147
 4662WAT     H114228   4.060   7.122   8.063
 4662WAT     H214229   3.933   7.146   8.163
 4663WAT      O14230   0.014   6.958   6.531
 4663WAT     H114231  -0.082   6.952   6.506
 4663WAT     H214232   0.042   6.874   6.578
 4664WAT      O14233   4.020   3.504   5.339
 4664WAT     H114234   4.106   3.551   5.317
 4664WAT     H214235   4.035   3.405   5.337
 4665WAT      O14236   6.732   0.564   7.264
 4665WAT     H114237   6.793   0.642   7.252
 4665WAT     H214238   6.663   0.586   7.334
 4666WAT      O14239   6.710   4.718   7.278
 4666WAT     H114240   6.719   4.817   7.293
 4666WAT     H214241   6.798   4.673   7.294
 4667WAT      O14242   9.325   7.574   3.535
 4667WAT     H114243   9.302   7.639   3.608
 4667WAT     H214244   9.252   7.574   3.467
 4668WAT      O14245   7.564   4.272   3.711
 4668WAT     H114246   7.474   4.247   3.746
 4668WAT     H214247   7.634   4.243   3.775
 4669WAT      O14248   5.699   5.867   1.757
 4669WAT     H114249   5.757   5.893   1.834
 4669WAT     H214250   5.756   5.857   1.675
 4670WAT      O14251   9.142   0.121   2.201
 4670WAT     H114252   9.194   0.144   2.118
 4670WAT     H214253   9.048   0.098   2.176
 4671WAT      O14254   5.955   7.002   0.526
 4671WAT     H114255   5.949   6.917   0.578
 4671WAT     H214256   5.928   6.985   0.431
 4672WAT      O14257   1.307   0.180   9.701
 4672WAT     H114258   1.277   0.272   9.676
 4672WAT     H214259   1.360   0.183   9.785
 4673WAT      O14260   4.690   8.303   4.740
 4673WAT     H114261   4.708   8.258   4.653
 4673WAT     H214262   4.593   8.330   4.744
 4674WAT      O14263   9.626   3.374   0.800
 4674WAT     H114264   9.654   3.446   0.737
 4674WAT     H214265   9.527   3.374   0.811
 4675WAT      O14266   8.280   1.356   5.585
 4675WAT     H114267   8.331   1.425   5.636
 4675WAT     H214268   8.188   1.390   5.565
 4676WAT      O14269   2.760   7.200   0.023
 4676WAT     H114270   2.789   7.273  -0.039
 4676WAT     H214271   2.697   7.139  -0.024
 4677WAT      O14272   4.629   3.060   5.185
 4677WAT     H114273   4.707   3.084   5.127
 4677WAT     H214274   4.659   2.995   5.255
 4678WAT      O14275   0.080   2.640   8.990
 4678WAT     H114276   0.104   2.640   8.893
 4678WAT     H214277   0.079   2.733   9.025
 4679WAT      O14278   3.890   7.768   1.434
 4679WAT     H114279   3.913   7.799   1.341
 4679WAT     H214280   3.793   7.747   1.438
 4680WAT      O14281   7.207   4.899   4.524
 4680WAT     H114282   7.112   4.871   4.537
 4680WAT     H214283   7.247   4.923   4.612
 4681WAT      O14284   5.277   1.798   6.661
 4681WAT     H114285   5.197   1.854   6.637
 4681WAT     H214286   5.253   1.735   6.734
 4682WAT      O14287   6.900   3.292   0.449
 4682WAT     H114288   6.905   3.308   0.350
 4682WAT     H214289   6.989   3.260   0.481
 4683WAT      O14290   4.865   5.082   4.559
 4683WAT     H114291   4.803   5.114   4.487
 4683WAT     H214292   4.813   5.035   4.630
 4684WAT      O14293   8.548   1.699   2.377
 4684WAT     H114294   8.554   1.613   2.327
 4684WAT     H214295   8.465   1.747   2.351
 4685WAT      O14296   7.487   0.091   4.489
 4685WAT     H114297   7.425   0.133   4.423
 4685WAT     H214298   7.448   0.100   4.581
 4686WAT      O14299   8.535   7.163   5.738
 4686WAT     H114300   8.439   7.156   5.711
 4686WAT     H214301   8.582   7.227   5.677
 4687WAT      O14302   7.781   7.116   4.367
 4687WAT     H114303   7.705   7.098   4.430
 4687WAT     H214304   7.830   7.198   4.397
 4688WAT      O14305   2.172   0.280   7.109
 4688WAT     H114306   2.256   0.231   7.134
 4688WAT     H214307   2.096   0.215   7.107
 4689WAT      O14308   0.761   8.117   7.156
 4689WAT     H114309   0.734   8.055   7.229
 4689WAT     H214310   0.860   8.131   7.159
 4690WAT      O14311   7.117   9.209   0.976
 4690WAT     H114312   7.147   9.275   0.907
 4690WAT     H214313   7.019   9.221   0.994
 4691WAT      O14314   8.372   4.214   0.328
 4691WAT     H114315   8.464   4.246   0.306
 4691WAT     H214316   8.320   4.201   0.243
 4692WAT      O14317   6.607   5.848   2.759
 4692WAT     H114318   6.574   5.757   2.735
 4692WAT     H214319   6.532   5.914   2.752
 4693WAT      O14320   1.881   0.941   9.345
 4693WAT     H114321   1.929   0.873   9.289
 4693WAT     H214322   1.795   0.966   9.301
 4694WAT      O14323   8.418   5.319   2.583
 4694WAT     H114324   8.413   5.260   2.503
 4694WAT     H214325   8.507   5.366   2.584
 4695WAT      O14326   0.424   7.493   7.772
 4695WAT     H114327   0.358   7.541   7.713
 4695WAT     H214328   0.406   7.516   7.867
 4696WAT      O14329   0.991   7.733   3.700
 4696WAT     H114330   0.926   7.761   3.630
 4696WAT     H214331   1.021   7.813   3.752
 4697WAT      O14332   2.875   8.702   1.439
 4697WAT     H114333   2.939   8.646   1.386
 4697WAT     H214334   2.794   8.648   1.462
 4698WAT      O14335   0.003   9.226   4.373
 4698WAT     H114336   0.082   9.282   4.397
 4698WAT     H214337  -0.044   9.197   4.456
 4699WAT      O14338   8.833   9.584   4.720
 4699WAT     H114339   8.825   9.499   4.772
 4699WAT     H214340   8.750   9.598   4.666
 4700WAT      O14341   0.616   3.973   4.846
 4700WAT     H114342   0.540   3.996   4.785
 4700WAT     H214343   0.697   3.949   4.791
 4701WAT      O14344   7.403   7.754   5.500
 4701WAT     H114345   7.384   7.674   5.557
 4701WAT     H214346   7.448   7.725   5.416
 4702WAT      O14347   4.566   3.764   3.589
 4702WAT     H114348   4.598   3.669   3.578
 4702WAT     H214349   4.611   3.822   3.520
 4703WAT      O14350   2.982   0.470   4.662
 4703WAT     H114351   2.892   0.483   4.703
 4703WAT     H214352   2.991   0.375   4.632
 4704WAT      O14353   2.935   0.287   6.892
 4704WAT     H114354   2.941   0.205   6.836
 4704WAT     H214355   2.959   0.264   6.987
 4705WAT      O14356   0.620   6.421   4.360
 4705WAT     H114357   0.582   6.339   4.401
 4705WAT     H214358   0.601   6.422   4.262
 4706WAT      O14359   7.009   4.595   7.269
 4706WAT     H114360   7.013   4.686   7.310
 4706WAT     H214361   7.034   4.601   7.172
 4707WAT      O14362   4.748   7.579   5.807
 4707WAT     H114363   4.787   7.528   5.883
 4707WAT     H214364   4.720   7.515   5.735
 4708WAT      O14365   8.450   0.892   9.013
 4708WAT     H114366   8.389   0.969   8.998
 4708WAT     H214367   8.398   0.815   9.050
 4709WAT      O14368   2.158   8.318   4.666
 4709WAT     H114369   2.161   8.412   4.631
 4709WAT     H214370   2.209   8.313   4.752
 4710WAT      O14371   1.954   6.381   7.317
 4710WAT     H114372   2.009   6.463   7.303
 4710WAT     H214373   1.989   6.331   7.396
 4711WAT      O14374   0.212   9.100   9.412
 4711WAT     H114375   0.312   9.101   9.420
 4711WAT     H214376   0.177   9.191   9.433
 4712WAT      O14377   6.893   8.263   2.225
 4712WAT     H114378   6.908   8.301   2.133
 4712WAT     H214379   6.796   8.247   2.238
 4713WAT      O14380   1.286   7.937   9.232
 4713WAT     H114381   1.212   7.894   9.180
 4713WAT     H214382   1.338   7.866   9.279
 4714WAT      O14383   4.789   7.929   4.302
 4714WAT     H114384   4.787   7.923   4.402
 4714WAT     H214385   4.744   8.013   4.272
 4715WAT      O14386   1.013   5.566   6.483
 4715WAT     H114387   0.954   5.541   6.561
 4715WAT     H214388   0.957   5.606   6.411
 4716WAT      O14389   7.283   5.311   1.473
 4716WAT     H114390   7.205   5.340   1.417
 4716WAT     H214391   7.360   5.373   1.456
 4717WAT      O14392   3.013   5.857   8.569
 4717WAT     H114393   3.106   5.836   8.541
 4717WAT     H214394   3.004   5.846   8.668
 4718WAT      O14395   6.020   5.176   5.749
 4718WAT     H114396   6.048   5.127   5.832
 4718WAT     H214397   5.925   5.206   5.758
 4719WAT      O14398   1.873   5.130   1.275
 4719WAT     H114399   1.835   5.097   1.189
 4719WAT     H214400   1.942   5.065   1.307
 4720WAT      O14401   8.298   5.506   4.941
 4720WAT     H114402   8.344   5.448   4.874
 4720WAT     H214403   8.337   5.490   5.031
 4721WAT      O14404   5.378   0.828   1.331
 4721WAT     H114405   5.473   0.825   1.363
 4721WAT     H214406   5.320   0.865   1.403
 4722WAT      O14407   2.203   6.964   2.321
 4722WAT     H114408   2.236   6.887   2.265
 4722WAT     H214409   2.201   7.047   2.265
 4723WAT      O14410   0.489   4.974   8.724
 4723WAT     H114411   0.546   4.992   8.804
 4723WAT     H214412   0.545   4.978   8.642
 4724WAT      O14413   9.133   1.903   3.089
 4724WAT     H114414   9.119   1.995   3.125
 4724WAT     H214415   9.223   1.869   3.119
 4725WAT      O14416   3.508   9.512   2.982
 4725WAT     H114417   3.545   9.471   2.899
 4725WAT     H214418   3.535   9.608   2.986
 4726WAT      O14419   4.382   1.968   4.651
 4726WAT     H114420   4.341   1.877   4.658
 4726WAT     H214421   4.343   2.016   4.573
 4727WAT      O14422   7.200   5.343   8.669
 4727WAT     H114423   7.198   5.336   8.570
 4727WAT     H214424   7.192   5.252   8.710
 4728WAT      O14425   4.070   2.791   5.152
 4728WAT     H114426   4.123   2.768   5.071
 4728WAT     H214427   4.060   2.709   5.209
 4729WAT      O14428   1.840   2.150   1.341
 4729WAT     H114429   1.785   2.229   1.315
 4729WAT     H214430   1.905   2.129   1.268
 4730WAT      O14431   1.505   3.921   4.939
 4730WAT     H114432   1.475   3.849   5.001
 4730WAT     H214433   1.542   3.881   4.856
 4731WAT      O14434   0.623   9.528   4.955
 4731WAT     H114435   0.533   9.571   4.953
 4731WAT     H214436   0.631   9.471   5.037
 4732WAT      O14437   4.428   9.008   7.308
 4732WAT     H114438   4.521   9.027   7.339
 4732WAT     H214439   4.428   8.998   7.208
 4733WAT      O14440   0.641   4.876   3.364
 4733WAT     H114441   0.716   4.816   3.340
 4733WAT     H214442   0.555   4.825   3.363
 4734WAT      O14443   3.922   6.045   2.717
 4734WAT     H114444   3.902   6.104   2.639
 4734WAT     H214445   3.849   6.055   2.785
 4735WAT      O14446   7.865   4.360   3.392
 4735WAT     H114447   7.907   4.312   3.315
 4735WAT     H214448   7.809   4.436   3.357
 4736WAT      O14449   3.339   9.102   9.703
 4736WAT     H114450   3.415   9.078   9.764
 4736WAT     H214451   3.291   9.182   9.740
 4737WAT      O14452   3.519   1.141   3.386
 4737WAT     H114453   3.583   1.212   3.355
 4737WAT     H214454   3.451   1.124   3.316
 4738WAT      O14455   2.014   7.440   8.095
 4738WAT     H114456   2.015   7.374   8.019
 4738WAT     H214457   2.028   7.391   8.181
 4739WAT      O14458   0.412   4.414   1.769
 4739WAT     H114459   0.429   4.345   1.698
 4739WAT     H214460   0.322   4.456   1.754
 4740WAT      O14461   3.298   4.428   6.328
 4740WAT     H114462   3.372   4.463   6.270
 4740WAT     H214463   3.336   4.377   6.404
 4741WAT      O14464   7.078   7.315   2.542
 4741WAT     H114465   7.058   7.339   2.447
 4741WAT     H214466   7.102   7.397   2.593
 4742WAT      O14467   3.756   0.751   7.213
 4742WAT     H114468   3.840   0.802   7.192
 4742WAT     H214469   3.780   0.656   7.233
 4743WAT      O14470   6.804   4.047   3.817
 4743WAT     H114471   6.895   4.063   3.779
 4743WAT     H214472   6.742   4.017   3.745
 4744WAT      O14473   8.516   8.837   2.926
 4744WAT     H114474   8.496   8.743   2.895
 4744WAT     H214475   8.521   8.897   2.847
 4745WAT      O14476   3.038   2.281   4.732
 4745WAT     H114477   2.993   2.192   4.747
 4745WAT     H214478   2.974   2.344   4.689
 4746WAT      O14479   2.767   3.761   9.368
 4746WAT     H114480   2.795   3.670   9.399
 4746WAT     H214481   2.846   3.810   9.331
 4747WAT      O14482   2.240   3.163   3.747
 4747WAT     H114483   2.309   3.229   3.776
 4747WAT     H214484   2.273   3.070   3.764
 4748WAT      O14485   8.042   5.593   6.388
 4748WAT     H114486   7.962   5.588   6.328
 4748WAT     H214487   8.044   5.511   6.446
 4749WAT      O14488   1.857   0.639   2.200
 4749WAT     H114489   1.928   0.638   2.129
 4749WAT     H214490   1.869   0.560   2.260
 4750WAT      O14491   0.768   4.111   6.649
 4750WAT     H114492   0.818   4.179   6.702
 4750WAT     H214493   0.823   4.082   6.571
 4751WAT      O14494   5.422   8.449   7.119
 4751WAT     H114495   5.468   8.529   7.158
 4751WAT     H214496   5.374   8.400   7.192
 4752WAT      O14497   6.425   4.125   7.331
 4752WAT     H114498   6.511   4.175   7.346
 4752WAT     H214499   6.422   4.092   7.237
 4753WAT      O14500   1.306   9.735   5.787
 4753WAT     H114501   1.340   9.745   5.693
 4753WAT     H214502   1.341   9.651   5.827
 4754WAT      O14503   8.856   1.794   2.024
 4754WAT     H114504   8.837   1.704   1.985
 4754WAT     H214505   8.770   1.843   2.038
 4755WAT      O14506   2.965   5.919   5.058
 4755WAT     H114507   2.949   5.911   4.959
 4755WAT     H214508   3.052   5.877   5.081
 4756WAT      O14509   4.579   1.064   2.095
 4756WAT     H114510   4.496   1.039   2.146
 4756WAT     H214511   4.558   1.141   2.035
 4757WAT      O14512   1.647   1.430   7.935
 4757WAT     H114513   1.741   1.420   7.966
 4757WAT     H214514   1.589   1.364   7.983
 4758WAT      O14515   4.465   2.844   3.681
 4758WAT     H114516   4.483   2.941   3.696
 4758WAT     H214517   4.509   2.815   3.596
 4759WAT      O14518   4.166   5.034   7.903
 4759WAT     H114519   4.212   5.122   7.916
 4759WAT     H214520   4.229   4.960   7.924
 4760WAT      O14521   0.132   1.793   6.587
 4760WAT     H114522   0.132   1.869   6.521
 4760WAT     H214523   0.042   1.750   6.588
 4761WAT      O14524   5.063   1.475   9.207
 4761WAT     H114525   5.116   1.409   9.154
 4761WAT     H214526   5.091   1.472   9.303
 4762WAT      O14527   5.059   4.615   3.513
 4762WAT     H114528   5.135   4.615   3.578
 4762WAT     H214529   5.031   4.709   3.494
 4763WAT      O14530   8.878   3.193   5.108
 4763WAT     H114531   8.972   3.161   5.094
 4763WAT     H214532   8.880   3.284   5.148
 4764WAT      O14533   8.504   0.128   2.231
 4764WAT     H114534   8.438   0.181   2.284
 4764WAT     H214535   8.591   0.177   2.228
 4765WAT      O14536   4.700   8.523   9.786
 4765WAT     H114537   4.769   8.455   9.813
 4765WAT     H214538   4.638   8.482   9.719
 4766WAT      O14539   5.673   6.237   8.616
 4766WAT     H114540   5.672   6.324   8.666
 4766WAT     H214541   5.585   6.190   8.629
 4767WAT      O14542   8.336   4.230   8.923
 4767WAT     H114543   8.379   4.164   8.861
 4767WAT     H214544   8.406   4.273   8.979
 4768WAT      O14545   5.095   5.599   3.621
 4768WAT     H114546   5.182   5.559   3.592
 4768WAT     H214547   5.084   5.688   3.577
 4769WAT      O14548   7.256   7.286   3.129
 4769WAT     H114549   7.200   7.336   3.063
 4769WAT     H214550   7.284   7.198   3.089
 4770WAT      O14551   2.220   9.139   5.970
 4770WAT     H114552   2.262   9.051   5.990
 4770WAT     H214553   2.183   9.179   6.054
 4771WAT      O14554   8.460   8.638   1.420
 4771WAT     H114555   8.537   8.627   1.357
 4771WAT     H214556   8.385   8.578   1.392
 4772WAT      O14557   5.478   5.779   1.381
 4772WAT     H114558   5.467   5.869   1.425
 4772WAT     H214559   5.465   5.707   1.449
 4773WAT      O14560   7.599   2.057   1.296
 4773WAT     H114561   7.591   2.037   1.394
 4773WAT     H214562   7.602   2.156   1.283
 4774WAT      O14563   0.543   0.963   0.018
 4774WAT     H114564   0.507   1.054   0.041
 4774WAT     H214565   0.507   0.896   0.082
 4775WAT      O14566   8.073   7.711   5.815
 4775WAT     H114567   7.990   7.758   5.787
 4775WAT     H214568   8.100   7.646   5.744
 4776WAT      O14569   4.940   8.475   4.128
 4776WAT     H114570   5.027   8.457   4.175
 4776WAT     H214571   4.946   8.562   4.079
 4777WAT      O14572   1.677   4.086   2.570
 4777WAT     H114573   1.776   4.076   2.565
 4777WAT     H214574   1.633   4.001   2.541
 4778WAT      O14575   8.215   2.167   7.638
 4778WAT     H114576   8.219   2.261   7.602
 4778WAT     H214577   8.270   2.161   7.721
 4779WAT      O14578   9.742   5.970   2.115
 4779WAT     H114579   9.656   5.919   2.103
 4779WAT     H214580   9.810   5.935   2.051
 4780WAT      O14581   2.672   9.140   7.737
 4780WAT     H114582   2.756   9.117   7.688
 4780WAT     H214583   2.593   9.131   7.676
 4781WAT      O14584   1.898   9.134   8.055
 4781WAT     H114585   1.814   9.109   8.006
 4781WAT     H214586   1.901   9.233   8.067
 4782WAT      O14587   5.221   6.221   4.427
 4782WAT     H114588   5.298   6.217   4.491
 4782WAT     H214589   5.255   6.201   4.334
 4783WAT      O14590   5.521   2.428   9.568
 4783WAT     H114591   5.586   2.361   9.533
 4783WAT     H214592   5.429   2.388   9.568
 4784WAT      O14593   3.647   1.544   8.578
 4784WAT     H114594   3.710   1.598   8.633
 4784WAT     H214595   3.594   1.606   8.519
 4785WAT      O14596   7.662   4.603   1.691
 4785WAT     H114597   7.684   4.524   1.749
 4785WAT     H214598   7.747   4.646   1.660
 4786WAT      O14599   0.714   3.244   0.851
 4786WAT     H114600   0.616   3.256   0.835
 4786WAT     H214601   0.729   3.161   0.905
 4787WAT      O14602   7.691   3.385   3.095
 4787WAT     H114603   7.719   3.408   3.189
 4787WAT     H214604   7.599   3.347   3.096
 4788WAT      O14605   3.059   5.860   5.930
 4788WAT     H114606   2.975   5.809   5.950
 4788WAT     H214607   3.127   5.842   6.000
 4789WAT      O14608   3.685   1.174   4.294
 4789WAT     H114609   3.743   1.124   4.230
 4789WAT     H214610   3.645   1.110   4.360
 4790WAT      O14611   2.766   0.879   1.587
 4790WAT     H114612   2.739   0.795   1.541
 4790WAT     H214613   2.863   0.874   1.612
 4791WAT      O14614   6.542   6.366   3.409
 4791WAT     H114615   6.454   6.381   3.455
 4791WAT     H214616   6.570   6.271   3.422
 4792WAT      O14617   5.096   7.700   5.460
 4792WAT     H114618   5.055   7.653   5.539
 4792WAT     H214619   5.192   7.675   5.454
 4793WAT      O14620   1.637   0.273   7.895
 4793WAT     H114621   1.557   0.320   7.857
 4793WAT     H214622   1.703   0.258   7.822
 4794WAT      O14623   8.114   3.870   3.548
 4794WAT     H114624   8.182   3.819   3.494
 4794WAT     H214625   8.155   3.901   3.633
 4795WAT      O14626   0.633   9.057   0.764
 4795WAT     H114627   0.598   8.964   0.775
 4795WAT     H214628   0.713   9.056   0.704
 4796WAT      O14629   1.076   7.971   4.400
 4796WAT     H114630   1.117   8.062   4.407
 4796WAT     H214631   0.976   7.980   4.410
 4797WAT      O14632   1.345   1.663   6.040
 4797WAT     H114633   1.444   1.657   6.045
 4797WAT     H214634   1.305   1.617   6.119
 4798WAT      O14635   2.076   6.200   4.648
 4798WAT     H114636   2.126   6.125   4.604
 4798WAT     H214637   2.126   6.285   4.634
 4799WAT      O14638   0.887   6.246   1.800
 4799WAT     H114639   0.838   6.252   1.713
 4799WAT     H214640   0.971   6.300   1.795
 4800WAT      O14641   7.223   7.965   9.398
 4800WAT     H114642   7.145   7.902   9.394
 4800WAT     H214643   7.199   8.043   9.456
 4801WAT      O14644   0.609   4.895   3.083
 4801WAT     H114645   0.663   4.816   3.113
 4801WAT     H214646   0.515   4.886   3.118
 4802WAT      O14647   2.443   3.987   9.112
 4802WAT     H114648   2.435   4.037   9.199
 4802WAT     H214649   2.531   4.008   9.070
 4803WAT      O14650   1.374   2.687   3.026
 4803WAT     H114651   1.345   2.781   3.008
 4803WAT     H214652   1.455   2.666   2.970
 4804WAT      O14653   1.468   7.056   4.600
 4804WAT     H114654   1.500   7.092   4.513
 4804WAT     H214655   1.379   7.097   4.623
 4805WAT      O14656   6.073   3.614   7.700
 4805WAT     H114657   6.089   3.654   7.790
 4805WAT     H214658   6.123   3.666   7.631
 4806WAT      O14659   3.930   2.922   6.049
 4806WAT     H114660   4.019   2.924   6.004
 4806WAT     H214661   3.916   2.831   6.089
 4807WAT      O14662   8.860   4.085   6.063
 4807WAT     H114663   8.842   4.162   6.001
 4807WAT     H214664   8.773   4.050   6.098
 4808WAT      O14665   6.004   5.870   3.569
 4808WAT     H114666   5.932   5.835   3.629
 4808WAT     H214667   5.967   5.940   3.508
 4809WAT      O14668   9.216   4.778   7.010
 4809WAT     H114669   9.277   4.789   6.932
 4809WAT     H214670   9.269   4.774   7.094
 4810WAT      O14671   4.665   0.387   4.076
 4810WAT     H114672   4.575   0.431   4.067
 4810WAT     H214673   4.694   0.355   3.986
 4811WAT      O14674   1.825   7.072   7.739
 4811WAT     H114675   1.850   7.126   7.659
 4811WAT     H214676   1.753   7.007   7.714
 4812WAT      O14677   3.664   8.864   1.634
 4812WAT     H114678   3.612   8.829   1.712
 4812WAT     H214679   3.601   8.886   1.560
 4813WAT      O14680   4.288   0.319   1.726
 4813WAT     H114681   4.336   0.392   1.677
 4813WAT     H214682   4.196   0.350   1.749
 4814WAT      O14683   5.587   6.947   7.333
 4814WAT     H114684   5.635   7.018   7.282
 4814WAT     H214685   5.595   6.860   7.283
 4815WAT      O14686   3.189   5.972   1.746
 4815WAT     H114687   3.168   6.051   1.688
 4815WAT     H214688   3.127   5.897   1.724
 4816WAT      O14689   8.241   5.819   9.623
 4816WAT     H114690   8.148   5.803   9.658
 4816WAT     H214691   8.282   5.895   9.673
 4817WAT      O14692   1.108   5.737   7.615
 4817WAT     H114693   1.140   5.825   7.649
 4817WAT     H214694   1.147   5.721   7.524
 4818WAT      O14695   9.434   3.434   4.799
 4818WAT     H114696   9.451   3.381   4.883
 4818WAT     H214697   9.432   3.372   4.721
 4819WAT      O14698   0.303   1.928   1.337
 4819WAT     H114699   0.304   2.027   1.327
 4819WAT     H214700   0.261   1.887   1.256
 4820WAT      O14701   0.946   2.128   8.013
 4820WAT     H114702   0.868   2.185   8.037
 4820WAT     H214703   1.027   2.159   8.063
 4821WAT      O14704   2.108   9.606   7.339
 4821WAT     H114705   2.135   9.691   7.385
 4821WAT     H214706   2.159   9.529   7.377
 4822WAT      O14707   2.820   8.813   9.571
 4822WAT     H114708   2.796   8.798   9.667
 4822WAT     H214709   2.764   8.888   9.534
 4823WAT      O14710   1.746   0.360   2.204
 4823WAT     H114711   1.732   0.281   2.264
 4823WAT     H214712   1.836   0.353   2.160
 4824WAT      O14713   3.567   9.638   9.639
 4824WAT     H114714   3.563   9.609   9.735
 4824WAT     H214715   3.479   9.622   9.595
 4825WAT      O14716   4.942   0.940   4.128
 4825WAT     H114717   4.932   1.023   4.182
 4825WAT     H214718   4.979   0.867   4.185
 4826WAT      O14719   2.120   8.641   4.821
 4826WAT     H114720   2.150   8.605   4.732
 4826WAT     H214721   2.020   8.640   4.825
 4827WAT      O14722   6.219   0.033   7.183
 4827WAT     H114723   6.143   0.098   7.188
 4827WAT     H214724   6.256   0.033   7.090
 4828WAT      O14725   7.791   0.280   1.878
 4828WAT     H114726   7.886   0.297   1.851
 4828WAT     H214727   7.789   0.205   1.944
 4829WAT      O14728   2.452   0.685   5.058
 4829WAT     H114729   2.471   0.613   4.992
 4829WAT     H214730   2.532   0.698   5.117
 4830WAT      O14731   6.906   6.705   4.628
 4830WAT     H114732   6.911   6.612   4.664
 4830WAT     H214733   6.999   6.741   4.617
 4831WAT      O14734   4.815   6.873   1.745
 4831WAT     H114735   4.840   6.968   1.730
 4831WAT     H214736   4.744   6.847   1.680
 4832WAT      O14737   2.149   3.023   2.567
 4832WAT     H114738   2.090   2.950   2.601
 4832WAT     H214739   2.224   3.038   2.630
 4833WAT      O14740   9.590   5.485   5.965
 4833WAT     H114741   9.566   5.442   6.052
 4833WAT     H214742   9.519   5.465   5.898
 4834WAT      O14743   8.024   2.055   6.862
 4834WAT     H114744   7.934   2.080   6.827
 4834WAT     H214745   8.095   2.100   6.808
 4835WAT      O14746   8.652   4.924   6.021
 4835WAT     H114747   8.631   4.991   6.092
 4835WAT     H214748   8.567   4.880   5.991
 4836WAT      O14749   3.721   6.642   1.328
 4836WAT     H114750   3.781   6.581   1.379
 4836WAT     H214751   3.626   6.628   1.357
 4837WAT      O14752   7.447   4.616   2.176
 4837WAT     H114753   7.444   4.678   2.254
 4837WAT     H214754   7.400   4.657   2.099
 4838WAT      O14755   5.714   9.148   6.254
 4838WAT     H114756   5.690   9.153   6.351
 4838WAT     H214757   5.631   9.130   6.200
 4839WAT      O14758   3.413   8.276   4.464
 4839WAT     H114759   3.391   8.216   4.388
 4839WAT     H214760   3.470   8.352   4.431
 4840WAT      O14761   8.907   1.967   6.489
 4840WAT     H114762   8.890   2.002   6.397
 4840WAT     H214763   8.950   2.038   6.545
 4841WAT      O14764   1.216   4.390   5.055
 4841WAT     H114765   1.210   4.483   5.092
 4841WAT     H214766   1.129   4.343   5.070
 4842WAT      O14767   4.385   6.431   3.930
 4842WAT     H114768   4.434   6.514   3.955
 4842WAT     H214769   4.345   6.389   4.012
 4843WAT      O14770   0.927   1.419   0.256
 4843WAT     H114771   0.836   1.441   0.220
 4843WAT     H214772   0.953   1.486   0.325
 4844WAT      O14773   5.586   0.036   1.802
 4844WAT     H114774   5.505  -0.019   1.778
 4844WAT     H214775   5.653  -0.021   1.848
 4845WAT      O14776   3.940   0.813   3.862
 4845WAT     H114777   3.910   0.835   3.769
 4845WAT     H214778   3.861   0.787   3.918
 4846WAT      O14779   4.615   9.491   7.548
 4846WAT     H114780   4.563   9.467   7.630
 4846WAT     H214781   4.684   9.421   7.530
 4847WAT      O14782   4.820   8.697   3.084
 4847WAT     H114783   4.913   8.664   3.067
 4847WAT     H214784   4.798   8.769   3.019
 4848WAT      O14785   6.362   1.272   7.938
 4848WAT     H114786   6.433   1.285   7.870
 4848WAT     H214787   6.273   1.262   7.892
 4849WAT      O14788   1.463   6.141   6.842
 4849WAT     H114789   1.540   6.122   6.904
 4849WAT     H214790   1.396   6.199   6.889
 4850WAT      O14791   7.713   3.693   0.408
 4850WAT     H114792   7.710   3.597   0.435
 4850WAT     H214793   7.622   3.722   0.379
 4851WAT      O14794   4.742   5.386   5.364
 4851WAT     H114795   4.712   5.364   5.457
 4851WAT     H214796   4.721   5.309   5.304
 4852WAT      O14797   1.631   0.304   0.934
 4852WAT     H114798   1.572   0.224   0.919
 4852WAT     H214799   1.667   0.301   1.028
 4853WAT      O14800   0.323   3.353   3.489
 4853WAT     H114801   0.409   3.398   3.514
 4853WAT     H214802   0.289   3.301   3.567
 4854WAT      O14803   6.644   0.453   2.752
 4854WAT     H114804   6.562   0.473   2.806
 4854WAT     H214805   6.617   0.407   2.667
 4855WAT      O14806   7.941   3.099   0.077
 4855WAT     H114807   7.860   3.107   0.018
 4855WAT     H214808   7.927   3.025   0.143
 4856WAT      O14809   1.160   8.086   1.119
 4856WAT     H114810   1.181   8.174   1.076
 4856WAT     H214811   1.115   8.101   1.207
 4857WAT      O14812   6.309   2.159   6.382
 4857WAT     H114813   6.353   2.076   6.417
 4857WAT     H214814   6.210   2.145   6.380
 4858WAT      O14815   9.366   4.747   2.741
 4858WAT     H114816   9.447   4.742   2.800
 4858WAT     H214817   9.395   4.748   2.645
 4859WAT      O14818   3.280   1.834   6.272
 4859WAT     H114819   3.353   1.902   6.260
 4859WAT     H214820   3.320   1.742   6.273
 4860WAT      O14821   4.234   2.009   0.478
 4860WAT     H114822   4.264   1.915   0.459
 4860WAT     H214823   4.160   2.033   0.415
 4861WAT      O14824   4.246   5.453   9.445
 4861WAT     H114825   4.255   5.355   9.427
 4861WAT     H214826   4.217   5.500   9.362
 4862WAT      O14827   3.666   3.310   8.364
 4862WAT     H114828   3.743   3.363   8.399
 4862WAT     H214829   3.685   3.281   8.270
 4863WAT      O14830   9.205   9.082   4.212
 4863WAT     H114831   9.155   9.019   4.271
 4863WAT     H214832   9.212   9.171   4.256
 4864WAT      O14833   8.746   0.436   4.689
 4864WAT     H114834   8.696   0.514   4.652
 4864WAT     H214835   8.770   0.374   4.614
 4865WAT      O14836   4.045   2.666   2.661
 4865WAT     H114837   3.975   2.689   2.594
 4865WAT     H214838   4.009   2.599   2.726
 4866WAT      O14839   3.112   8.041   4.328
 4866WAT     H114840   3.201   8.066   4.291
 4866WAT     H214841   3.121   7.961   4.388
 4867WAT      O14842   0.208   0.847   3.515
 4867WAT     H114843   0.111   0.861   3.499
 4867WAT     H214844   0.254   0.936   3.519
 4868WAT      O14845   0.919   7.794   2.902
 4868WAT     H114846   0.983   7.804   2.978
 4868WAT     H214847   0.861   7.714   2.918
 4869WAT      O14848   9.871   5.703   7.578
 4869WAT     H114849   9.847   5.660   7.665
 4869WAT     H214850   9.845   5.643   7.502
 4870WAT      O14851   4.770   2.101   7.185
 4870WAT     H114852   4.826   2.037   7.237
 4870WAT     H214853   4.768   2.072   7.089
 4871WAT      O14854   1.527   3.404   8.517
 4871WAT     H114855   1.496   3.441   8.605
 4871WAT     H214856   1.619   3.368   8.526
 4872WAT      O14857   8.156   0.415   6.464
 4872WAT     H114858   8.127   0.422   6.369
 4872WAT     H214859   8.243   0.465   6.476
 4873WAT      O14860   8.967   5.873   5.611
 4873WAT     H114861   8.875   5.840   5.632
 4873WAT     H214862   9.034   5.803   5.633
 4874WAT      O14863   4.647   0.321   6.248
 4874WAT     H114864   4.578   0.390   6.267
 4874WAT     H214865   4.715   0.358   6.184
 4875WAT      O14866   9.178   4.092   5.663
 4875WAT     H114867   9.131   4.180   5.672
 4875WAT     H214868   9.244   4.097   5.588
 4876WAT      O14869   4.157   6.342   5.764
 4876WAT     H114870   4.166   6.442   5.759
 4876WAT     H214871   4.084   6.312   5.704
 4877WAT      O14872   3.776   5.104   3.508
 4877WAT     H114873   3.779   5.187   3.451
 4877WAT     H214874   3.689   5.101   3.558
 4878WAT      O14875   2.598   7.381   7.143
 4878WAT     H114876   2.544   7.298   7.130
 4878WAT     H214877   2.695   7.357   7.149
 4879WAT      O14878   8.850   8.015   6.801
 4879WAT     H114879   8.835   8.102   6.849
 4879WAT     H214880   8.942   7.982   6.822
 4880WAT      O14881   3.533   7.121   4.699
 4880WAT     H114882   3.437   7.109   4.721
 4880WAT     H214883   3.580   7.033   4.708
 4881WAT      O14884   8.419   0.670   2.227
 4881WAT     H114885   8.349   0.737   2.253
 4881WAT     H214886   8.486   0.663   2.301
 4882WAT      O14887   7.098   2.504   3.332
 4882WAT     H114888   7.059   2.590   3.300
 4882WAT     H214889   7.026   2.435   3.340
 4883WAT      O14890   1.525   6.414   2.799
 4883WAT     H114891   1.557   6.488   2.858
 4883WAT     H214892   1.461   6.356   2.850
 4884WAT      O14893   2.775   7.681   1.319
 4884WAT     H114894   2.873   7.698   1.308
 4884WAT     H214895   2.736   7.752   1.377
 4885WAT      O14896   0.740   5.978   8.803
 4885WAT     H114897   0.660   6.019   8.760
 4885WAT     H214898   0.803   5.946   8.733
 4886WAT      O14899   3.749   2.753   0.334
 4886WAT     H114900   3.714   2.772   0.426
 4886WAT     H214901   3.699   2.809   0.268
 4887WAT      O14902   7.067   2.751   0.668
 4887WAT     H114903   7.072   2.651   0.664
 4887WAT     H214904   7.136   2.790   0.608
 4888WAT      O14905   1.148   5.561   4.217
 4888WAT     H114906   1.112   5.552   4.310
 4888WAT     H214907   1.113   5.487   4.160
 4889WAT      O14908   5.759   0.287   3.382
 4889WAT     H114909   5.709   0.202   3.365
 4889WAT     H214910   5.816   0.276   3.464
 4890WAT      O14911   5.061   3.394   9.269
 4890WAT     H114912   5.034   3.326   9.201
 4890WAT     H214913   4.999   3.389   9.347
 4891WAT      O14914   0.071   4.371   4.464
 4891WAT     H114915   0.142   4.333   4.523
 4891WAT     H214916   0.086   4.341   4.370
 4892WAT      O14917   6.695   2.283   7.888
 4892WAT     H114918   6.657   2.201   7.844
 4892WAT     H214919   6.791   2.268   7.910
 4893WAT      O14920   4.137   5.420   4.556
 4893WAT     H114921   4.193   5.339   4.543
 4893WAT     H214922   4.101   5.451   4.468
 4894WAT      O14923   2.916   5.955   0.757
 4894WAT     H114924   2.904   5.887   0.829
 4894WAT     H214925   3.002   5.938   0.709
 4895WAT      O14926   4.585   3.402   0.962
 4895WAT     H114927   4.628   3.462   0.895
 4895WAT     H214928   4.585   3.308   0.927
 4896WAT      O14929   8.315   1.589   8.584
 4896WAT     H114930   8.342   1.538   8.666
 4896WAT     H214931   8.220   1.617   8.592
 4897WAT      O14932   1.118   7.699   8.823
 4897WAT     H114933   1.137   7.768   8.893
 4897WAT     H214934   1.198   7.641   8.811
 4898WAT      O14935   1.222   5.991   7.691
 4898WAT     H114936   1.280   6.049   7.747
 4898WAT     H214937   1.251   5.996   7.595
 4899WAT      O14938   2.031   3.974   5.125
 4899WAT     H114939   1.954   3.974   5.061
 4899WAT     H214940   2.000   4.003   5.215
 4900WAT      O14941   2.214   7.930   1.894
 4900WAT     H114942   2.285   7.956   1.829
 4900WAT     H214943   2.134   7.989   1.883
 4901WAT      O14944   4.070   8.533   6.101
 4901WAT     H114945   4.149   8.551   6.160
 4901WAT     H214946   4.101   8.520   6.007
 4902WAT      O14947   5.528   4.325   9.315
 4902WAT     H114948   5.472   4.242   9.313
 4902WAT     H214949   5.496   4.385   9.388
 4903WAT      O14950   6.410   7.230   0.729
 4903WAT     H114951   6.432   7.310   0.675
 4903WAT     H214952   6.329   7.185   0.692
 4904WAT      O14953   0.851   0.714   5.228
 4904WAT     H114954   0.891   0.699   5.138
 4904WAT     H214955   0.870   0.808   5.258
 4905WAT      O14956   7.493   6.914   2.244
 4905WAT     H114957   7.508   6.898   2.342
 4905WAT     H214958   7.457   6.830   2.203
 4906WAT      O14959   4.288   2.941   0.828
 4906WAT     H114960   4.387   2.942   0.810
 4906WAT     H214961   4.267   3.002   0.904
 4907WAT      O14962   6.090   6.009   9.156
 4907WAT     H114963   6.040   5.994   9.241
 4907WAT     H214964   6.058   5.943   9.087
 4908WAT      O14965   2.496   7.907   6.169
 4908WAT     H114966   2.421   7.862   6.216
 4908WAT     H214967   2.576   7.847   6.168
 4909WAT      O14968   1.383   3.660   2.138
 4909WAT     H114969   1.375   3.641   2.236
 4909WAT     H214970   1.396   3.759   2.124
 4910WAT      O14971   8.167   0.831   2.320
 4910WAT     H114972   8.122   0.885   2.390
 4910WAT     H214973   8.098   0.792   2.259
 4911WAT      O14974   9.579   8.855   9.325
 4911WAT     H114975   9.621   8.884   9.411
 4911WAT     H214976   9.644   8.869   9.250
 4912WAT      O14977   8.507   3.319   2.947
 4912WAT     H114978   8.438   3.300   3.016
 4912WAT     H214979   8.474   3.289   2.857
 4913WAT      O14980   9.528   3.563   7.263
 4913WAT     H114981   9.487   3.496   7.201
 4913WAT     H214982   9.486   3.653   7.248
 4914WAT      O14983   3.236   7.306   9.225
 4914WAT     H114984   3.309   7.371   9.203
 4914WAT     H214985   3.188   7.281   9.140
 4915WAT      O14986   3.117   3.653   8.605
 4915WAT     H114987   3.033   3.684   8.561
 4915WAT     H214988   3.166   3.592   8.542
 4916WAT      O14989   1.801   2.097   5.258
 4916WAT     H114990   1.732   2.078   5.187
 4916WAT     H214991   1.776   2.049   5.342
 4917WAT      O14992   2.715   9.529   6.977
 4917WAT     H114993   2.814   9.531   6.964
 4917WAT     H214994   2.675   9.615   6.945
 4918WAT      O14995   7.863   0.257   3.651
 4918WAT     H114996   7.838   0.352   3.670
 4918WAT     H214997   7.882   0.210   3.737
 4919WAT      O14998   8.443   5.074   0.689
 4919WAT     H114999   8.347   5.085   0.714
 4919WAT     H215000   8.455   4.987   0.641
 4920WAT      O15001   8.401   9.623   0.182
 4920WAT     H115002   8.308   9.607   0.150
 4920WAT     H215003   8.401   9.641   0.280
 4921WAT      O15004   6.598   0.542   6.148
 4921WAT     H115005   6.569   0.580   6.236
 4921WAT     H215006   6.529   0.563   6.078
 4922WAT      O15007   9.700   6.220   8.229
 4922WAT     H115008   9.610   6.189   8.258
 4922WAT     H215009   9.769   6.153   8.257
 4923WAT      O15010   1.675   5.220   8.534
 4923WAT     H115011   1.749   5.250   8.594
 4923WAT     H215012   1.711   5.206   8.442
 4924WAT      O15013   3.163   4.158   8.165
 4924WAT     H115014   3.173   4.257   8.157
 4924WAT     H215015   3.213   4.114   8.091
 4925WAT      O15016   3.897   8.784   1.937
 4925WAT     H115017   3.800   8.792   1.957
 4925WAT     H215018   3.950   8.818   2.016
 4926WAT      O15019   1.517   9.037   1.250
 4926WAT     H115020   1.502   8.961   1.313
 4926WAT     H215021   1.580   9.103   1.291
 4927WAT      O15022   4.655   4.676   6.569
 4927WAT     H115023   4.625   4.589   6.607
 4927WAT     H215024   4.704   4.660   6.483
 4928WAT      O15025   5.210   1.871   0.992
 4928WAT     H115026   5.124   1.822   1.008
 4928WAT     H215027   5.283   1.829   1.045
 4929WAT      O15028   1.665   7.056   0.608
 4929WAT     H115029   1.656   7.145   0.563
 4929WAT     H215030   1.747   7.056   0.665
 4930WAT      O15031   8.932   0.885   1.805
 4930WAT     H115032   8.970   0.869   1.714
 4930WAT     H215033   8.940   0.982   1.828
 4931WAT      O15034   3.341   1.234   7.043
 4931WAT     H115035   3.350   1.239   6.944
 4931WAT     H215036   3.341   1.326   7.082
 4932WAT      O15037   0.055   7.727   5.409
 4932WAT     H115038   0.060   7.779   5.494
 4932WAT     H215039   0.062   7.789   5.331
 4933WAT      O15040   3.779   6.401   9.073
 4933WAT     H115041   3.789   6.409   8.974
 4933WAT     H215042   3.698   6.346   9.094
 4934WAT      O15043   7.832   0.629   8.983
 4934WAT     H115044   7.824   0.575   8.899
 4934WAT     H215045   7.913   0.686   8.978
 4935WAT      O15046   2.847   1.171   2.966
 4935WAT     H115047   2.843   1.124   3.054
 4935WAT     H215048   2.933   1.149   2.921
 4936WAT      O15049   8.978   3.662   7.875
 4936WAT     H115050   9.015   3.618   7.957
 4936WAT     H215051   8.955   3.592   7.808
 4937WAT      O15052   0.060   2.327   6.368
 4937WAT     H115053  -0.022   2.283   6.407
 4937WAT     H215054   0.110   2.374   6.441
 4938WAT      O15055   2.401   8.986   1.398
 4938WAT     H115056   2.319   9.041   1.411
 4938WAT     H215057   2.482   9.045   1.403
 4939WAT      O15058   6.691   4.565   8.198
 4939WAT     H115059   6.592   4.563   8.213
 4939WAT     H215060   6.737   4.588   8.283
 4940WAT      O15061   9.526   8.101   5.246
 4940WAT     H115062   9.482   8.085   5.334
 4940WAT     H215063   9.606   8.160   5.259
 4941WAT      O15064   4.732   3.514   0.718
 4941WAT     H115065   4.668   3.590   0.726
 4941WAT     H215066   4.731   3.479   0.624
 4942WAT      O15067   4.644   8.529   4.474
 4942WAT     H115068   4.574   8.482   4.528
 4942WAT     H215069   4.628   8.512   4.377
 4943WAT      O15070   7.922   8.091   6.542
 4943WAT     H115071   7.853   8.075   6.471
 4943WAT     H215072   7.901   8.036   6.623
 4944WAT      O15073   0.627   4.144   7.074
 4944WAT     H115074   0.599   4.122   7.168
 4944WAT     H215075   0.718   4.106   7.057
 4945WAT      O15076   7.712   2.433   3.757
 4945WAT     H115077   7.743   2.507   3.816
 4945WAT     H215078   7.621   2.455   3.722
 4946WAT      O15079   8.496   0.524   4.046
 4946WAT     H115080   8.500   0.424   4.051
 4946WAT     H215081   8.578   0.562   4.088
 4947WAT      O15082   9.566   4.646   7.015
 4947WAT     H115083   9.600   4.554   7.034
 4947WAT     H215084   9.480   4.661   7.064
 4948WAT      O15085   8.633   9.787   6.781
 4948WAT     H115086   8.654   9.876   6.819
 4948WAT     H215087   8.588   9.730   6.850
 4949WAT      O15088   3.943   4.818   9.560
 4949WAT     H115089   3.948   4.856   9.652
 4949WAT     H215090   3.910   4.724   9.564
 4950WAT      O15091   7.767   4.594   2.775
 4950WAT     H115092   7.777   4.495   2.770
 4950WAT     H215093   7.855   4.638   2.755
 4951WAT      O15094   0.296   4.960   6.377
 4951WAT     H115095   0.289   5.030   6.307
 4951WAT     H215096   0.209   4.952   6.425
 4952WAT      O15097   8.983   5.333   6.323
 4952WAT     H115098   8.975   5.265   6.395
 4952WAT     H215099   8.892   5.362   6.294
 4953WAT      O15100   6.603   1.095   9.005
 4953WAT     H115101   6.547   1.159   8.953
 4953WAT     H215102   6.545   1.025   9.046
 4954WAT      O15103   7.399   9.669   3.754
 4954WAT     H115104   7.318   9.620   3.723
 4954WAT     H215105   7.465   9.604   3.792
 4955WAT      O15106   8.564   0.040   4.491
 4955WAT     H115107   8.616   0.073   4.413
 4955WAT     H215108   8.531   0.117   4.545
 4956WAT      O15109   9.098   3.374   2.328
 4956WAT     H115110   9.124   3.278   2.338
 4956WAT     H215111   9.180   3.430   2.318
 4957WAT      O15112   4.613   5.586   9.402
 4957WAT     H115113   4.658   5.672   9.377
 4957WAT     H215114   4.660   5.546   9.481
 4958WAT      O15115   2.884   3.150   6.623
 4958WAT     H115116   2.960   3.117   6.566
 4958WAT     H215117   2.904   3.131   6.719
 4959WAT      O15118   6.142   5.423   3.774
 4959WAT     H115119   6.177   5.497   3.717
 4959WAT     H215120   6.048   5.401   3.746
 4960WAT      O15121   2.570   7.513   5.668
 4960WAT     H115122   2.598   7.494   5.762
 4960WAT     H215123   2.547   7.610   5.659
 4961WAT      O15124   0.305   4.009   8.181
 4961WAT     H115125   0.266   4.095   8.147
 4961WAT     H215126   0.236   3.937   8.180
 4962WAT      O15127   5.115   6.523   0.162
 4962WAT     H115128   5.102   6.438   0.213
 4962WAT     H215129   5.187   6.578   0.206
 4963WAT      O15130   8.496   4.658   6.904
 4963WAT     H115131   8.586   4.702   6.906
 4963WAT     H215132   8.483   4.604   6.987
 4964WAT      O15133   6.583   7.926   1.390
 4964WAT     H115134   6.579   7.846   1.330
 4964WAT     H215135   6.587   7.895   1.485
 4965WAT      O15136   4.399   8.990   1.062
 4965WAT     H115137   4.301   8.986   1.045
 4965WAT     H215138   4.418   9.063   1.128
 4966WAT      O15139   3.896   4.857   3.405
 4966WAT     H115140   3.925   4.816   3.491
 4966WAT     H215141   3.845   4.942   3.424
 4967WAT      O15142   1.982   1.516   3.239
 4967WAT     H115143   1.927   1.511   3.156
 4967WAT     H215144   1.953   1.594   3.294
 4968WAT      O15145   8.924   4.413   8.460
 4968WAT     H115146   8.960   4.452   8.544
 4968WAT     H215147   8.948   4.316   8.456
 4969WAT      O15148   3.508   8.944   0.023
 4969WAT     H115149   3.519   8.863  -0.034
 4969WAT     H215150   3.593   8.962   0.072
 4970WAT      O15151   4.492   9.720   6.377
 4970WAT     H115152   4.469   9.767   6.463
 4970WAT     H215153   4.510   9.788   6.306
 4971WAT      O15154   3.727   6.035   7.492
 4971WAT     H115155   3.814   6.055   7.539
 4971WAT     H215156   3.723   6.088   7.407
 4972WAT      O15157   7.070   8.407   9.400
 4972WAT     H115158   6.976   8.421   9.431
 4972WAT     H215159   7.111   8.333   9.453
 4973WAT      O15160   3.895   9.322   5.255
 4973WAT     H115161   3.950   9.300   5.174
 4973WAT     H215162   3.829   9.249   5.272
 4974WAT      O15163   8.040   7.878   2.027
 4974WAT     H115164   8.060   7.833   1.940
 4974WAT     H215165   7.967   7.830   2.074
 4975WAT      O15166   7.995   1.563   1.806
 4975WAT     H115167   8.057   1.512   1.746
 4975WAT     H215168   7.908   1.576   1.759
 4976WAT      O15169   1.578   3.902   5.715
 4976WAT     H115170   1.655   3.898   5.652
 4976WAT     H215171   1.551   3.809   5.740
 4977WAT      O15172   3.152   8.345   8.280
 4977WAT     H115173   3.126   8.278   8.210
 4977WAT     H215174   3.104   8.324   8.365
 4978WAT      O15175   2.132   7.337   4.985
 4978WAT     H115176   2.106   7.380   4.898
 4978WAT     H215177   2.230   7.320   4.985
 4979WAT      O15178   3.564   1.043   6.929
 4979WAT     H115179   3.508   1.096   6.866
 4979WAT     H215180   3.602   1.104   6.999
 4980WAT      O15181   3.099   5.358   3.429
 4980WAT     H115182   3.005   5.324   3.429
 4980WAT     H215183   3.128   5.377   3.336
 4981WAT      O15184   3.112   3.487   9.016
 4981WAT     H115185   3.131   3.395   8.980
 4981WAT     H215186   3.041   3.482   9.086
 4982WAT      O15187   4.222   6.724   2.920
 4982WAT     H115188   4.172   6.677   2.846
 4982WAT     H215189   4.170   6.717   3.005
 4983WAT      O15190   8.026   8.587   3.310
 4983WAT     H115191   7.967   8.521   3.357
 4983WAT     H215192   8.112   8.543   3.284
 4984WAT      O15193   5.757   5.219   5.835
 4984WAT     H115194   5.733   5.124   5.852
 4984WAT     H215195   5.688   5.261   5.777
 4985WAT      O15196   3.557   3.157   1.423
 4985WAT     H115197   3.620   3.176   1.348
 4985WAT     H215198   3.574   3.223   1.497
 4986WAT      O15199   7.987   1.876   4.340
 4986WAT     H115200   8.085   1.858   4.346
 4986WAT     H215201   7.942   1.846   4.424
 4987WAT      O15202   0.099   3.224   2.670
 4987WAT     H115203   0.111   3.126   2.687
 4987WAT     H215204   0.002   3.248   2.678
 4988WAT      O15205   8.157   3.617   8.739
 4988WAT     H115206   8.250   3.579   8.738
 4988WAT     H215207   8.149   3.683   8.813
 4989WAT      O15208   8.401   5.772   8.036
 4989WAT     H115209   8.450   5.730   8.113
 4989WAT     H215210   8.303   5.757   8.047
 4990WAT      O15211   6.929   6.051   4.268
 4990WAT     H115212   6.890   6.106   4.341
 4990WAT     H215213   6.970   6.111   4.199
 4991WAT      O15214   8.601   6.026   2.593
 4991WAT     H115215   8.662   6.092   2.550
 4991WAT     H215216   8.511   6.029   2.549
 4992WAT      O15217   2.295   6.182   9.091
 4992WAT     H115218   2.317   6.279   9.086
 4992WAT     H215219   2.222   6.168   9.158
 4993WAT      O15220   8.225   3.939   6.230
 4993WAT     H115221   8.155   3.912   6.163
 4993WAT     H215222   8.208   3.893   6.317
 4994WAT      O15223   1.685   3.351   0.318
 4994WAT     H115224   1.690   3.339   0.417
 4994WAT     H215225   1.616   3.421   0.296
 4995WAT      O15226   6.044   4.941   8.250
 4995WAT     H115227   6.124   4.994   8.222
 4995WAT     H215228   5.991   4.994   8.317
 4996WAT      O15229   9.497   4.344   0.336
 4996WAT     H115230   9.542   4.373   0.252
 4996WAT     H215231   9.551   4.272   0.380
 4997WAT      O15232   9.619   0.695   4.497
 4997WAT     H115233   9.616   0.608   4.448
 4997WAT     H215234   9.690   0.753   4.456
 4998WAT      O15235   4.976   2.690   9.451
 4998WAT     H115236   5.020   2.676   9.540
 4998WAT     H215237   5.009   2.621   9.386
 4999WAT      O15238   5.532   0.996   6.733
 4999WAT     H115239   5.567   0.931   6.801
 4999WAT     H215240   5.570   1.087   6.752
 5000WAT      O15241   7.762   0.760   7.220
 5000WAT     H115242   7.855   0.769   7.185
 5000WAT     H215243   7.711   0.696   7.163
 5001WAT      O15244   1.614   7.763   2.695
 5001WAT     H115245   1.653   7.680   2.656
 5001WAT     H215246   1.660   7.784   2.781
 5002WAT      O15247   3.844   1.970   0.501
 5002WAT     H115248   3.906   1.973   0.423
 5002WAT     H215249   3.855   1.883   0.549
 5003WAT      O15250   3.118   3.094   7.116
 5003WAT     H115251   3.137   2.999   7.142
 5003WAT     H215252   3.116   3.151   7.198
 5004WAT      O15253   7.032   7.379   2.283
 5004WAT     H115254   6.959   7.314   2.263
 5004WAT     H215255   7.049   7.436   2.202
 5005WAT      O15256   5.200   7.317   5.847
 5005WAT     H115257   5.202   7.373   5.764
 5005WAT     H215258   5.260   7.358   5.916
 5006WAT      O15259   5.093   8.942   2.062
 5006WAT     H115260   5.063   8.947   2.157
 5006WAT     H215261   5.179   8.992   2.052
 5007WAT      O15262   6.176   3.068   2.807
 5007WAT     H115263   6.230   3.077   2.723
 5007WAT     H215264   6.078   3.075   2.785
 5008WAT      O15265   3.489   7.695   0.330
 5008WAT     H115266   3.437   7.618   0.367
 5008WAT     H215267   3.581   7.695   0.369
 5009WAT      O15268   8.405   0.950   1.433
 5009WAT     H115269   8.454   0.954   1.520
 5009WAT     H215270   8.472   0.947   1.358
 5010WAT      O15271   5.421   5.605   2.685
 5010WAT     H115272   5.404   5.693   2.641
 5010WAT     H215273   5.393   5.531   2.624
 5011WAT      O15274   3.556   4.119   7.661
 5011WAT     H115275   3.511   4.138   7.574
 5011WAT     H215276   3.650   4.091   7.645
 5012WAT      O15277   8.851   6.722   4.497
 5012WAT     H115278   8.883   6.817   4.492
 5012WAT     H215279   8.771   6.717   4.557
 5013WAT      O15280   9.776   9.516   2.220
 5013WAT     H115281   9.761   9.602   2.170
 5013WAT     H215282   9.835   9.456   2.167
 5014WAT      O15283   7.713   8.078   9.016
 5014WAT     H115284   7.633   8.132   8.989
 5014WAT     H215285   7.699   8.040   9.107
 5015WAT      O15286   6.317   5.120   0.615
 5015WAT     H115287   6.362   5.175   0.545
 5015WAT     H215288   6.368   5.127   0.701
 5016WAT      O15289   4.607   6.228   7.210
 5016WAT     H115290   4.668   6.151   7.190
 5016WAT     H215291   4.638   6.309   7.161
 5017WAT      O15292   9.665   9.317   5.229
 5017WAT     H115293   9.747   9.260   5.225
 5017WAT     H215294   9.684   9.405   5.185
 5018WAT      O15295   8.129   1.149   3.861
 5018WAT     H115296   8.145   1.090   3.940
 5018WAT     H215297   8.031   1.149   3.839
 5019WAT      O15298   3.965   4.793   9.225
 5019WAT     H115299   3.888   4.856   9.218
 5019WAT     H215300   4.033   4.829   9.289
 5020WAT      O15301   2.176   3.266   3.297
 5020WAT     H115302   2.245   3.299   3.233
 5020WAT     H215303   2.219   3.206   3.365
 5021WAT      O15304   1.964   1.715   3.759
 5021WAT     H115305   2.037   1.783   3.744
 5021WAT     H215306   1.876   1.761   3.759
 5022WAT      O15307   8.942   2.989   0.248
 5022WAT     H115308   8.972   2.899   0.280
 5022WAT     H215309   8.845   3.000   0.267
 5023WAT      O15310   2.512   8.011   8.861
 5023WAT     H115311   2.542   7.933   8.805
 5023WAT     H215312   2.454   7.978   8.936
 5024WAT      O15313   4.016   7.577   2.358
 5024WAT     H115314   4.019   7.481   2.384
 5024WAT     H215315   4.047   7.588   2.264
 5025WAT      O15316   0.236   5.630   3.859
 5025WAT     H115317   0.206   5.698   3.792
 5025WAT     H215318   0.330   5.603   3.840
 5026WAT      O15319   9.154   9.658   8.455
 5026WAT     H115320   9.106   9.610   8.528
 5026WAT     H215321   9.203   9.592   8.398
 5027WAT      O15322   5.584   3.905   3.572
 5027WAT     H115323   5.647   3.979   3.547
 5027WAT     H215324   5.539   3.926   3.658
 5028WAT      O15325   7.678   7.789   8.863
 5028WAT     H115326   7.745   7.780   8.937
 5028WAT     H215327   7.721   7.832   8.784
 5029WAT      O15328   1.749   1.796   4.178
 5029WAT     H115329   1.711   1.794   4.086
 5029WAT     H215330   1.845   1.771   4.175
 5030WAT      O15331   8.308   9.482   8.694
 5030WAT     H115332   8.294   9.580   8.711
 5030WAT     H215333   8.405   9.464   8.677
 5031WAT      O15334   0.532   4.025   7.314
 5031WAT     H115335   0.592   3.966   7.259
 5031WAT     H215336   0.561   4.021   7.410
 5032WAT      O15337   4.145   1.949   3.707
 5032WAT     H115338   4.138   2.046   3.732
 5032WAT     H215339   4.057   1.905   3.721
 5033WAT      O15340   8.597   6.348   1.372
 5033WAT     H115341   8.673   6.388   1.320
 5033WAT     H215342   8.549   6.420   1.421
 5034WAT      O15343   8.627   1.272   5.655
 5034WAT     H115344   8.619   1.360   5.609
 5034WAT     H215345   8.685   1.281   5.736
 5035WAT      O15346   3.803   8.566   3.265
 5035WAT     H115347   3.842   8.620   3.339
 5035WAT     H215348   3.711   8.600   3.245
 5036WAT      O15349   2.099   1.030   4.355
 5036WAT     H115350   1.999   1.032   4.352
 5036WAT     H215351   2.134   0.958   4.295
 5037WAT      O15352   9.045   2.468   1.510
 5037WAT     H115353   9.075   2.430   1.597
 5037WAT     H215354   8.998   2.397   1.457
 5038WAT      O15355   0.261   5.821   6.131
 5038WAT     H115356   0.227   5.853   6.042
 5038WAT     H215357   0.359   5.803   6.124
 5039WAT      O15358   6.127   9.355   9.057
 5039WAT     H115359   6.164   9.287   8.995
 5039WAT     H215360   6.158   9.337   9.150
 5040WAT      O15361   8.373   5.648   5.792
 5040WAT     H115362   8.434   5.705   5.737
 5040WAT     H215363   8.388   5.669   5.889
 5041WAT      O15364   4.484   7.012   6.539
 5041WAT     H115365   4.480   6.916   6.565
 5041WAT     H215366   4.541   7.023   6.457
 5042WAT      O15367   4.995   5.357   8.915
 5042WAT     H115368   4.984   5.341   8.817
 5042WAT     H215369   5.087   5.391   8.933
 5043WAT      O15370   4.035   4.214   7.515
 5043WAT     H115371   4.018   4.300   7.466
 5043WAT     H215372   4.126   4.179   7.490
 5044WAT      O15373   5.295   4.160   5.138
 5044WAT     H115374   5.367   4.223   5.109
 5044WAT     H215375   5.207   4.208   5.142
 5045WAT      O15376   7.478   3.874   9.215
 5045WAT     H115377   7.537   3.794   9.228
 5045WAT     H215378   7.516   3.951   9.266
 5046WAT      O15379   6.633   9.697   0.948
 5046WAT     H115380   6.687   9.639   0.887
 5046WAT     H215381   6.543   9.714   0.907
 5047WAT      O15382   2.872   8.531   3.890
 5047WAT     H115383   2.791   8.482   3.860
 5047WAT     H215384   2.953   8.495   3.843
 5048WAT      O15385   0.882   1.378   9.744
 5048WAT     H115386   0.922   1.409   9.831
 5048WAT     H215387   0.928   1.423   9.668
 5049WAT      O15388   0.408   1.529   4.235
 5049WAT     H115389   0.313   1.498   4.234
 5049WAT     H215390   0.462   1.472   4.173
 5050WAT      O15391   0.512   1.847   7.250
 5050WAT     H115392   0.474   1.755   7.259
 5050WAT     H215393   0.606   1.842   7.217
 5051WAT      O15394   0.220   2.009   5.337
 5051WAT     H115395   0.286   2.084   5.338
 5051WAT     H215396   0.133   2.041   5.300
 5052WAT      O15397   2.947   9.221   4.161
 5052WAT     H115398   2.875   9.259   4.102
 5052WAT     H215399   2.967   9.285   4.234
 5053WAT      O15400   8.513   2.629   2.814
 5053WAT     H115401   8.582   2.633   2.886
 5053WAT     H215402   8.426   2.599   2.852
 5054WAT      O15403   1.234   7.764   1.973
 5054WAT     H115404   1.208   7.860   1.977
 5054WAT     H215405   1.315   7.754   1.916
 5055WAT      O15406   9.366   5.835   0.576
 5055WAT     H115407   9.379   5.870   0.669
 5055WAT     H215408   9.362   5.736   0.578
 5056WAT      O15409   6.665   0.033   8.901
 5056WAT     H115410   6.673   0.061   8.996
 5056WAT     H215411   6.626   0.108   8.847
 5057WAT      O15412   7.795   9.803   6.796
 5057WAT     H115413   7.801   9.703   6.796
 5057WAT     H215414   7.700   9.831   6.808
 5058WAT      O15415   9.692   2.470   5.205
 5058WAT     H115416   9.654   2.380   5.228
 5058WAT     H215417   9.749   2.502   5.281
 5059WAT      O15418   2.429   7.132   8.021
 5059WAT     H115419   2.390   7.162   8.107
 5059WAT     H215420   2.416   7.033   8.010
 5060WAT      O15421   1.834   1.792   5.886
 5060WAT     H115422   1.916   1.823   5.934
 5060WAT     H215423   1.856   1.711   5.832
 5061WAT      O15424   2.838   8.069   0.018
 5061WAT     H115425   2.925   8.030  -0.010
 5061WAT     H215426   2.822   8.154  -0.032
 5062WAT      O15427   2.262   7.844   0.112
 5062WAT     H115428   2.280   7.916   0.179
 5062WAT     H215429   2.339   7.781   0.109
 5063WAT      O15430   6.804   7.235   0.547
 5063WAT     H115431   6.844   7.297   0.614
 5063WAT     H215432   6.822   7.141   0.574
 5064WAT      O15433   9.589   5.797   9.547
 5064WAT     H115434   9.669   5.750   9.584
 5064WAT     H215435   9.558   5.750   9.464
 5065WAT      O15436   8.027   9.647   4.946
 5065WAT     H115437   8.121   9.672   4.924
 5065WAT     H215438   8.022   9.617   5.042
 5066WAT      O15439   6.953   5.071   3.232
 5066WAT     H115440   6.922   5.126   3.310
 5066WAT     H215441   7.033   5.016   3.260
 5067WAT      O15442   4.795   0.810   6.973
 5067WAT     H115443   4.699   0.801   6.945
 5067WAT     H215444   4.842   0.873   6.912
 5068WAT      O15445   4.811   3.830   0.543
 5068WAT     H115446   4.729   3.841   0.600
 5068WAT     H215447   4.785   3.792   0.454
 5069WAT      O15448   5.311   9.594   7.327
 5069WAT     H115449   5.342   9.602   7.422
 5069WAT     H215450   5.211   9.596   7.325
 5070WAT      O15451   9.061   5.533   9.399
 5070WAT     H115452   9.153   5.498   9.418
 5070WAT     H215453   9.007   5.462   9.355
 5071WAT      O15454   2.900   3.007   0.971
 5071WAT     H115455   2.923   3.090   1.022
 5071WAT     H215456   2.883   3.030   0.876
 5072WAT      O15457   4.220   8.245   1.012
 5072WAT     H115458   4.264   8.181   1.075
 5072WAT     H215459   4.289   8.288   0.954
 5073WAT      O15460   4.105   2.643   7.653
 5073WAT     H115461   4.084   2.597   7.567
 5073WAT     H215462   4.125   2.739   7.636
 5074WAT      O15463   2.231   5.127   2.329
 5074WAT     H115464   2.144   5.174   2.346
 5074WAT     H215465   2.297   5.151   2.401
 5075WAT      O15466   8.334   7.826   9.555
 5075WAT     H115467   8.384   7.745   9.586
 5075WAT     H215468   8.242   7.827   9.596
 5076WAT      O15469   3.323   6.607   2.634
 5076WAT     H115470   3.241   6.550   2.632
 5076WAT     H215471   3.311   6.679   2.703
 5077WAT      O15472   1.666   9.245   3.695
 5077WAT     H115473   1.571   9.237   3.665
 5077WAT     H215474   1.710   9.155   3.693
 5078WAT      O15475   7.640   1.226   0.699
 5078WAT     H115476   7.643   1.236   0.798
 5078WAT     H215477   7.610   1.311   0.657
 5079WAT      O15478   5.786   0.384   0.803
 5079WAT     H115479   5.796   0.480   0.828
 5079WAT     H215480   5.721   0.340   0.865
 5080WAT      O15481   3.954   3.923   1.100
 5080WAT     H115482   3.907   4.011   1.098
 5080WAT     H215483   3.940   3.880   1.189
 5081WAT      O15484   9.424   3.457   3.998
 5081WAT     H115485   9.491   3.450   4.072
 5081WAT     H215486   9.424   3.373   3.944
 5082WAT      O15487   7.508   2.856   4.615
 5082WAT     H115488   7.464   2.943   4.636
 5082WAT     H215489   7.519   2.846   4.516
 5083WAT      O15490   0.246   7.584   6.079
 5083WAT     H115491   0.248   7.633   6.166
 5083WAT     H215492   0.253   7.649   6.004
 5084WAT      O15493   6.161   9.334   0.053
 5084WAT     H115494   6.234   9.388   0.009
 5084WAT     H215495   6.202   9.271   0.119
 5085WAT      O15496   4.182   9.765   3.357
 5085WAT     H115497   4.205   9.804   3.268
 5085WAT     H215498   4.247   9.796   3.426
 5086WAT      O15499   5.001   7.629   8.564
 5086WAT     H115500   4.913   7.588   8.584
 5086WAT     H215501   5.012   7.638   8.464
 5087WAT      O15502   0.340   4.303   8.114
 5087WAT     H115503   0.414   4.332   8.175
 5087WAT     H215504   0.254   4.343   8.144
 5088WAT      O15505   9.563   2.108   3.241
 5088WAT     H115506   9.485   2.091   3.302
 5088WAT     H215507   9.638   2.047   3.265
 5089WAT      O15508   2.017   3.937   5.663
 5089WAT     H115509   1.989   4.023   5.706
 5089WAT     H215510   2.000   3.862   5.726
 5090WAT      O15511   8.008   9.372   4.952
 5090WAT     H115512   7.927   9.322   4.983
 5090WAT     H215513   8.008   9.464   4.989
 5091WAT      O15514   4.867   9.696   6.635
 5091WAT     H115515   4.840   9.640   6.713
 5091WAT     H215516   4.802   9.771   6.622
 5092WAT      O15517   8.458   2.597   6.381
 5092WAT     H115518   8.535   2.535   6.395
 5092WAT     H215519   8.432   2.639   6.468
 5093WAT      O15520   8.954   8.253   0.206
 5093WAT     H115521   8.952   8.348   0.237
 5093WAT     H215522   8.914   8.247   0.114
 5094WAT      O15523   8.961   8.561   9.203
 5094WAT     H115524   8.933   8.617   9.281
 5094WAT     H215525   9.061   8.559   9.198
 5095WAT      O15526   1.077   4.056   4.602
 5095WAT     H115527   1.170   4.073   4.633
 5095WAT     H215528   1.076   4.040   4.504
 5096WAT      O15529   9.020   4.580   3.538
 5096WAT     H115530   8.963   4.636   3.478
 5096WAT     H215531   8.999   4.601   3.634
 5097WAT      O15532   8.689   2.319   2.877
 5097WAT     H115533   8.644   2.274   2.800
 5097WAT     H215534   8.744   2.252   2.927
 5098WAT      O15535   9.631   1.371   8.795
 5098WAT     H115536   9.596   1.388   8.887
 5098WAT     H215537   9.555   1.370   8.730
 5099WAT      O15538   1.348   8.057   2.078
 5099WAT     H115539   1.386   8.147   2.099
 5099WAT     H215540   1.292   8.063   1.995
 5100WAT      O15541   6.548   0.193   7.276
 5100WAT     H115542   6.582   0.202   7.182
 5100WAT     H215543   6.604   0.249   7.337
 5101WAT      O15544   9.820   1.275   6.657
 5101WAT     H115545   9.752   1.330   6.609
 5101WAT     H215546   9.906   1.327   6.662
 5102WAT      O15547   7.765   6.347   7.717
 5102WAT     H115548   7.827   6.270   7.726
 5102WAT     H215549   7.747   6.386   7.807
 5103WAT      O15550   8.058   0.688   4.323
 5103WAT     H115551   8.007   0.684   4.236
 5103WAT     H215552   8.133   0.753   4.314
 5104WAT      O15553   1.863   5.378   8.648
 5104WAT     H115554   1.830   5.448   8.585
 5104WAT     H215555   1.924   5.420   8.715
 5105WAT      O15556   2.860   4.140   8.866
 5105WAT     H115557   2.893   4.118   8.774
 5105WAT     H215558   2.795   4.216   8.860
 5106WAT      O15559   2.695   0.265   0.851
 5106WAT     H115560   2.672   0.189   0.790
 5106WAT     H215561   2.731   0.229   0.937
 5107WAT      O15562   3.464   5.466   7.536
 5107WAT     H115563   3.369   5.486   7.559
 5107WAT     H215564   3.468   5.389   7.471
 5108WAT      O15565   5.411   7.151   4.682
 5108WAT     H115566   5.382   7.154   4.777
 5108WAT     H215567   5.337   7.114   4.625
 5109WAT      O15568   7.600   2.469   5.717
 5109WAT     H115569   7.506   2.505   5.719
 5109WAT     H215570   7.643   2.484   5.806
 5110WAT      O15571   8.111   1.879   3.074
 5110WAT     H115572   8.023   1.835   3.053
 5110WAT     H215573   8.105   1.923   3.164
 5111WAT      O15574   7.231   6.815   7.022
 5111WAT     H115575   7.166   6.741   7.037
 5111WAT     H215576   7.248   6.825   6.923
 5112WAT      O15577   1.687   2.411   5.015
 5112WAT     H115578   1.776   2.427   5.057
 5112WAT     H215579   1.692   2.433   4.917
 5113WAT      O15580   3.523   0.120   5.833
 5113WAT     H115581   3.532   0.217   5.858
 5113WAT     H215582   3.438   0.107   5.782
 5114WAT      O15583   2.780   3.073   4.786
 5114WAT     H115584   2.832   2.988   4.772
 5114WAT     H215585   2.691   3.051   4.826
 5115WAT      O15586   9.329   6.931   9.422
 5115WAT     H115587   9.371   7.011   9.379
 5115WAT     H215588   9.313   6.951   9.519
 5116WAT      O15589   4.152   8.792   2.806
 5116WAT     H115590   4.068   8.846   2.810
 5116WAT     H215591   4.214   8.821   2.879
 5117WAT      O15592   3.981   9.561   8.409
 5117WAT     H115593   3.890   9.527   8.386
 5117WAT     H215594   3.984   9.660   8.395
 5118WAT      O15595   1.464   3.696   1.035
 5118WAT     H115596   1.515   3.763   0.980
 5118WAT     H215597   1.520   3.614   1.047
 5119WAT      O15598   6.120   3.468   4.526
 5119WAT     H115599   6.176   3.505   4.600
 5119WAT     H215600   6.109   3.537   4.455
 5120WAT      O15601   2.608   3.173   6.699
 5120WAT     H115602   2.688   3.172   6.639
 5120WAT     H215603   2.577   3.080   6.716
 5121WAT      O15604   8.743   2.643   2.118
 5121WAT     H115605   8.651   2.636   2.079
 5121WAT     H215606   8.791   2.721   2.076
 5122WAT      O15607   9.829   6.246   1.429
 5122WAT     H115608   9.848   6.331   1.380
 5122WAT     H215609   9.913   6.193   1.438
 5123WAT      O15610   6.526   1.234   6.258
 5123WAT     H115611   6.498   1.168   6.328
 5123WAT     H215612   6.594   1.191   6.198
 5124WAT      O15613   9.174   0.187   3.204
 5124WAT     H115614   9.140   0.185   3.298
 5124WAT     H215615   9.111   0.138   3.145
 5125WAT      O15616   7.712   6.324   1.123
 5125WAT     H115617   7.683   6.300   1.030
 5125WAT     H215618   7.776   6.255   1.157
 5126WAT      O15619   6.644   6.263   1.154
 5126WAT     H115620   6.728   6.317   1.149
 5126WAT     H215621   6.589   6.292   1.232
 5127WAT      O15622   5.944   1.981   3.297
 5127WAT     H115623   6.000   2.040   3.239
 5127WAT     H215624   5.920   1.898   3.247
 5128WAT      O15625   1.381   6.079   8.788
 5128WAT     H115626   1.480   6.086   8.773
 5128WAT     H215627   1.363   6.016   8.863
 5129WAT      O15628   8.859   4.582   2.160
 5129WAT     H115629   8.831   4.650   2.227
 5129WAT     H215630   8.877   4.495   2.205
 5130WAT      O15631   6.711   8.255   0.377
 5130WAT     H115632   6.776   8.194   0.422
 5130WAT     H215633   6.646   8.202   0.324
 5131WAT      O15634   8.284   0.811   0.191
 5131WAT     H115635   8.354   0.878   0.167
 5131WAT     H215636   8.321   0.747   0.259
 5132WAT      O15637   0.255   1.454   0.668
 5132WAT     H115638   0.220   1.362   0.686
 5132WAT     H215639   0.182   1.511   0.631
 5133WAT      O15640   1.387   0.759   5.485
 5133WAT     H115641   1.362   0.849   5.450
 5133WAT     H215642   1.470   0.727   5.438
 5134WAT      O15643   9.174   9.715   6.270
 5134WAT     H115644   9.244   9.646   6.285
 5134WAT     H215645   9.136   9.744   6.358
 5135WAT      O15646   6.702   7.125   6.931
 5135WAT     H115647   6.771   7.192   6.907
 5135WAT     H215648   6.738   7.065   7.003
 5136WAT      O15649   8.032   6.901   2.059
 5136WAT     H115650   8.006   6.899   2.155
 5136WAT     H215651   8.028   6.995   2.025
 5137WAT      O15652   8.517   2.971   8.463
 5137WAT     H115653   8.486   3.058   8.501
 5137WAT     H215654   8.467   2.951   8.379
 5138WAT      O15655   1.984   3.344   2.907
 5138WAT     H115656   1.891   3.379   2.908
 5138WAT     H215657   2.042   3.400   2.966
 5139WAT      O15658   5.691   7.657   3.679
 5139WAT     H115659   5.720   7.708   3.760
 5139WAT     H215660   5.753   7.677   3.603
 5140WAT      O15661   3.851   0.181   2.035
 5140WAT     H115662   3.787   0.206   1.962
 5140WAT     H215663   3.830   0.088   2.066
 5141WAT      O15664   2.058   0.954   2.408
 5141WAT     H115665   2.002   0.994   2.480
 5141WAT     H215666   2.075   0.858   2.429
 5142WAT      O15667   9.472   8.236   9.012
 5142WAT     H115668   9.422   8.243   8.925
 5142WAT     H215669   9.542   8.165   9.004
 5143WAT      O15670   6.108   5.571   2.955
 5143WAT     H115671   6.060   5.602   3.037
 5143WAT     H215672   6.157   5.648   2.914
 5144WAT      O15673   4.837   1.327   6.922
 5144WAT     H115674   4.936   1.324   6.909
 5144WAT     H215675   4.814   1.292   7.013
 5145WAT      O15676   1.962   4.249   9.250
 5145WAT     H115677   1.919   4.330   9.288
 5145WAT     H215678   1.906   4.215   9.174
 5146WAT      O15679   5.083   1.187   1.870
 5146WAT     H115680   5.163   1.180   1.811
 5146WAT     H215681   5.086   1.115   1.940
 5147WAT      O15682   3.071   4.411   7.901
 5147WAT     H115683   3.108   4.458   7.821
 5147WAT     H215684   2.971   4.422   7.903
 5148WAT      O15685   8.132   4.221   4.846
 5148WAT     H115686   8.129   4.273   4.761
 5148WAT     H215687   8.042   4.226   4.891
 5149WAT      O15688   6.641   9.065   6.965
 5149WAT     H115689   6.551   9.056   7.007
 5149WAT     H215690   6.687   8.976   6.963
 5150WAT      O15691   9.819   5.654   9.596
 5150WAT     H115692   9.819   5.636   9.497
 5150WAT     H215693   9.887   5.725   9.616
 5151WAT      O15694   5.344   2.185   8.277
 5151WAT     H115695   5.347   2.245   8.197
 5151WAT     H215696   5.253   2.190   8.319
 5152WAT      O15697   6.576   9.223   0.698
 5152WAT     H115698   6.546   9.298   0.757
 5152WAT     H215699   6.529   9.139   0.725
 5153WAT      O15700   8.844   0.453   0.896
 5153WAT     H115701   8.917   0.420   0.837
 5153WAT     H215702   8.771   0.492   0.840
 5154WAT      O15703   8.807   6.372   7.222
 5154WAT     H115704   8.815   6.319   7.137
 5154WAT     H215705   8.804   6.310   7.300
 5155WAT      O15706   2.385   6.140   7.921
 5155WAT     H115707   2.476   6.105   7.896
 5155WAT     H215708   2.316   6.097   7.863
 5156WAT      O15709   0.655   9.205   0.503
 5156WAT     H115710   0.752   9.226   0.487
 5156WAT     H215711   0.616   9.275   0.563
 5157WAT      O15712   0.540   6.473   8.428
 5157WAT     H115713   0.486   6.553   8.452
 5157WAT     H215714   0.495   6.391   8.463
 5158WAT      O15715   0.567   0.435   3.261
 5158WAT     H115716   0.520   0.348   3.278
 5158WAT     H215717   0.502   0.511   3.274
 5159WAT      O15718   4.239   7.834   3.182
 5159WAT     H115719   4.226   7.761   3.115
 5159WAT     H215720   4.299   7.905   3.144
 5160WAT      O15721   1.657   6.594   8.869
 5160WAT     H115722   1.722   6.528   8.832
 5160WAT     H215723   1.707   6.666   8.918
 5161WAT      O15724   1.004   8.933   3.334
 5161WAT     H115725   0.924   8.980   3.371
 5161WAT     H215726   1.034   8.980   3.251
 5162WAT      O15727   6.978   4.633   2.633
 5162WAT     H115728   6.975   4.543   2.677
 5162WAT     H215729   7.066   4.677   2.654
 5163WAT      O15730   7.446   2.952   2.337
 5163WAT     H115731   7.493   2.919   2.255
 5163WAT     H215732   7.484   3.040   2.365
 5164WAT      O15733   3.615   7.752   1.424
 5164WAT     H115734   3.542   7.805   1.380
 5164WAT     H215735   3.629   7.667   1.374
 5165WAT      O15736   3.688   1.960   4.382
 5165WAT     H115737   3.778   1.940   4.420
 5165WAT     H215738   3.676   2.059   4.375
 5166WAT      O15739   4.554   1.734   3.654
 5166WAT     H115740   4.466   1.768   3.623
 5166WAT     H215741   4.591   1.795   3.724
 5167WAT      O15742   7.819   6.480   5.364
 5167WAT     H115743   7.777   6.424   5.436
 5167WAT     H215744   7.912   6.448   5.348
 5168WAT      O15745   3.285   1.323   7.924
 5168WAT     H115746   3.320   1.262   7.995
 5168WAT     H215747   3.205   1.372   7.959
 5169WAT      O15748   0.829   3.158   6.157
 5169WAT     H115749   0.896   3.200   6.219
 5169WAT     H215750   0.872   3.144   6.068
 5170WAT      O15751   5.261   2.716   3.701
 5170WAT     H115752   5.185   2.658   3.732
 5170WAT     H215753   5.224   2.796   3.653
 5171WAT      O15754   9.519   6.822   2.939
 5171WAT     H115755   9.434   6.871   2.961
 5171WAT     H215756   9.533   6.823   2.840
 5172WAT      O15757   7.996   2.017   4.110
 5172WAT     H115758   8.032   1.963   4.034
 5172WAT     H215759   7.988   1.959   4.191
 5173WAT      O15760   5.065   6.465   6.088
 5173WAT     H115761   4.972   6.435   6.072
 5173WAT     H215762   5.077   6.485   6.185
 5174WAT      O15763   6.171   8.319   1.030
 5174WAT     H115764   6.257   8.346   0.988
 5174WAT     H215765   6.134   8.239   0.983
 5175WAT      O15766   0.807   6.907   0.787
 5175WAT     H115767   0.777   6.812   0.793
 5175WAT     H215768   0.728   6.967   0.797
 5176WAT      O15769   6.227   8.788   9.111
 5176WAT     H115770   6.131   8.763   9.109
 5176WAT     H215771   6.251   8.825   9.201
 5177WAT      O15772   4.900   4.968   6.813
 5177WAT     H115773   4.865   5.018   6.892
 5177WAT     H215774   4.927   5.033   6.742
 5178WAT      O15775   5.957   3.272   8.025
 5178WAT     H115776   5.900   3.263   7.943
 5178WAT     H215777   6.015   3.191   8.035
 5179WAT      O15778   3.092   7.623   5.254
 5179WAT     H115779   3.148   7.595   5.176
 5179WAT     H215780   3.052   7.542   5.297
 5180WAT      O15781   2.545   1.459   6.785
 5180WAT     H115782   2.505   1.377   6.824
 5180WAT     H215783   2.643   1.446   6.772
 5181WAT      O15784   4.235   7.680   2.959
 5181WAT     H115785   4.168   7.608   2.940
 5181WAT     H215786   4.294   7.693   2.879
 5182WAT      O15787   3.321   5.586   7.146
 5182WAT     H115788   3.365   5.624   7.065
 5182WAT     H215789   3.293   5.660   7.208
 5183WAT      O15790   8.383   8.278   7.733
 5183WAT     H115791   8.329   8.355   7.767
 5183WAT     H215792   8.321   8.203   7.709
 5184WAT      O15793   9.629   6.789   6.191
 5184WAT     H115794   9.671   6.815   6.104
 5184WAT     H215795   9.536   6.825   6.195
 5185WAT      O15796   8.851   1.381   0.853
 5185WAT     H115797   8.778   1.449   0.849
 5185WAT     H215798   8.900   1.390   0.940
 5186WAT      O15799   9.101   1.078   3.323
 5186WAT     H115800   9.120   1.176   3.311
 5186WAT     H215801   9.113   1.054   3.419
 5187WAT      O15802   9.190   8.190   8.528
 5187WAT     H115803   9.249   8.109   8.531
 5187WAT     H215804   9.173   8.216   8.433
 5188WAT      O15805   7.530   0.181   5.266
 5188WAT     H115806   7.495   0.180   5.172
 5188WAT     H215807   7.627   0.157   5.265
 5189WAT      O15808   9.831   8.929   6.290
 5189WAT     H115809   9.897   8.912   6.363
 5189WAT     H215810   9.780   8.846   6.271
 5190WAT      O15811   6.682   4.182   6.516
 5190WAT     H115812   6.661   4.092   6.479
 5190WAT     H215813   6.641   4.252   6.457
 5191WAT      O15814   1.197   2.067   4.188
 5191WAT     H115815   1.162   1.997   4.250
 5191WAT     H215816   1.216   2.150   4.239
 5192WAT      O15817   9.273   0.138   4.920
 5192WAT     H115818   9.326   0.218   4.893
 5192WAT     H215819   9.328   0.079   4.980
 5193WAT      O15820   8.470   6.838   4.329
 5193WAT     H115821   8.379   6.796   4.323
 5193WAT     H215822   8.497   6.846   4.425
 5194WAT      O15823   0.802   1.434   2.349
 5194WAT     H115824   0.783   1.347   2.304
 5194WAT     H215825   0.717   1.473   2.384
 5195WAT      O15826   7.859   5.741   6.835
 5195WAT     H115827   7.903   5.826   6.806
 5195WAT     H215828   7.796   5.710   6.764
 5196WAT      O15829   4.236   1.561   2.125
 5196WAT     H115830   4.228   1.488   2.057
 5196WAT     H215831   4.288   1.637   2.086
 5197WAT      O15832   2.596   3.860   2.998
 5197WAT     H115833   2.578   3.830   3.092
 5197WAT     H215834   2.543   3.943   2.980
 5198WAT      O15835   5.089   0.592   9.585
 5198WAT     H115836   5.077   0.509   9.639
 5198WAT     H215837   5.143   0.658   9.638
 5199WAT      O15838   3.749   7.973   0.446
 5199WAT     H115839   3.838   7.982   0.491
 5199WAT     H215840   3.704   7.890   0.478
 5200WAT      O15841   9.227   7.944   7.545
 5200WAT     H115842   9.291   8.017   7.520
 5200WAT     H215843   9.279   7.863   7.573
 5201WAT      O15844   7.969   8.832   7.080
 5201WAT     H115845   7.982   8.905   7.147
 5201WAT     H215846   7.894   8.772   7.109
 5202WAT      O15847   4.389   6.414   4.363
 5202WAT     H115848   4.482   6.412   4.327
 5202WAT     H215849   4.339   6.334   4.329
 5203WAT      O15850   2.727   2.707   7.422
 5203WAT     H115851   2.719   2.717   7.323
 5203WAT     H215852   2.796   2.639   7.443
 5204WAT      O15853   4.807   2.239   0.885
 5204WAT     H115854   4.744   2.275   0.816
 5204WAT     H215855   4.812   2.302   0.962
 5205WAT      O15856   1.498   1.660   7.410
 5205WAT     H115857   1.581   1.680   7.460
 5205WAT     H215858   1.501   1.567   7.373
 5206WAT      O15859   9.672   2.658   4.415
 5206WAT     H115860   9.710   2.725   4.478
 5206WAT     H215861   9.577   2.681   4.395
 5207WAT      O15862   4.823   4.328   2.500
 5207WAT     H115863   4.749   4.287   2.447
 5207WAT     H215864   4.910   4.310   2.454
 5208WAT      O15865   2.370   2.022   5.640
 5208WAT     H115866   2.336   1.964   5.714
 5208WAT     H215867   2.295   2.046   5.579
 5209WAT      O15868   7.038   2.263   1.832
 5209WAT     H115869   6.951   2.312   1.843
 5209WAT     H215870   7.037   2.180   1.887
 5210WAT      O15871   6.718   6.570   1.808
 5210WAT     H115872   6.776   6.646   1.837
 5210WAT     H215873   6.692   6.515   1.888
 5211WAT      O15874   7.711   7.716   1.350
 5211WAT     H115875   7.618   7.751   1.357
 5211WAT     H215876   7.751   7.743   1.262
 5212WAT      O15877   0.651   0.982   0.507
 5212WAT     H115878   0.653   0.988   0.607
 5212WAT     H215879   0.697   1.062   0.468
 5213WAT      O15880   2.804   8.471   9.482
 5213WAT     H115881   2.722   8.497   9.533
 5213WAT     H215882   2.879   8.533   9.507
 5214WAT      O15883   3.203   4.201   2.862
 5214WAT     H115884   3.243   4.245   2.942
 5214WAT     H215885   3.149   4.122   2.892
 5215WAT      O15886   6.823   2.415   4.868
 5215WAT     H115887   6.833   2.506   4.908
 5215WAT     H215888   6.792   2.351   4.938
 5216WAT      O15889   5.732   1.324   9.129
 5216WAT     H115890   5.681   1.267   9.064
 5216WAT     H215891   5.749   1.414   9.087
 5217WAT      O15892   8.505   8.385   0.583
 5217WAT     H115893   8.485   8.377   0.486
 5217WAT     H215894   8.448   8.457   0.623
 5218WAT      O15895   3.475   5.153   2.786
 5218WAT     H115896   3.553   5.116   2.735
 5218WAT     H215897   3.459   5.248   2.758
 5219WAT      O15898   2.938   8.622   0.220
 5219WAT     H115899   2.988   8.679   0.155
 5219WAT     H215900   2.996   8.601   0.298
 5220WAT      O15901   2.146   7.151   1.738
 5220WAT     H115902   2.219   7.211   1.705
 5220WAT     H215903   2.102   7.192   1.817
 5221WAT      O15904   8.449   1.016   7.331
 5221WAT     H115905   8.534   0.967   7.313
 5221WAT     H215906   8.401   1.033   7.244
 5222WAT      O15907   8.943   7.126   8.440
 5222WAT     H115908   8.855   7.087   8.414
 5222WAT     H215909   8.931   7.187   8.518
 5223WAT      O15910   4.770   7.266   9.267
 5223WAT     H115911   4.833   7.318   9.324
 5223WAT     H215912   4.800   7.268   9.172
 5224WAT      O15913   2.600   2.959   9.541
 5224WAT     H115914   2.613   2.869   9.501
 5224WAT     H215915   2.502   2.980   9.546
 5225WAT      O15916   1.712   2.503   9.372
 5225WAT     H115917   1.760   2.456   9.447
 5225WAT     H215918   1.719   2.602   9.385
 5226WAT      O15919   9.551   4.916   2.983
 5226WAT     H115920   9.619   4.865   3.035
 5226WAT     H215921   9.475   4.940   3.043
 5227WAT      O15922   8.204   1.607   4.512
 5227WAT     H115923   8.117   1.585   4.556
 5227WAT     H215924   8.198   1.699   4.473
 5228WAT      O15925   7.601   2.845   3.156
 5228WAT     H115926   7.625   2.833   3.060
 5228WAT     H215927   7.552   2.931   3.167
 5229WAT      O15928   9.114   5.643   5.622
 5229WAT     H115929   9.059   5.605   5.547
 5229WAT     H215930   9.088   5.599   5.708
 5230WAT      O15931   1.082   8.279   9.563
 5230WAT     H115932   1.070   8.215   9.487
 5230WAT     H215933   1.002   8.276   9.623
 5231WAT      O15934   5.727   9.418   5.874
 5231WAT     H115935   5.705   9.358   5.797
 5231WAT     H215936   5.645   9.436   5.927
 5232WAT      O15937   0.151   5.886   7.457
 5232WAT     H115938   0.084   5.819   7.490
 5232WAT     H215939   0.215   5.909   7.530
 5233WAT      O15940   3.988   2.013   6.386
 5233WAT     H115941   3.995   2.107   6.353
 5233WAT     H215942   3.987   2.014   6.486
 5234WAT      O15943   2.976   9.273   4.830
 5234WAT     H115944   3.033   9.248   4.908
 5234WAT     H215945   2.897   9.213   4.825
 5235WAT      O15946   8.113   7.053   8.282
 5235WAT     H115947   8.045   7.017   8.219
 5235WAT     H215948   8.096   7.016   8.374
 5236WAT      O15949   1.030   1.203   3.855
 5236WAT     H115950   1.022   1.261   3.774
 5236WAT     H215951   1.012   1.108   3.830
 5237WAT      O15952   7.339   7.006   6.517
 5237WAT     H115953   7.340   7.063   6.436
 5237WAT     H215954   7.365   6.912   6.492
 5238WAT      O15955   4.516   9.011   2.412
 5238WAT     H115956   4.450   8.939   2.435
 5238WAT     H215957   4.467   9.097   2.398
 5239WAT      O15958   1.618   9.451   4.158
 5239WAT     H115959   1.546   9.389   4.192
 5239WAT     H215960   1.575   9.535   4.125
 5240WAT      O15961   4.253   0.491   5.770
 5240WAT     H115962   4.322   0.419   5.765
 5240WAT     H215963   4.297   0.577   5.800
 5241WAT      O15964   2.820   0.454   2.913
 5241WAT     H115965   2.817   0.441   3.012
 5241WAT     H215966   2.913   0.478   2.885
 5242WAT      O15967   6.502   2.936   3.459
 5242WAT     H115968   6.428   2.883   3.501
 5242WAT     H215969   6.499   2.925   3.360
 5243WAT      O15970   9.868   0.236   2.579
 5243WAT     H115971   9.805   0.201   2.648
 5243WAT     H215972   9.866   0.336   2.580
 5244WAT      O15973   2.368   2.543   9.315
 5244WAT     H115974   2.457   2.586   9.301
 5244WAT     H215975   2.378   2.466   9.378
 5245WAT      O15976   4.161   1.685   1.134
 5245WAT     H115977   4.138   1.592   1.162
 5245WAT     H215978   4.225   1.725   1.200
 5246WAT      O15979   2.692   0.349   2.643
 5246WAT     H115980   2.615   0.340   2.580
 5246WAT     H215981   2.666   0.410   2.718
 5247WAT      O15982   0.479   6.585   3.551
 5247WAT     H115983   0.467   6.643   3.632
 5247WAT     H215984   0.431   6.498   3.566
 5248WAT      O15985   2.769   9.102   4.828
 5248WAT     H115986   2.772   9.016   4.778
 5248WAT     H215987   2.695   9.159   4.791
 5249WAT      O15988   8.219   3.508   3.807
 5249WAT     H115989   8.314   3.512   3.837
 5249WAT     H215990   8.195   3.594   3.761
 5250WAT      O15991   3.688   4.415   8.305
 5250WAT     H115992   3.696   4.503   8.352
 5250WAT     H215993   3.655   4.346   8.369
 5251WAT      O15994   7.941   4.033   2.297
 5251WAT     H115995   7.878   4.109   2.312
 5251WAT     H215996   8.034   4.069   2.285
 5252WAT      O15997   8.669   1.921   6.688
 5252WAT     H115998   8.733   1.929   6.611
 5252WAT     H215999   8.717   1.883   6.767
 5253WAT      O16000   9.305   6.692   4.191
 5253WAT     H116001   9.223   6.743   4.215
 5253WAT     H216002   9.336   6.720   4.100
 5254WAT      O16003   4.151   4.092   6.073
 5254WAT     H116004   4.077   4.026   6.065
 5254WAT     H216005   4.125   4.165   6.136
 5255WAT      O16006   4.748   8.066   2.200
 5255WAT     H116007   4.732   8.134   2.129
 5255WAT     H216008   4.699   8.094   2.283
 5256WAT      O16009   7.112   9.147   9.886
 5256WAT     H116010   7.069   9.127   9.799
 5256WAT     H216011   7.178   9.221   9.875
 5257WAT      O16012   1.930   5.823   6.420
 5257WAT     H116013   1.832   5.836   6.438
 5257WAT     H216014   1.974   5.912   6.410
 5258WAT      O16015   9.813   3.770   8.348
 5258WAT     H116016   9.728   3.748   8.301
 5258WAT     H216017   9.792   3.821   8.432
 5259WAT      O16018   2.202   4.763   8.780
 5259WAT     H116019   2.276   4.763   8.846
 5259WAT     H216020   2.125   4.710   8.817
 5260WAT      O16021   0.136   2.503   3.411
 5260WAT     H116022   0.039   2.488   3.393
 5260WAT     H216023   0.171   2.431   3.470
 5261WAT      O16024   1.575   5.599   8.284
 5261WAT     H116025   1.551   5.680   8.230
 5261WAT     H216026   1.620   5.628   8.369
 5262WAT      O16027   4.667   1.709   1.532
 5262WAT     H116028   4.601   1.667   1.595
 5262WAT     H216029   4.756   1.664   1.544
 5263WAT      O16030   8.076   5.435   8.416
 5263WAT     H116031   8.153   5.439   8.353
 5263WAT     H216032   8.045   5.340   8.424
 5264WAT      O16033   1.729   3.537   9.720
 5264WAT     H116034   1.758   3.505   9.630
 5264WAT     H216035   1.631   3.554   9.720
 5265WAT      O16036   5.499   6.564   7.839
 5265WAT     H116037   5.507   6.495   7.911
 5265WAT     H216038   5.568   6.635   7.852
 5266WAT      O16039   8.394   7.232   3.170
 5266WAT     H116040   8.423   7.155   3.225
 5266WAT     H216041   8.342   7.199   3.091
 5267WAT      O16042   1.413   4.896   9.500
 5267WAT     H116043   1.412   4.866   9.595
 5267WAT     H216044   1.446   4.822   9.441
 5268WAT      O16045   5.054   8.666   9.476
 5268WAT     H116046   5.118   8.710   9.414
 5268WAT     H216047   5.016   8.585   9.432
 5269WAT      O16048   0.961   4.177   1.804
 5269WAT     H116049   0.956   4.272   1.774
 5269WAT     H216050   1.013   4.124   1.737
 5270WAT      O16051   8.298   3.302   8.485
 5270WAT     H116052   8.386   3.278   8.526
 5270WAT     H216053   8.309   3.313   8.386
 5271WAT      O16054   7.637   5.353   3.468
 5271WAT     H116055   7.608   5.441   3.506
 5271WAT     H216056   7.685   5.301   3.539
 5272WAT      O16057   7.566   8.214   8.275
 5272WAT     H116058   7.648   8.255   8.234
 5272WAT     H216059   7.487   8.273   8.259
 5273WAT      O16060   2.588   9.402   7.220
 5273WAT     H116061   2.506   9.349   7.195
 5273WAT     H216062   2.630   9.439   7.138
 5274WAT      O16063   2.048   2.879   6.576
 5274WAT     H116064   2.053   2.974   6.545
 5274WAT     H216065   1.978   2.831   6.523
 5275WAT      O16066   4.531   8.198   9.831
 5275WAT     H116067   4.514   8.210   9.733
 5275WAT     H216068   4.447   8.169   9.876
 5276WAT      O16069   2.905   1.192   4.178
 5276WAT     H116070   2.963   1.261   4.221
 5276WAT     H216071   2.958   1.141   4.110
 5277WAT      O16072   2.801   0.802   0.971
 5277WAT     H116073   2.891   0.782   1.009
 5277WAT     H216074   2.733   0.741   1.012
 5278WAT      O16075   3.730   2.700   8.154
 5278WAT     H116076   3.791   2.771   8.190
 5278WAT     H216077   3.669   2.740   8.086
 5279WAT      O16078   0.094   8.619   6.296
 5279WAT     H116079   0.020   8.652   6.238
 5279WAT     H216080   0.165   8.689   6.304
 5280WAT      O16081   9.013   5.433   6.698
 5280WAT     H116082   8.937   5.388   6.651
 5280WAT     H216083   9.035   5.382   6.782
 5281WAT      O16084   3.171   7.223   8.971
 5281WAT     H116085   3.109   7.231   8.893
 5281WAT     H216086   3.178   7.128   8.999
 5282WAT      O16087   3.388   6.313   2.808
 5282WAT     H116088   3.408   6.249   2.735
 5282WAT     H216089   3.334   6.267   2.879
 5283WAT      O16090   4.890   8.083   1.477
 5283WAT     H116091   4.884   8.016   1.551
 5283WAT     H216092   4.841   8.166   1.503
 5284WAT      O16093   8.022   8.280   1.588
 5284WAT     H116094   8.108   8.280   1.536
 5284WAT     H216095   8.020   8.359   1.649
 5285WAT      O16096   1.694   0.062   7.663
 5285WAT     H116097   1.698  -0.027   7.616
 5285WAT     H216098   1.600   0.094   7.665
 5286WAT      O16099   3.168   3.754   2.442
 5286WAT     H116100   3.082   3.741   2.492
 5286WAT     H216101   3.243   3.765   2.507
 5287WAT      O16102   5.419   6.243   7.487
 5287WAT     H116103   5.383   6.232   7.394
 5287WAT     H216104   5.390   6.332   7.523
 5288WAT      O16105   2.205   4.579   0.361
 5288WAT     H116106   2.198   4.548   0.266
 5288WAT     H216107   2.113   4.599   0.396
 5289WAT      O16108   9.187   3.082   4.478
 5289WAT     H116109   9.138   3.166   4.456
 5289WAT     H216110   9.252   3.061   4.405
 5290WAT      O16111   5.597   6.260   3.925
 5290WAT     H116112   5.530   6.186   3.934
 5290WAT     H216113   5.666   6.233   3.857
 5291WAT      O16114   1.917   9.176   8.722
 5291WAT     H116115   2.015   9.193   8.734
 5291WAT     H216116   1.868   9.263   8.719
 5292WAT      O16117   4.328   8.960   6.046
 5292WAT     H116118   4.391   9.021   5.998
 5292WAT     H216119   4.274   8.908   5.979
 5293WAT      O16120   3.162   1.889   3.107
 5293WAT     H116121   3.164   1.988   3.089
 5293WAT     H216122   3.198   1.872   3.199
 5294WAT      O16123   3.584   8.851   2.814
 5294WAT     H116124   3.501   8.800   2.791
 5294WAT     H216125   3.609   8.833   2.909
 5295WAT      O16126   2.023   7.795   3.030
 5295WAT     H116127   1.981   7.829   3.114
 5295WAT     H216128   2.106   7.848   3.010
 5296WAT      O16129   2.835   8.344   5.263
 5296WAT     H116130   2.797   8.284   5.192
 5296WAT     H216131   2.761   8.379   5.320
 5297WAT      O16132   1.289   5.239   1.415
 5297WAT     H116133   1.240   5.275   1.494
 5297WAT     H216134   1.234   5.254   1.333
 5298WAT      O16135   2.982   2.590   3.437
 5298WAT     H116136   2.946   2.595   3.343
 5298WAT     H216137   3.080   2.608   3.435
 5299WAT      O16138   7.395   7.994   2.538
 5299WAT     H116139   7.424   7.977   2.444
 5299WAT     H216140   7.474   8.024   2.592
 5300WAT      O16141   9.758   7.375   6.283
 5300WAT     H116142   9.837   7.319   6.309
 5300WAT     H216143   9.680   7.314   6.264
 5301WAT      O16144   9.402   7.837   6.862
 5301WAT     H116145   9.317   7.848   6.810
 5301WAT     H216146   9.478   7.872   6.808
 5302WAT      O16147   2.144   4.005   2.382
 5302WAT     H116148   2.186   3.936   2.324
 5302WAT     H216149   2.122   4.086   2.327
 5303WAT      O16150   0.853   8.261   9.726
 5303WAT     H116151   0.814   8.288   9.814
 5303WAT     H216152   0.820   8.321   9.654
 5304WAT      O16153   8.615   5.171   3.641
 5304WAT     H116154   8.599   5.184   3.739
 5304WAT     H216155   8.712   5.182   3.622
 5305WAT      O16156   7.283   0.151   1.691
 5305WAT     H116157   7.330   0.203   1.620
 5305WAT     H216158   7.346   0.133   1.766
 5306WAT      O16159   7.614   1.281   2.316
 5306WAT     H116160   7.627   1.313   2.222
 5306WAT     H216161   7.695   1.301   2.370
 5307WAT      O16162   8.512   9.292   4.767
 5307WAT     H116163   8.552   9.303   4.858
 5307WAT     H216164   8.554   9.213   4.721
 5308WAT      O16165   3.599   3.568   7.385
 5308WAT     H116166   3.674   3.543   7.324
 5308WAT     H216167   3.604   3.665   7.407
 5309WAT      O16168   0.570   8.478   5.134
 5309WAT     H116169   0.530   8.388   5.121
 5309WAT     H216170   0.522   8.525   5.209
 5310WAT      O16171   2.358   3.313   0.537
 5310WAT     H116172   2.381   3.357   0.451
 5310WAT     H216173   2.399   3.221   0.540
 5311WAT      O16174   9.263   9.442   5.359
 5311WAT     H116175   9.328   9.381   5.313
 5311WAT     H216176   9.171   9.405   5.351
 5312WAT      O16177   9.047   8.172   7.008
 5312WAT     H116178   8.968   8.231   6.995
 5312WAT     H216179   9.050   8.140   7.102
 5313WAT      O16180   2.176   4.158   9.408
 5313WAT     H116181   2.117   4.193   9.335
 5313WAT     H216182   2.188   4.228   9.478
 5314WAT      O16183   4.286   2.012   2.773
 5314WAT     H116184   4.340   1.996   2.691
 5314WAT     H216185   4.278   1.928   2.825
 5315WAT      O16186   4.360   2.507   2.805
 5315WAT     H116187   4.384   2.422   2.854
 5315WAT     H216188   4.331   2.576   2.872
 5316WAT      O16189   8.838   2.060   2.299
 5316WAT     H116190   8.920   2.035   2.349
 5316WAT     H216191   8.765   2.083   2.364
 5317WAT      O16192   5.622   6.508   3.681
 5317WAT     H116193   5.681   6.434   3.712
 5317WAT     H216194   5.580   6.484   3.593
 5318WAT      O16195   4.268   3.113   0.299
 5318WAT     H116196   4.284   3.015   0.284
 5318WAT     H216197   4.249   3.128   0.396
 5319WAT      O16198   9.726   7.989   6.388
 5319WAT     H116199   9.758   7.955   6.300
 5319WAT     H216200   9.805   8.003   6.448
 5320WAT      O16201   4.946   7.772   2.388
 5320WAT     H116202   4.934   7.743   2.483
 5320WAT     H216203   4.857   7.781   2.344
 5321WAT      O16204   5.592   3.896   0.671
 5321WAT     H116205   5.690   3.919   0.676
 5321WAT     H216206   5.575   3.842   0.589
 5322WAT      O16207   4.448   3.305   3.411
 5322WAT     H116208   4.453   3.296   3.311
 5322WAT     H216209   4.363   3.263   3.443
 5323WAT      O16210   0.481   5.989   0.032
 5323WAT     H116211   0.567   5.993   0.082
 5323WAT     H216212   0.409   6.033   0.085
 5324WAT      O16213   5.344   9.380   4.537
 5324WAT     H116214   5.426   9.325   4.553
 5324WAT     H216215   5.355   9.433   4.453
 5325WAT      O16216   6.147   4.485   1.812
 5325WAT     H116217   6.117   4.399   1.772
 5325WAT     H216218   6.094   4.560   1.772
 5326WAT      O16219   6.537   6.706   9.124
 5326WAT     H116220   6.488   6.753   9.198
 5326WAT     H216221   6.559   6.771   9.052
 5327WAT      O16222   3.993   5.239   0.033
 5327WAT     H116223   4.023   5.264   0.126
 5327WAT     H216224   3.896   5.261   0.023
 5328WAT      O16225   3.700   3.685   8.193
 5328WAT     H116226   3.706   3.725   8.285
 5328WAT     H216227   3.750   3.598   8.191
 5329WAT      O16228   7.236   4.367   2.389
 5329WAT     H116229   7.237   4.351   2.488
 5329WAT     H216230   7.188   4.453   2.370
 5330WAT      O16231   6.246   9.287   4.616
 5330WAT     H116232   6.164   9.324   4.660
 5330WAT     H216233   6.256   9.326   4.525
 5331WAT      O16234   5.066   2.896   9.811
 5331WAT     H116235   5.153   2.861   9.775
 5331WAT     H216236   5.000   2.903   9.736
 5332WAT      O16237   5.575   4.298   8.157
 5332WAT     H116238   5.655   4.250   8.121
 5332WAT     H216239   5.600   4.345   8.242
 5333WAT      O16240   5.412   0.591   9.191
 5333WAT     H116241   5.416   0.491   9.190
 5333WAT     H216242   5.408   0.623   9.286
 5334WAT      O16243   6.958   5.217   4.703
 5334WAT     H116244   6.881   5.155   4.717
 5334WAT     H216245   7.043   5.168   4.722
 5335WAT      O16246   7.924   0.288   9.300
 5335WAT     H116247   7.948   0.352   9.374
 5335WAT     H216248   7.831   0.307   9.269
 5336WAT      O16249   3.467   1.761   9.437
 5336WAT     H116250   3.475   1.767   9.337
 5336WAT     H216251   3.421   1.842   9.472
 5337WAT      O16252   6.737   7.755   6.148
 5337WAT     H116253   6.774   7.843   6.119
 5337WAT     H216254   6.674   7.720   6.079
 5338WAT      O16255   7.694   4.170   7.510
 5338WAT     H116256   7.629   4.096   7.493
 5338WAT     H216257   7.674   4.214   7.597
 5339WAT      O16258   0.008   1.158   3.052
 5339WAT     H116259  -0.017   1.072   3.098
 5339WAT     H216260  -0.043   1.233   3.093
 5340WAT      O16261   4.994   4.122   7.581
 5340WAT     H116262   4.971   4.039   7.530
 5340WAT     H216263   4.946   4.122   7.668
 5341WAT      O16264   7.952   1.497   9.633
 5341WAT     H116265   7.946   1.469   9.537
 5341WAT     H216266   7.984   1.420   9.689
 5342WAT      O16267   2.934   7.163   2.646
 5342WAT     H116268   2.922   7.262   2.657
 5342WAT     H216269   2.894   7.115   2.723
 5343WAT      O16270   5.946   7.577   7.841
 5343WAT     H116271   6.018   7.548   7.903
 5343WAT     H216272   5.858   7.542   7.873
 5344WAT      O16273   3.803   1.759   6.906
 5344WAT     H116274   3.811   1.853   6.873
 5344WAT     H216275   3.846   1.752   6.996
 5345WAT      O16276   8.507   5.315   0.606
 5345WAT     H116277   8.461   5.238   0.650
 5345WAT     H216278   8.460   5.337   0.521
 5346WAT      O16279   0.721   9.404   3.289
 5346WAT     H116280   0.707   9.364   3.198
 5346WAT     H216281   0.671   9.489   3.297
 5347WAT      O16282   7.527   1.554   8.934
 5347WAT     H116283   7.584   1.599   9.003
 5347WAT     H216284   7.569   1.563   8.844
 5348WAT      O16285   8.283   1.805   7.995
 5348WAT     H116286   8.317   1.898   8.009
 5348WAT     H216287   8.189   1.809   7.961
 5349WAT      O16288   0.508   0.146   5.332
 5349WAT     H116289   0.545   0.056   5.311
 5349WAT     H216290   0.580   0.202   5.374
 5350WAT      O16291   9.628   0.601   5.850
 5350WAT     H116292   9.653   0.562   5.761
 5350WAT     H216293   9.601   0.696   5.838
 5351WAT      O16294   9.274   0.110   9.181
 5351WAT     H116295   9.234   0.070   9.098
 5351WAT     H216296   9.362   0.152   9.158
 5352WAT      O16297   2.892   1.065   3.869
 5352WAT     H116298   2.796   1.066   3.896
 5352WAT     H216299   2.916   0.975   3.832
 5353WAT      O16300   2.684   1.179   7.829
 5353WAT     H116301   2.728   1.089   7.834
 5353WAT     H216302   2.598   1.177   7.881
 5354WAT      O16303   8.472   1.678   9.876
 5354WAT     H116304   8.462   1.579   9.880
 5354WAT     H216305   8.383   1.720   9.860
 5355WAT      O16306   2.607   0.672   9.534
 5355WAT     H116307   2.550   0.675   9.451
 5355WAT     H216308   2.601   0.581   9.575
 5356WAT      O16309   3.340   4.736   9.429
 5356WAT     H116310   3.418   4.772   9.480
 5356WAT     H216311   3.257   4.746   9.484
 5357WAT      O16312   2.180   5.596   5.802
 5357WAT     H116313   2.215   5.503   5.789
 5357WAT     H216314   2.093   5.606   5.754
 5358WAT      O16315   2.236   4.531   2.695
 5358WAT     H116316   2.298   4.609   2.684
 5358WAT     H216317   2.144   4.558   2.666
 5359WAT      O16318   6.556   7.695   6.576
 5359WAT     H116319   6.600   7.767   6.629
 5359WAT     H216320   6.530   7.620   6.636
 5360WAT      O16321   5.572   0.012   2.827
 5360WAT     H116322   5.507   0.006   2.904
 5360WAT     H216323   5.618   0.101   2.830
 5361WAT      O16324   6.471   0.032   3.117
 5361WAT     H116325   6.538   0.071   3.180
 5361WAT     H216326   6.456   0.095   3.041
 5362WAT      O16327   6.984   9.211   8.122
 5362WAT     H116328   7.041   9.151   8.065
 5362WAT     H216329   6.971   9.298   8.076
 5363WAT      O16330   9.874   8.376   3.644
 5363WAT     H116331   9.786   8.334   3.668
 5363WAT     H216332   9.947   8.309   3.657
 5364WAT      O16333   2.822   2.473   1.737
 5364WAT     H116334   2.804   2.503   1.643
 5364WAT     H216335   2.735   2.451   1.781
 5365WAT      O16336   9.061   2.685   3.085
 5365WAT     H116337   9.095   2.774   3.117
 5365WAT     H216338   9.035   2.629   3.163
 5366WAT      O16339   9.765   4.588   6.032
 5366WAT     H116340   9.749   4.633   5.945
 5366WAT     H216341   9.701   4.511   6.043
 5367WAT      O16342   3.279   0.601   9.412
 5367WAT     H116343   3.365   0.549   9.410
 5367WAT     H216344   3.237   0.599   9.321
 5368WAT      O16345   3.271   6.117   3.319
 5368WAT     H116346   3.209   6.052   3.274
 5368WAT     H216347   3.320   6.169   3.250
 5369WAT      O16348   5.709   3.424   4.039
 5369WAT     H116349   5.741   3.340   4.084
 5369WAT     H216350   5.622   3.406   3.994
 5370WAT      O16351   2.379   0.294   9.576
 5370WAT     H116352   2.434   0.213   9.559
 5370WAT     H216353   2.319   0.278   9.654
 5371WAT      O16354   3.743   9.299   6.365
 5371WAT     H116355   3.698   9.215   6.334
 5371WAT     H216356   3.777   9.286   6.458
 5372WAT      O16357   3.380   0.479   8.975
 5372WAT     H116358   3.341   0.438   8.893
 5372WAT     H216359   3.451   0.545   8.950
 5373WAT      O16360   6.918   2.923   0.401
 5373WAT     H116361   6.905   2.918   0.500
 5373WAT     H216362   6.901   3.017   0.370
 5374WAT      O16363   9.509   2.017   6.743
 5374WAT     H116364   9.554   2.105   6.726
 5374WAT     H216365   9.413   2.022   6.714
 5375WAT      O16366   9.544   5.810   2.023
 5375WAT     H116367   9.507   5.885   1.968
 5375WAT     H216368   9.572   5.735   1.963
 5376WAT      O16369   7.359   1.348   6.287
 5376WAT     H116370   7.268   1.386   6.303
 5376WAT     H216371   7.414   1.357   6.370
 5377WAT      O16372   1.977   0.257   3.245
 5377WAT     H116373   1.898   0.259   3.307
 5377WAT     H216374   2.007   0.350   3.226
 5378WAT      O16375   2.636   9.104   6.027
 5378WAT     H116376   2.566   9.034   6.038
 5378WAT     H216377   2.640   9.161   6.109
 5379WAT      O16378   2.819   5.190   6.949
 5379WAT     H116379   2.806   5.272   6.894
 5379WAT     H216380   2.914   5.161   6.943
 5380WAT      O16381   9.766   8.418   0.452
 5380WAT     H116382   9.745   8.516   0.458
 5380WAT     H216383   9.702   8.368   0.511
 5381WAT      O16384   4.400   1.519   5.156
 5381WAT     H116385   4.478   1.460   5.139
 5381WAT     H216386   4.393   1.588   5.084
 5382WAT      O16387   6.685   4.915   2.811
 5382WAT     H116388   6.696   4.958   2.901
 5382WAT     H216389   6.653   4.984   2.745
 5383WAT      O16390   0.159   6.904   9.503
 5383WAT     H116391   0.114   6.815   9.502
 5383WAT     H216392   0.245   6.897   9.553
 5384WAT      O16393   0.248   5.343   4.465
 5384WAT     H116394   0.196   5.423   4.435
 5384WAT     H216395   0.303   5.367   4.545
 5385WAT      O16396   4.709   9.616   3.236
 5385WAT     H116397   4.759   9.643   3.318
 5385WAT     H216398   4.618   9.659   3.237
 5386WAT      O16399   5.126   4.455   2.309
 5386WAT     H116400   5.116   4.358   2.289
 5386WAT     H216401   5.215   4.487   2.276
 5387WAT      O16402   0.564   0.390   5.115
 5387WAT     H116403   0.516   0.478   5.114
 5387WAT     H216404   0.617   0.381   5.199
 5388WAT      O16405   5.786   8.051   2.371
 5388WAT     H116406   5.785   7.954   2.395
 5388WAT     H216407   5.832   8.103   2.443
 5389WAT      O16408   3.292   6.302   2.494
 5389WAT     H116409   3.307   6.231   2.562
 5389WAT     H216410   3.248   6.381   2.537
 5390WAT      O16411   3.020   6.000   7.542
 5390WAT     H116412   3.073   6.075   7.501
 5390WAT     H216413   2.923   6.017   7.527
 5391WAT      O16414   1.582   9.098   2.599
 5391WAT     H116415   1.650   9.142   2.657
 5391WAT     H216416   1.522   9.041   2.656
 5392WAT      O16417   4.669   3.496   2.024
 5392WAT     H116418   4.602   3.559   1.983
 5392WAT     H216419   4.637   3.402   2.014
 5393WAT      O16420   3.138   2.366   0.983
 5393WAT     H116421   3.113   2.424   0.905
 5393WAT     H216422   3.163   2.275   0.950
 5394WAT      O16423   6.624   7.268   2.117
 5394WAT     H116424   6.568   7.291   2.196
 5394WAT     H216425   6.685   7.344   2.095
 5395WAT      O16426   8.157   0.541   0.946
 5395WAT     H116427   8.068   0.499   0.965
 5395WAT     H216428   8.188   0.514   0.856
 5396WAT      O16429   3.908   3.938   2.950
 5396WAT     H116430   3.992   3.927   3.005
 5396WAT     H216431   3.913   4.025   2.901
 5397WAT      O16432   0.597   1.961   0.380
 5397WAT     H116433   0.639   2.032   0.437
 5397WAT     H216434   0.667   1.915   0.326
 5398WAT      O16435   4.677   3.095   9.109
 5398WAT     H116436   4.690   3.069   9.204
 5398WAT     H216437   4.580   3.118   9.093
 5399WAT      O16438   2.002   1.706   4.204
 5399WAT     H116439   2.034   1.798   4.228
 5399WAT     H216440   2.026   1.643   4.278
 5400WAT      O16441   5.605   4.363   8.896
 5400WAT     H116442   5.660   4.439   8.931
 5400WAT     H216443   5.662   4.280   8.892
 5401WAT      O16444   9.418   1.156   2.941
 5401WAT     H116445   9.354   1.082   2.919
 5401WAT     H216446   9.462   1.136   3.029
 5402WAT      O16447   6.400   0.700   2.315
 5402WAT     H116448   6.480   0.708   2.374
 5402WAT     H216449   6.318   0.719   2.368
 5403WAT      O16450   0.449   0.280   0.749
 5403WAT     H116451   0.364   0.230   0.739
 5403WAT     H216452   0.491   0.293   0.659
 5404WAT      O16453   3.134   1.609   3.027
 5404WAT     H116454   3.160   1.699   3.061
 5404WAT     H216455   3.035   1.597   3.034
 5405WAT      O16456   3.306   3.447   0.562
 5405WAT     H116457   3.287   3.469   0.658
 5405WAT     H216458   3.239   3.382   0.528
 5406WAT      O16459   0.257   2.528   9.200
 5406WAT     H116460   0.312   2.612   9.205
 5406WAT     H216461   0.184   2.540   9.133
 5407WAT      O16462   0.714   4.921   0.340
 5407WAT     H116463   0.712   4.839   0.398
 5407WAT     H216464   0.809   4.951   0.329
 5408WAT      O16465   0.385   4.719   6.699
 5408WAT     H116466   0.307   4.704   6.759
 5408WAT     H216467   0.462   4.756   6.751
 5409WAT      O16468   9.290   9.162   2.391
 5409WAT     H116469   9.219   9.205   2.335
 5409WAT     H216470   9.254   9.145   2.483
 5410WAT      O16471   8.382   2.247   2.446
 5410WAT     H116472   8.403   2.323   2.508
 5410WAT     H216473   8.345   2.170   2.498
 5411WAT      O16474   1.031   7.886   6.873
 5411WAT     H116475   1.064   7.804   6.826
 5411WAT     H216476   0.944   7.865   6.919
 5412WAT      O16477   4.479   0.586   4.979
 5412WAT     H116478   4.461   0.644   5.058
 5412WAT     H216479   4.498   0.493   5.010
 5413WAT      O16480   6.091   1.894   8.800
 5413WAT     H116481   6.112   1.948   8.719
 5413WAT     H216482   6.039   1.949   8.865
 5414WAT      O16483   5.242   9.063   1.806
 5414WAT     H116484   5.306   9.103   1.872
 5414WAT     H216485   5.293   9.026   1.729
 5415WAT      O16486   8.889   4.371   1.802
 5415WAT     H116487   8.941   4.378   1.887
 5415WAT     H216488   8.905   4.281   1.760
 5416WAT      O16489   1.136   2.013   7.316
 5416WAT     H116490   1.185   1.939   7.363
 5416WAT     H216491   1.110   1.982   7.225
 5417WAT      O16492   6.704   2.941   3.161
 5417WAT     H116493   6.620   2.940   3.108
 5417WAT     H216494   6.748   2.851   3.156
 5418WAT      O16495   8.521   0.724   1.117
 5418WAT     H116496   8.431   0.721   1.159
 5418WAT     H216497   8.576   0.796   1.160
 5419WAT      O16498   1.866   9.509   1.693
 5419WAT     H116499   1.938   9.560   1.740
 5419WAT     H216500   1.779   9.524   1.738
 5420WAT      O16501   0.466   4.456   6.172
 5420WAT     H116502   0.506   4.453   6.080
 5420WAT     H216503   0.527   4.412   6.237
 5421WAT      O16504   3.950   7.386   1.646
 5421WAT     H116505   3.932   7.445   1.725
 5421WAT     H216506   3.961   7.443   1.565
 5422WAT      O16507   7.478   2.188   3.396
 5422WAT     H116508   7.406   2.239   3.348
 5422WAT     H216509   7.567   2.214   3.359
 5423WAT      O16510   0.007   4.961   9.654
 5423WAT     H116511   0.027   4.965   9.556
 5423WAT     H216512  -0.055   4.884   9.672
 5424WAT      O16513   6.761   9.287   2.676
 5424WAT     H116514   6.846   9.247   2.640
 5424WAT     H216515   6.694   9.214   2.691
 5425WAT      O16516   2.441   9.263   0.843
 5425WAT     H116517   2.436   9.184   0.904
 5425WAT     H216518   2.518   9.252   0.780
 5426WAT      O16519   8.266   1.018   1.876
 5426WAT     H116520   8.246   1.114   1.859
 5426WAT     H216521   8.365   1.006   1.886
 5427WAT      O16522   4.601   0.075   3.351
 5427WAT     H116523   4.563  -0.013   3.326
 5427WAT     H216524   4.635   0.122   3.270
 5428WAT      O16525   5.165   3.555   9.817
 5428WAT     H116526   5.253   3.553   9.864
 5428WAT     H216527   5.135   3.462   9.798
 5429WAT      O16528   8.603   1.724   5.805
 5429WAT     H116529   8.563   1.785   5.737
 5429WAT     H216530   8.667   1.774   5.863
 5430WAT      O16531   9.450   9.058   7.181
 5430WAT     H116532   9.395   9.029   7.103
 5430WAT     H216533   9.527   9.114   7.149
 5431WAT      O16534   8.428   7.703   3.020
 5431WAT     H116535   8.505   7.666   3.072
 5431WAT     H216536   8.435   7.803   3.015
 5432WAT      O16537   5.968   2.842   7.276
 5432WAT     H116538   6.032   2.883   7.211
 5432WAT     H216539   5.874   2.859   7.245
 5433WAT      O16540   6.528   3.651   7.051
 5433WAT     H116541   6.590   3.575   7.068
 5433WAT     H216542   6.457   3.654   7.121
 5434WAT      O16543   7.086   9.510   4.804
 5434WAT     H116544   7.152   9.447   4.765
 5434WAT     H216545   7.125   9.602   4.806
 5435WAT      O16546   7.709   3.580   4.027
 5435WAT     H116547   7.684   3.632   4.109
 5435WAT     H216548   7.628   3.572   3.968
 5436WAT      O16549   9.650   7.268   0.395
 5436WAT     H116550   9.725   7.307   0.449
 5436WAT     H216551   9.650   7.169   0.406
 5437WAT      O16552   1.313   1.267   6.433
 5437WAT     H116553   1.384   1.337   6.430
 5437WAT     H216554   1.256   1.282   6.514
 5438WAT      O16555   1.068   7.232   9.403
 5438WAT     H116556   0.969   7.234   9.397
 5438WAT     H216557   1.096   7.205   9.495
 5439WAT      O16558   3.322   1.982   9.549
 5439WAT     H116559   3.236   2.012   9.507
 5439WAT     H216560   3.334   2.028   9.636
 5440WAT      O16561   1.333   9.007   8.982
 5440WAT     H116562   1.274   8.950   8.924
 5440WAT     H216563   1.427   8.973   8.978
 5441WAT      O16564   6.064   5.831   8.930
 5441WAT     H116565   6.058   5.731   8.931
 5441WAT     H216566   6.118   5.861   8.851
 5442WAT      O16567   9.467   4.784   2.476
 5442WAT     H116568   9.436   4.704   2.424
 5442WAT     H216569   9.519   4.845   2.416
 5443WAT      O16570   2.166   1.858   6.254
 5443WAT     H116571   2.142   1.953   6.274
 5443WAT     H216572   2.252   1.835   6.299
 5444WAT      O16573   1.354   7.519   0.790
 5444WAT     H116574   1.329   7.613   0.769
 5444WAT     H216575   1.282   7.476   0.845
 5445WAT      O16576   5.240   8.606   1.297
 5445WAT     H116577   5.211   8.539   1.366
 5445WAT     H216578   5.205   8.579   1.208
 5446WAT      O16579   1.814   9.798   6.794
 5446WAT     H116580   1.839   9.832   6.703
 5446WAT     H216581   1.896   9.788   6.850
 5447WAT      O16582   0.294   3.972   7.171
 5447WAT     H116583   0.213   4.027   7.191
 5447WAT     H216584   0.375   4.014   7.214
 5448WAT      O16585   4.258   2.828   4.567
 5448WAT     H116586   4.319   2.868   4.635
 5448WAT     H216587   4.241   2.893   4.494
 5449WAT      O16588   9.336   4.989   3.128
 5449WAT     H116589   9.305   5.068   3.180
 5449WAT     H216590   9.262   4.958   3.067
 5450WAT      O16591   5.264   8.491   3.540
 5450WAT     H116592   5.191   8.505   3.472
 5450WAT     H216593   5.299   8.398   3.532
 5451WAT      O16594   5.174   6.105   3.464
 5451WAT     H116595   5.243   6.123   3.394
 5451WAT     H216596   5.188   6.167   3.541
 5452WAT      O16597   6.210   6.430   9.303
 5452WAT     H116598   6.132   6.385   9.258
 5452WAT     H216599   6.277   6.456   9.234
 5453WAT      O16600   0.883   5.597   7.658
 5453WAT     H116601   0.855   5.625   7.749
 5453WAT     H216602   0.968   5.644   7.633
 5454WAT      O16603   7.586   0.349   6.410
 5454WAT     H116604   7.667   0.407   6.415
 5454WAT     H216605   7.520   0.376   6.480
 5455WAT      O16606   7.554   3.293   6.330
 5455WAT     H116607   7.590   3.240   6.406
 5455WAT     H216608   7.479   3.242   6.287
 5456WAT      O16609   1.379   3.319   1.025
 5456WAT     H116610   1.315   3.268   1.082
 5456WAT     H216611   1.361   3.417   1.034
 5457WAT      O16612   1.902   4.188   6.180
 5457WAT     H116613   1.803   4.198   6.168
 5457WAT     H216614   1.949   4.227   6.100
 5458WAT      O16615   9.692   7.290   8.259
 5458WAT     H116616   9.627   7.251   8.194
 5458WAT     H216617   9.655   7.280   8.352
 5459WAT      O16618   7.392   8.141   2.959
 5459WAT     H116619   7.349   8.069   2.904
 5459WAT     H216620   7.332   8.221   2.962
 5460WAT      O16621   3.932   5.834   2.075
 5460WAT     H116622   3.944   5.816   1.977
 5460WAT     H216623   4.011   5.799   2.125
 5461WAT      O16624   2.055   2.735   5.853
 5461WAT     H116625   2.062   2.636   5.843
 5461WAT     H216626   1.997   2.773   5.782
 5462WAT      O16627   0.379   1.887   3.252
 5462WAT     H116628   0.452   1.872   3.319
 5462WAT     H216629   0.358   1.985   3.248
 5463WAT      O16630   9.318   5.319   4.284
 5463WAT     H116631   9.314   5.229   4.328
 5463WAT     H216632   9.226   5.355   4.272
 5464WAT      O16633   0.553   1.045   3.475
 5464WAT     H116634   0.494   1.082   3.546
 5464WAT     H216635   0.531   1.088   3.388
 5465WAT      O16636   5.644   0.817   6.952
 5465WAT     H116637   5.656   0.888   7.021
 5465WAT     H216638   5.573   0.753   6.981
 5466WAT      O16639   5.251   5.432   2.177
 5466WAT     H116640   5.332   5.456   2.231
 5466WAT     H216641   5.172   5.483   2.212
 5467WAT      O16642   6.991   5.201   6.190
 5467WAT     H116643   7.061   5.132   6.207
 5467WAT     H216644   6.911   5.181   6.247
 5468WAT      O16645   5.740   5.274   9.259
 5468WAT     H116646   5.645   5.247   9.241
 5468WAT     H216647   5.756   5.273   9.358
 5469WAT      O16648   7.809   7.057   1.672
 5469WAT     H116649   7.860   6.976   1.641
 5469WAT     H216650   7.735   7.028   1.733
 5470WAT      O16651   5.548   7.423   2.916
 5470WAT     H116652   5.605   7.387   2.990
 5470WAT     H216653   5.452   7.412   2.939
 5471WAT      O16654   8.987   6.882   3.582
 5471WAT     H116655   9.041   6.962   3.610
 5471WAT     H216656   8.978   6.819   3.659
 5472WAT      O16657   0.649   9.121   4.008
 5472WAT     H116658   0.554   9.118   3.977
 5472WAT     H216659   0.656   9.176   4.091
 5473WAT      O16660   6.429   9.720   9.378
 5473WAT     H116661   6.519   9.701   9.415
 5473WAT     H216662   6.397   9.640   9.327
 5474WAT      O16663   5.099   4.776   1.726
 5474WAT     H116664   5.161   4.701   1.703
 5474WAT     H216665   5.094   4.785   1.825
 5475WAT      O16666   4.801   0.291   9.322
 5475WAT     H116667   4.834   0.382   9.348
 5475WAT     H216668   4.858   0.255   9.248
 5476WAT      O16669   3.831   7.385   4.098
 5476WAT     H116670   3.866   7.456   4.160
 5476WAT     H216671   3.731   7.383   4.104
 5477WAT      O16672   1.960   6.090   1.525
 5477WAT     H116673   1.926   6.158   1.460
 5477WAT     H216674   2.050   6.057   1.495
 5478WAT      O16675   5.626   2.168   2.164
 5478WAT     H116676   5.540   2.216   2.184
 5478WAT     H216677   5.703   2.228   2.187
 5479WAT      O16678   8.754   7.598   7.975
 5479WAT     H116679   8.759   7.696   7.994
 5479WAT     H216680   8.764   7.547   8.060
 5480WAT      O16681   3.236   0.341   1.119
 5480WAT     H116682   3.298   0.418   1.105
 5480WAT     H216683   3.141   0.372   1.109
 5481WAT      O16684   6.053   9.220   2.690
 5481WAT     H116685   6.153   9.219   2.685
 5481WAT     H216686   6.020   9.314   2.685
 5482WAT      O16687   8.858   2.558   1.158
 5482WAT     H116688   8.867   2.609   1.073
 5482WAT     H216689   8.787   2.488   1.147
 5483WAT      O16690   1.348   7.697   4.982
 5483WAT     H116691   1.436   7.721   5.024
 5483WAT     H216692   1.278   7.692   5.053
 5484WAT      O16693   3.023   6.532   6.540
 5484WAT     H116694   3.057   6.554   6.632
 5484WAT     H216695   3.008   6.617   6.489
 5485WAT      O16696   0.205   4.571   9.152
 5485WAT     H116697   0.203   4.590   9.054
 5485WAT     H216698   0.279   4.624   9.194
 5486WAT      O16699   1.889   4.050   0.058
 5486WAT     H116700   1.980   4.017   0.034
 5486WAT     H216701   1.857   4.114  -0.012
 5487WAT      O16702   3.941   3.924   4.408
 5487WAT     H116703   3.859   3.944   4.354
 5487WAT     H216704   3.968   4.006   4.459
 5488WAT      O16705   5.765   7.495   0.755
 5488WAT     H116706   5.797   7.582   0.715
 5488WAT     H216707   5.665   7.495   0.757
 5489WAT      O16708   3.835   1.706   9.536
 5489WAT     H116709   3.763   1.653   9.492
 5489WAT     H216710   3.910   1.646   9.560
 5490WAT      O16711   6.462   6.445   0.922
 5490WAT     H116712   6.433   6.534   0.956
 5490WAT     H216713   6.558   6.429   0.948
 5491WAT      O16714   3.167   6.616   1.493
 5491WAT     H116715   3.072   6.584   1.486
 5491WAT     H216716   3.229   6.538   1.492
 5492WAT      O16717   2.651   6.783   7.553
 5492WAT     H116718   2.566   6.778   7.501
 5492WAT     H216719   2.639   6.842   7.633
 5493WAT      O16720   5.832   6.215   7.225
 5493WAT     H116721   5.845   6.270   7.308
 5493WAT     H216722   5.919   6.175   7.198
 5494WAT      O16723   9.531   7.797   4.597
 5494WAT     H116724   9.540   7.897   4.603
 5494WAT     H216725   9.571   7.756   4.679
 5495WAT      O16726   9.041   5.164   2.255
 5495WAT     H116727   9.077   5.155   2.348
 5495WAT     H216728   9.106   5.215   2.199
 5496WAT      O16729   5.483   3.356   5.267
 5496WAT     H116730   5.385   3.372   5.263
 5496WAT     H216731   5.526   3.388   5.183
 5497WAT      O16732   5.377   9.198   6.111
 5497WAT     H116733   5.378   9.125   6.179
 5497WAT     H216734   5.283   9.226   6.093
 5498WAT      O16735   8.554   2.398   0.161
 5498WAT     H116736   8.499   2.317   0.180
 5498WAT     H216737   8.568   2.450   0.245
 5499WAT      O16738   1.833   9.259   0.853
 5499WAT     H116739   1.819   9.213   0.941
 5499WAT     H216740   1.930   9.277   0.839
 5500WAT      O16741   1.563   9.526   3.780
 5500WAT     H116742   1.587   9.577   3.863
 5500WAT     H216743   1.585   9.429   3.793
 5501WAT      O16744   4.944   5.708   2.400
 5501WAT     H116745   4.847   5.698   2.422
 5501WAT     H216746   4.965   5.658   2.316
 5502WAT      O16747   6.514   0.930   9.739
 5502WAT     H116748   6.418   0.919   9.763
 5502WAT     H216749   6.524   1.008   9.677
 5503WAT      O16750   3.562   6.432   6.158
 5503WAT     H116751   3.658   6.421   6.182
 5503WAT     H216752   3.539   6.368   6.084
 5504WAT      O16753   5.548   2.638   0.214
 5504WAT     H116754   5.547   2.661   0.116
 5504WAT     H216755   5.461   2.594   0.238
 5505WAT      O16756   5.180   5.646   4.937
 5505WAT     H116757   5.278   5.656   4.926
 5505WAT     H216758   5.140   5.614   4.851
 5506WAT      O16759   2.680   3.480   7.930
 5506WAT     H116760   2.678   3.443   8.023
 5506WAT     H216761   2.608   3.549   7.920
 5507WAT      O16762   5.666   1.525   1.549
 5507WAT     H116763   5.610   1.571   1.617
 5507WAT     H216764   5.655   1.426   1.558
 5508WAT      O16765   9.673   3.306   8.476
 5508WAT     H116766   9.771   3.321   8.463
 5508WAT     H216767   9.655   3.283   8.572
 5509WAT      O16768   5.756   8.630   5.060
 5509WAT     H116769   5.755   8.530   5.060
 5509WAT     H216770   5.690   8.665   4.994
 5510WAT      O16771   9.774   5.245   8.358
 5510WAT     H116772   9.771   5.308   8.435
 5510WAT     H216773   9.803   5.155   8.388
 5511WAT      O16774   4.811   6.120   0.533
 5511WAT     H116775   4.852   6.066   0.606
 5511WAT     H216776   4.864   6.204   0.520
 5512WAT      O16777   7.409   6.125   1.570
 5512WAT     H116778   7.445   6.059   1.504
 5512WAT     H216779   7.312   6.109   1.584
 5513WAT      O16780   7.535   3.158   2.528
 5513WAT     H116781   7.462   3.173   2.596
 5513WAT     H216782   7.620   3.136   2.575
 5514WAT      O16783   0.019   4.015   5.064
 5514WAT     H116784   0.035   4.113   5.076
 5514WAT     H216785   0.002   3.972   5.153
 5515WAT      O16786   7.454   2.514   6.158
 5515WAT     H116787   7.518   2.458   6.105
 5515WAT     H216788   7.426   2.594   6.105
 5516WAT      O16789   0.920   4.227   7.113
 5516WAT     H116790   0.877   4.271   7.192
 5516WAT     H216791   1.019   4.227   7.125
 5517WAT      O16792   1.659   7.341   6.805
 5517WAT     H116793   1.732   7.398   6.768
 5517WAT     H216794   1.666   7.337   6.904
 5518WAT      O16795   3.449   8.215   7.040
 5518WAT     H116796   3.493   8.303   7.027
 5518WAT     H216797   3.498   8.163   7.110
 5519WAT      O16798   3.226   9.434   4.384
 5519WAT     H116799   3.176   9.390   4.459
 5519WAT     H216800   3.160   9.471   4.318
 5520WAT      O16801   1.594   5.201   4.455
 5520WAT     H116802   1.591   5.262   4.534
 5520WAT     H216803   1.681   5.152   4.454
 5521WAT      O16804   1.032   5.681   1.218
 5521WAT     H116805   1.069   5.742   1.288
 5521WAT     H216806   1.078   5.699   1.131
 5522WAT      O16807   7.219   1.881   9.398
 5522WAT     H116808   7.267   1.953   9.449
 5522WAT     H216809   7.277   1.849   9.323
 5523WAT      O16810   5.776   2.406   8.082
 5523WAT     H116811   5.694   2.453   8.116
 5523WAT     H216812   5.832   2.378   8.159
 5524WAT      O16813   8.915   8.388   4.427
 5524WAT     H116814   8.915   8.418   4.522
 5524WAT     H216815   8.935   8.466   4.367
 5525WAT      O16816   2.166   0.823   9.530
 5525WAT     H116817   2.245   0.819   9.590
 5525WAT     H216818   2.158   0.914   9.489
 5526WAT      O16819   3.246   7.946   0.482
 5526WAT     H116820   3.247   7.935   0.382
 5526WAT     H216821   3.292   8.032   0.505
 5527WAT      O16822   2.794   6.013   1.888
 5527WAT     H116823   2.866   6.004   1.957
 5527WAT     H216824   2.767   5.922   1.856
 5528WAT      O16825   0.875   0.582   5.720
 5528WAT     H116826   0.843   0.577   5.625
 5528WAT     H216827   0.873   0.491   5.760
 5529WAT      O16828   0.094   3.574   6.789
 5529WAT     H116829   0.107   3.516   6.709
 5529WAT     H216830   0.054   3.661   6.760
 5530WAT      O16831   6.406   5.863   4.520
 5530WAT     H116832   6.377   5.885   4.426
 5530WAT     H216833   6.446   5.772   4.522
 5531WAT      O16834   9.087   6.448   8.643
 5531WAT     H116835   9.001   6.399   8.656
 5531WAT     H216836   9.162   6.394   8.682
 5532WAT      O16837   5.023   0.714   4.270
 5532WAT     H116838   5.110   0.704   4.318
 5532WAT     H216839   5.018   0.645   4.197
 5533WAT      O16840   3.233   2.050   1.358
 5533WAT     H116841   3.262   2.143   1.383
 5533WAT     H216842   3.306   2.005   1.306
 5534WAT      O16843   8.750   4.296   7.331
 5534WAT     H116844   8.671   4.288   7.392
 5534WAT     H216845   8.834   4.291   7.384
 5535WAT      O16846   8.845   3.503   3.223
 5535WAT     H116847   8.872   3.465   3.312
 5535WAT     H216848   8.821   3.429   3.161
 5536WAT      O16849   4.962   9.817   9.119
 5536WAT     H116850   5.057   9.841   9.135
 5536WAT     H216851   4.952   9.780   9.027
 5537WAT      O16852   0.046   5.075   2.637
 5537WAT     H116853   0.092   5.043   2.719
 5537WAT     H216854  -0.052   5.088   2.656
 5538WAT      O16855   2.909   4.931   4.912
 5538WAT     H116856   2.959   4.879   4.844
 5538WAT     H216857   2.828   4.973   4.870
 5539WAT      O16858   3.157   7.780   6.075
 5539WAT     H116859   3.180   7.817   5.985
 5539WAT     H216860   3.231   7.721   6.107
 5540WAT      O16861   6.867   1.083   2.178
 5540WAT     H116862   6.834   1.164   2.226
 5540WAT     H216863   6.936   1.036   2.234
 5541WAT      O16864   8.048   9.238   0.785
 5541WAT     H116865   8.007   9.311   0.730
 5541WAT     H216866   8.148   9.249   0.787
 5542WAT      O16867   4.486   9.704   1.146
 5542WAT     H116868   4.527   9.652   1.071
 5542WAT     H216869   4.545   9.698   1.227
 5543WAT      O16870   8.115   4.426   7.475
 5543WAT     H116871   8.175   4.481   7.534
 5543WAT     H216872   8.045   4.485   7.435
 5544WAT      O16873   2.840   6.337   0.481
 5544WAT     H116874   2.833   6.240   0.507
 5544WAT     H216875   2.865   6.391   0.561
 5545WAT      O16876   3.035   3.132   8.278
 5545WAT     H116877   2.974   3.053   8.264
 5545WAT     H216878   3.123   3.100   8.312
 5546WAT      O16879   3.179   7.908   8.203
 5546WAT     H116880   3.122   7.982   8.168
 5546WAT     H216881   3.196   7.842   8.130
 5547WAT      O16882   1.408   6.584   2.618
 5547WAT     H116883   1.456   6.506   2.657
 5547WAT     H216884   1.374   6.643   2.692
 5548WAT      O16885   4.424   1.380   4.458
 5548WAT     H116886   4.410   1.479   4.469
 5548WAT     H216887   4.335   1.335   4.455
 5549WAT      O16888   8.185   5.549   8.993
 5549WAT     H116889   8.278   5.580   9.014
 5549WAT     H216890   8.129   5.627   8.967
 5550WAT      O16891   7.179   4.456   7.743
 5550WAT     H116892   7.230   4.385   7.695
 5550WAT     H216893   7.136   4.417   7.824
 5551WAT      O16894   7.230   3.383   1.984
 5551WAT     H116895   7.286   3.309   2.021
 5551WAT     H216896   7.134   3.361   1.996
 5552WAT      O16897   9.263   4.146   4.714
 5552WAT     H116898   9.299   4.188   4.797
 5552WAT     H216899   9.317   4.066   4.690
 5553WAT      O16900   1.033   1.670   5.031
 5553WAT     H116901   1.100   1.744   5.042
 5553WAT     H216902   0.968   1.694   4.959
 5554WAT      O16903   1.681   9.118   1.948
 5554WAT     H116904   1.672   9.066   2.033
 5554WAT     H216905   1.609   9.188   1.945
 5555WAT      O16906   9.649   6.776   9.495
 5555WAT     H116907   9.624   6.840   9.568
 5555WAT     H216908   9.662   6.827   9.410
 5556WAT      O16909   6.914   8.862   8.412
 5556WAT     H116910   6.821   8.841   8.443
 5556WAT     H216911   6.942   8.951   8.447
 5557WAT      O16912   7.169   0.630   4.566
 5557WAT     H116913   7.137   0.565   4.634
 5557WAT     H216914   7.090   0.677   4.525
 5558WAT      O16915   4.509   6.991   9.160
 5558WAT     H116916   4.497   7.084   9.125
 5558WAT     H216917   4.605   6.964   9.150
 5559WAT      O16918   6.528   9.213   1.804
 5559WAT     H116919   6.610   9.212   1.861
 5559WAT     H216920   6.483   9.301   1.812
 5560WAT      O16921   0.239   6.381   2.662
 5560WAT     H116922   0.169   6.434   2.613
 5560WAT     H216923   0.278   6.437   2.735
 5561WAT      O16924   8.704   6.474   3.591
 5561WAT     H116925   8.625   6.535   3.603
 5561WAT     H216926   8.702   6.435   3.499
 5562WAT      O16927   6.701   6.150   6.510
 5562WAT     H116928   6.744   6.152   6.420
 5562WAT     H216929   6.615   6.101   6.505
 5563WAT      O16930   1.694   3.231   7.893
 5563WAT     H116931   1.743   3.184   7.820
 5563WAT     H216932   1.652   3.163   7.954
 5564WAT      O16933   6.879   9.686   3.075
 5564WAT     H116934   6.789   9.661   3.110
 5564WAT     H216935   6.869   9.759   3.007
 5565WAT      O16936   1.159   5.008   6.531
 5565WAT     H116937   1.103   4.960   6.463
 5565WAT     H216938   1.242   4.956   6.549
 5566WAT      O16939   1.438   6.365   0.370
 5566WAT     H116940   1.365   6.418   0.328
 5566WAT     H216941   1.513   6.426   0.398
 5567WAT      O16942   7.783   9.508   7.672
 5567WAT     H116943   7.736   9.420   7.672
 5567WAT     H216944   7.721   9.578   7.708
 5568WAT      O16945   8.521   1.406   5.023
 5568WAT     H116946   8.425   1.380   5.031
 5568WAT     H216947   8.571   1.377   5.105
 5569WAT      O16948   7.575   9.421   5.743
 5569WAT     H116949   7.562   9.514   5.776
 5569WAT     H216950   7.553   9.356   5.815
 5570WAT      O16951   5.407   8.431   6.409
 5570WAT     H116952   5.460   8.416   6.326
 5570WAT     H216953   5.323   8.479   6.386
 5571WAT      O16954   6.777   3.109   8.352
 5571WAT     H116955   6.779   3.079   8.256
 5571WAT     H216956   6.867   3.095   8.393
 5572WAT      O16957   7.436   8.432   1.047
 5572WAT     H116958   7.485   8.360   1.095
 5572WAT     H216959   7.410   8.504   1.111
 5573WAT      O16960   8.797   4.032   2.848
 5573WAT     H116961   8.856   3.982   2.784
 5573WAT     H216962   8.818   4.130   2.843
 5574WAT      O16963   1.065   7.463   0.415
 5574WAT     H116964   1.116   7.542   0.452
 5574WAT     H216965   1.035   7.405   0.491
 5575WAT      O16966   7.524   4.690   6.497
 5575WAT     H116967   7.513   4.683   6.398
 5575WAT     H216968   7.519   4.598   6.537
 5576WAT      O16969   7.933   0.169   0.153
 5576WAT     H116970   7.923   0.256   0.104
 5576WAT     H216971   7.968   0.099   0.090
 5577WAT      O16972   0.897   1.964   4.457
 5577WAT     H116973   0.874   2.025   4.382
 5577WAT     H216974   0.988   1.925   4.441
 5578WAT      O16975   1.795   9.450   7.170
 5578WAT     H116976   1.740   9.533   7.177
 5578WAT     H216977   1.890   9.474   7.155
 5579WAT      O16978   3.213   0.885   2.028
 5579WAT     H116979   3.216   0.958   2.096
 5579WAT     H216980   3.221   0.924   1.936
 5580WAT      O16981   6.756   6.064   0.155
 5580WAT     H116982   6.665   6.099   0.177
 5580WAT     H216983   6.748   5.972   0.117
 5581WAT      O16984   7.545   6.871   1.390
 5581WAT     H116985   7.510   6.947   1.443
 5581WAT     H216986   7.637   6.891   1.358
 5582WAT      O16987   8.485   6.104   6.629
 5582WAT     H116988   8.581   6.080   6.615
 5582WAT     H216989   8.465   6.190   6.583
 5583WAT      O16990   5.581   2.579   5.039
 5583WAT     H116991   5.667   2.628   5.049
 5583WAT     H216992   5.514   2.616   5.104
 5584WAT      O16993   8.470   0.323   6.668
 5584WAT     H116994   8.494   0.342   6.763
 5584WAT     H216995   8.404   0.249   6.664
 5585WAT      O16996   8.005   3.135   5.569
 5585WAT     H116997   7.994   3.037   5.588
 5585WAT     H216998   7.917   3.181   5.583
 5586WAT      O16999   6.855   3.500   6.515
 5586WAT     H117000   6.822   3.512   6.421
 5586WAT     H217001   6.862   3.402   6.536
 5587WAT      O17002   9.243   5.507   3.693
 5587WAT     H117003   9.196   5.557   3.765
 5587WAT     H217004   9.310   5.444   3.734
 5588WAT      O17005   8.299   9.533   3.600
 5588WAT     H117006   8.233   9.564   3.532
 5588WAT     H217007   8.384   9.508   3.554
 5589WAT      O17008   9.132   6.221   2.743
 5589WAT     H117009   9.216   6.185   2.701
 5589WAT     H217010   9.132   6.320   2.737
 5590WAT      O17011   4.383   2.112   9.883
 5590WAT     H117012   4.455   2.120   9.814
 5590WAT     H217013   4.422   2.129   9.974
 5591WAT      O17014   1.606   4.881   5.260
 5591WAT     H117015   1.659   4.888   5.345
 5591WAT     H217016   1.511   4.907   5.278
 5592WAT      O17017   7.388   1.935   6.963
 5592WAT     H117018   7.478   1.947   6.919
 5592WAT     H217019   7.384   1.990   7.046
 5593WAT      O17020   9.294   9.326   6.273
 5593WAT     H117021   9.376   9.269   6.272
 5593WAT     H217022   9.227   9.290   6.208
 5594WAT      O17023   0.048   7.770   9.815
 5594WAT     H117024   0.065   7.692   9.755
 5594WAT     H217025   0.133   7.796   9.862
 5595WAT      O17026   4.082   2.675   0.953
 5595WAT     H117027   4.148   2.728   1.005
 5595WAT     H217028   4.117   2.660   0.860
 5596WAT      O17029   0.340   7.290   0.180
 5596WAT     H117030   0.403   7.344   0.236
 5596WAT     H217031   0.255   7.341   0.167
 5597WAT      O17032   0.602   3.198   6.616
 5597WAT     H117033   0.566   3.140   6.543
 5597WAT     H217034   0.662   3.268   6.577
 5598WAT      O17035   4.521   5.622   0.435
 5598WAT     H117036   4.440   5.675   0.409
 5598WAT     H217037   4.567   5.667   0.512
 5599WAT      O17038   1.684   9.581   0.492
 5599WAT     H117039   1.597   9.605   0.449
 5599WAT     H217040   1.729   9.510   0.438
 5600WAT      O17041   9.643   4.148   6.879
 5600WAT     H117042   9.701   4.227   6.858
 5600WAT     H217043   9.690   4.064   6.851
 5601WAT      O17044   8.909   1.262   7.701
 5601WAT     H117045   8.991   1.315   7.718
 5601WAT     H217046   8.932   1.181   7.646
 5602WAT      O17047   9.265   8.485   4.683
 5602WAT     H117048   9.230   8.403   4.726
 5602WAT     H217049   9.239   8.565   4.737
 5603WAT      O17050   5.652   6.780   7.923
 5603WAT     H117051   5.729   6.814   7.977
 5603WAT     H217052   5.637   6.841   7.845
 5604WAT      O17053   8.570   3.914   1.005
 5604WAT     H117054   8.615   3.986   0.953
 5604WAT     H217055   8.484   3.889   0.959
 5605WAT      O17056   9.257   8.887   8.143
 5605WAT     H117057   9.161   8.904   8.123
 5605WAT     H217058   9.282   8.796   8.110
 5606WAT      O17059   5.921   8.067   6.882
 5606WAT     H117060   5.958   8.155   6.912
 5606WAT     H217061   5.855   8.034   6.949
 5607WAT      O17062   6.630   9.552   9.109
 5607WAT     H117063   6.538   9.577   9.137
 5607WAT     H217064   6.625   9.484   9.035
 5608WAT      O17065   6.517   8.289   8.055
 5608WAT     H117066   6.510   8.197   8.094
 5608WAT     H217067   6.440   8.305   7.993
 5609WAT      O17068   2.869   8.319   8.082
 5609WAT     H117069   2.799   8.304   8.012
 5609WAT     H217070   2.884   8.417   8.093
 5610WAT      O17071   5.865   3.935   6.415
 5610WAT     H117072   5.792   3.994   6.450
 5610WAT     H217073   5.898   3.971   6.328
 5611WAT      O17074   8.188   1.702   6.522
 5611WAT     H117075   8.257   1.750   6.576
 5611WAT     H217076   8.097   1.731   6.552
 5612WAT      O17077   7.641   6.531   2.146
 5612WAT     H117078   7.609   6.621   2.119
 5612WAT     H217079   7.577   6.490   2.210
 5613WAT      O17080   9.511   7.219   6.215
 5613WAT     H117081   9.508   7.213   6.115
 5613WAT     H217082   9.418   7.211   6.252
 5614WAT      O17083   7.565   9.036   4.242
 5614WAT     H117084   7.618   9.108   4.197
 5614WAT     H217085   7.611   9.010   4.328
 5615WAT      O17086   6.574   4.388   6.338
 5615WAT     H117087   6.607   4.440   6.417
 5615WAT     H217088   6.597   4.438   6.254
 5616WAT      O17089   2.296   3.337   7.953
 5616WAT     H117090   2.381   3.344   8.006
 5616WAT     H217091   2.279   3.241   7.930
 5617WAT      O17092   1.168   8.216   3.804
 5617WAT     H117093   1.102   8.150   3.768
 5617WAT     H217094   1.151   8.306   3.764
 5618WAT      O17095   9.439   9.432   1.950
 5618WAT     H117096   9.405   9.353   1.900
 5618WAT     H217097   9.524   9.407   1.997
 5619WAT      O17098   9.415   0.693   8.581
 5619WAT     H117099   9.470   0.760   8.532
 5619WAT     H217100   9.409   0.720   8.678
 5620WAT      O17101   7.211   7.318   4.576
 5620WAT     H117102   7.249   7.313   4.669
 5620WAT     H217103   7.276   7.278   4.511
 5621WAT      O17104   6.200   1.887   1.269
 5621WAT     H117105   6.261   1.816   1.305
 5621WAT     H217106   6.251   1.973   1.260
 5622WAT      O17107   8.097   5.017   3.477
 5622WAT     H117108   8.142   5.080   3.540
 5622WAT     H217109   8.042   5.070   3.412
 5623WAT      O17110   3.420   9.024   8.041
 5623WAT     H117111   3.454   9.049   7.950
 5623WAT     H217112   3.381   8.932   8.037
 5624WAT      O17113   7.542   9.184   4.809
 5624WAT     H117114   7.521   9.088   4.828
 5624WAT     H217115   7.583   9.226   4.891
 5625WAT      O17116   2.772   9.716   4.689
 5625WAT     H117117   2.802   9.724   4.594
 5625WAT     H217118   2.776   9.621   4.718
 5626WAT      O17119   9.791   9.290   4.035
 5626WAT     H117120   9.797   9.301   3.936
 5626WAT     H217121   9.815   9.196   4.061
 5627WAT      O17122   7.020   6.647   7.053
 5627WAT     H117123   6.979   6.565   7.012
 5627WAT     H217124   6.972   6.668   7.139
 5628WAT      O17125   4.691   5.254   8.278
 5628WAT     H117126   4.642   5.232   8.193
 5628WAT     H217127   4.636   5.226   8.357
 5629WAT      O17128   4.021   3.463   9.040
 5629WAT     H117129   3.998   3.386   8.980
 5629WAT     H217130   3.957   3.465   9.117
 5630WAT      O17131   8.585   3.512   8.088
 5630WAT     H117132   8.537   3.579   8.032
 5630WAT     H217133   8.629   3.444   8.028
 5631WAT      O17134   5.922   6.817   9.453
 5631WAT     H117135   5.935   6.912   9.481
 5631WAT     H217136   5.840   6.811   9.396
 5632WAT      O17137   4.253   0.742   8.703
 5632WAT     H117138   4.256   0.822   8.764
 5632WAT     H217139   4.304   0.667   8.745
 5633WAT      O17140   6.493   8.204   4.013
 5633WAT     H117141   6.434   8.247   4.081
 5633WAT     H217142   6.570   8.264   3.992
 5634WAT      O17143   5.372   9.122   0.708
 5634WAT     H117144   5.332   9.108   0.617
 5634WAT     H217145   5.402   9.217   0.717
 5635WAT      O17146   0.050   4.930   6.524
 5635WAT     H117147   0.036   4.839   6.484
 5635WAT     H217148  -0.038   4.974   6.540
 5636WAT      O17149   9.082   6.716   5.819
 5636WAT     H117150   9.032   6.630   5.807
 5636WAT     H217151   9.163   6.716   5.761
 5637WAT      O17152   1.634   0.047   1.211
 5637WAT     H117153   1.646   0.144   1.188
 5637WAT     H217154   1.687   0.025   1.292
 5638WAT      O17155   4.811   6.416   2.795
 5638WAT     H117156   4.751   6.461   2.862
 5638WAT     H217157   4.769   6.329   2.767
 5639WAT      O17158   3.766   7.080   5.096
 5639WAT     H117159   3.850   7.040   5.133
 5639WAT     H217160   3.787   7.167   5.052
 5640WAT      O17161   2.385   8.702   0.558
 5640WAT     H117162   2.365   8.671   0.465
 5640WAT     H217163   2.302   8.692   0.614
 5641WAT      O17164   0.792   9.794   0.068
 5641WAT     H117165   0.704   9.836   0.092
 5641WAT     H217166   0.839   9.852   0.002
 5642WAT      O17167   9.342   8.639   8.096
 5642WAT     H117168   9.403   8.603   8.168
 5642WAT     H217169   9.259   8.582   8.092
 5643WAT      O17170   8.900   0.460   3.181
 5643WAT     H117171   8.999   0.458   3.191
 5643WAT     H217172   8.857   0.448   3.271
 5644WAT      O17173   1.148   3.021   7.562
 5644WAT     H117174   1.049   3.035   7.556
 5644WAT     H217175   1.171   2.929   7.532
 5645WAT      O17176   3.495   7.311   0.741
 5645WAT     H117177   3.434   7.316   0.820
 5645WAT     H217178   3.574   7.371   0.755
 5646WAT      O17179   3.341   1.507   7.167
 5646WAT     H117180   3.310   1.529   7.075
 5646WAT     H217181   3.270   1.529   7.233
 5647WAT      O17182   1.983   4.154   5.844
 5647WAT     H117183   1.927   4.101   5.907
 5647WAT     H217184   2.021   4.234   5.892
 5648WAT      O17185   5.400   2.679   7.748
 5648WAT     H117186   5.324   2.738   7.721
 5648WAT     H217187   5.466   2.674   7.673
 5649WAT      O17188   1.310   7.004   7.251
 5649WAT     H117189   1.303   6.907   7.227
 5649WAT     H217190   1.247   7.024   7.327
 5650WAT      O17191   6.526   8.513   4.755
 5650WAT     H117192   6.565   8.604   4.769
 5650WAT     H217193   6.495   8.503   4.661
 5651WAT      O17194   4.771   2.770   6.094
 5651WAT     H117195   4.840   2.784   6.165
 5651WAT     H217196   4.811   2.789   6.004
 5652WAT      O17197   2.479   7.519   8.144
 5652WAT     H117198   2.435   7.515   8.055
 5652WAT     H217199   2.576   7.499   8.135
 5653WAT      O17200   7.143   8.826   2.918
 5653WAT     H117201   7.227   8.877   2.900
 5653WAT     H217202   7.098   8.864   2.999
 5654WAT      O17203   2.795   6.200   1.703
 5654WAT     H117204   2.816   6.142   1.782
 5654WAT     H217205   2.870   6.196   1.637
 5655WAT      O17206   0.265   3.126   6.588
 5655WAT     H117207   0.315   3.212   6.587
 5655WAT     H217208   0.261   3.091   6.682
 5656WAT      O17209   0.184   5.536   1.075
 5656WAT     H117210   0.128   5.458   1.106
 5656WAT     H217211   0.230   5.577   1.154
 5657WAT      O17212   1.220   5.383   7.455
 5657WAT     H117213   1.150   5.316   7.432
 5657WAT     H217214   1.194   5.472   7.420
 5658WAT      O17215   4.716   0.505   5.255
 5658WAT     H117216   4.702   0.598   5.219
 5658WAT     H217217   4.647   0.444   5.216
 5659WAT      O17218   3.489   7.031   9.682
 5659WAT     H117219   3.539   7.016   9.767
 5659WAT     H217220   3.549   7.008   9.604
 5660WAT      O17221   6.526   4.832   8.281
 5660WAT     H117222   6.623   4.839   8.305
 5660WAT     H217223   6.496   4.737   8.289
 5661WAT      O17224   7.458   1.590   1.235
 5661WAT     H117225   7.538   1.532   1.246
 5661WAT     H217226   7.397   1.551   1.166
 5662WAT      O17227   9.262   0.003   8.644
 5662WAT     H117228   9.236  -0.083   8.600
 5662WAT     H217229   9.271   0.075   8.574
 5663WAT      O17230   5.991   9.091   5.140
 5663WAT     H117231   6.045   9.088   5.056
 5663WAT     H217232   5.895   9.110   5.118
 5664WAT      O17233   6.248   7.261   4.406
 5664WAT     H117234   6.254   7.305   4.317
 5664WAT     H217235   6.206   7.323   4.472
 5665WAT      O17236   4.008   7.004   8.408
 5665WAT     H117237   4.021   7.025   8.311
 5665WAT     H217238   4.092   6.963   8.444
 5666WAT      O17239   5.374   3.905   7.697
 5666WAT     H117240   5.406   3.813   7.674
 5666WAT     H217241   5.451   3.959   7.731
 5667WAT      O17242   1.885   2.502   6.053
 5667WAT     H117243   1.893   2.424   5.991
 5667WAT     H217244   1.809   2.560   6.023
 5668WAT      O17245   0.936   2.340   1.363
 5668WAT     H117246   0.985   2.425   1.378
 5668WAT     H217247   0.866   2.329   1.434
 5669WAT      O17248   8.714   0.304   8.626
 5669WAT     H117249   8.727   0.225   8.567
 5669WAT     H217250   8.635   0.357   8.595
 5670WAT      O17251   9.327   3.675   7.922
 5670WAT     H117252   9.313   3.718   7.833
 5670WAT     H217253   9.388   3.596   7.912
 5671WAT      O17254   7.667   0.169   1.158
 5671WAT     H117255   7.766   0.158   1.168
 5671WAT     H217256   7.626   0.081   1.134
 5672WAT      O17257   0.801   5.174   3.721
 5672WAT     H117258   0.799   5.116   3.640
 5672WAT     H217259   0.863   5.251   3.707
 5673WAT      O17260   6.089   4.854   2.443
 5673WAT     H117261   6.014   4.790   2.455
 5673WAT     H217262   6.156   4.816   2.379
 5674WAT      O17263   5.825   1.272   6.101
 5674WAT     H117264   5.810   1.349   6.039
 5674WAT     H217265   5.872   1.304   6.183
 5675WAT      O17266   5.477   0.315   0.272
 5675WAT     H117267   5.425   0.372   0.335
 5675WAT     H217268   5.575   0.335   0.282
 5676WAT      O17269   1.170   0.685   9.015
 5676WAT     H117270   1.127   0.775   9.013
 5676WAT     H217271   1.269   0.695   9.014
 5677WAT      O17272   5.308   5.728   1.172
 5677WAT     H117273   5.323   5.629   1.163
 5677WAT     H217274   5.376   5.767   1.233
 5678WAT      O17275   3.958   4.700   4.774
 5678WAT     H117276   3.902   4.749   4.707
 5678WAT     H217277   3.920   4.609   4.789
 5679WAT      O17278   8.296   2.649   1.558
 5679WAT     H117279   8.223   2.706   1.596
 5679WAT     H217280   8.314   2.572   1.620
 5680WAT      O17281   6.316   8.526   8.996
 5680WAT     H117282   6.256   8.601   9.024
 5680WAT     H217283   6.308   8.512   8.897
 5681WAT      O17284   9.642   7.569   0.224
 5681WAT     H117285   9.552   7.605   0.247
 5681WAT     H217286   9.635   7.471   0.206
 5682WAT      O17287   9.693   7.633   6.330
 5682WAT     H117288   9.752   7.661   6.406
 5682WAT     H217289   9.715   7.539   6.304
 5683WAT      O17290   2.790   2.696   4.561
 5683WAT     H117291   2.703   2.740   4.582
 5683WAT     H217292   2.803   2.694   4.461
 5684WAT      O17293   0.560   0.363   4.656
 5684WAT     H117294   0.495   0.431   4.622
 5684WAT     H217295   0.536   0.273   4.619
 5685WAT      O17296   4.386   5.505   5.482
 5685WAT     H117297   4.422   5.573   5.546
 5685WAT     H217298   4.361   5.550   5.397
 5686WAT      O17299   1.888   2.510   6.905
 5686WAT     H117300   1.960   2.551   6.850
 5686WAT     H217301   1.906   2.525   7.002
 5687WAT      O17302   2.116   8.757   5.732
 5687WAT     H117303   2.094   8.803   5.818
 5687WAT     H217304   2.098   8.819   5.656
 5688WAT      O17305   5.904   0.614   4.671
 5688WAT     H117306   5.855   0.534   4.636
 5688WAT     H217307   5.843   0.694   4.668
 5689WAT      O17308   7.334   8.982   9.508
 5689WAT     H117309   7.327   9.029   9.421
 5689WAT     H217310   7.332   9.049   9.583
 5690WAT      O17311   4.651   4.851   2.534
 5690WAT     H117312   4.616   4.938   2.569
 5690WAT     H217313   4.591   4.777   2.565
 5691WAT      O17314   7.517   0.178   8.272
 5691WAT     H117315   7.563   0.099   8.313
 5691WAT     H217316   7.517   0.168   8.172
 5692WAT      O17317   7.773   6.711   8.907
 5692WAT     H117318   7.838   6.636   8.926
 5692WAT     H217319   7.749   6.756   8.993
 5693WAT      O17320   9.828   6.046   4.624
 5693WAT     H117321   9.876   6.012   4.705
 5693WAT     H217322   9.879   6.124   4.586
 5694WAT      O17323   2.883   0.231   4.324
 5694WAT     H117324   2.829   0.153   4.290
 5694WAT     H217325   2.830   0.315   4.312
 5695WAT      O17326   8.309   9.055   6.514
 5695WAT     H117327   8.358   9.130   6.470
 5695WAT     H217328   8.368   9.013   6.583
 5696WAT      O17329   5.233   2.148   2.123
 5696WAT     H117330   5.288   2.223   2.161
 5696WAT     H217331   5.276   2.115   2.039
 5697WAT      O17332   8.039   9.551   1.023
 5697WAT     H117333   8.057   9.459   1.057
 5697WAT     H217334   7.947   9.579   1.050
 5698WAT      O17335   8.270   7.040   5.671
 5698WAT     H117336   8.258   7.001   5.762
 5698WAT     H217337   8.299   6.968   5.607
 5699WAT      O17338   6.794   9.001   2.392
 5699WAT     H117339   6.710   8.966   2.434
 5699WAT     H217340   6.855   9.036   2.463
 5700WAT      O17341   9.465   9.603   5.777
 5700WAT     H117342   9.477   9.566   5.685
 5700WAT     H217343   9.503   9.539   5.844
 5701WAT      O17344   0.283   6.710   7.888
 5701WAT     H117345   0.302   6.614   7.866
 5701WAT     H217346   0.363   6.750   7.932
 5702WAT      O17347   1.005   0.898   4.127
 5702WAT     H117348   1.095   0.935   4.104
 5702WAT     H217349   0.949   0.968   4.171
 5703WAT      O17350   2.664   8.976   8.572
 5703WAT     H117351   2.718   9.034   8.510
 5703WAT     H217352   2.568   8.979   8.545
 5704WAT      O17353   4.442   3.541   8.791
 5704WAT     H117354   4.488   3.627   8.815
 5704WAT     H217355   4.343   3.552   8.800
 5705WAT      O17356   5.413   0.068   7.298
 5705WAT     H117357   5.398  -0.024   7.335
 5705WAT     H217358   5.460   0.060   7.210
 5706WAT      O17359   1.951   5.347   3.265
 5706WAT     H117360   1.890   5.393   3.202
 5706WAT     H217361   2.034   5.317   3.216
 5707WAT      O17362   3.874   6.145   7.897
 5707WAT     H117363   3.835   6.198   7.822
 5707WAT     H217364   3.827   6.168   7.982
 5708WAT      O17365   2.362   1.797   3.693
 5708WAT     H117366   2.276   1.843   3.716
 5708WAT     H217367   2.420   1.790   3.774
 5709WAT      O17368   4.992   2.518   4.407
 5709WAT     H117369   5.035   2.450   4.465
 5709WAT     H217370   4.921   2.567   4.458
 5710WAT      O17371   3.465   4.866   3.504
 5710WAT     H117372   3.486   4.830   3.413
 5710WAT     H217373   3.421   4.955   3.495
 5711WAT      O17374   8.811   9.085   1.784
 5711WAT     H117375   8.759   8.999   1.786
 5711WAT     H217376   8.848   9.104   1.874
 5712WAT      O17377   4.198   3.262   7.495
 5712WAT     H117378   4.122   3.325   7.512
 5712WAT     H217379   4.175   3.204   7.417
 5713WAT      O17380   3.276   7.232   5.506
 5713WAT     H117381   3.178   7.244   5.522
 5713WAT     H217382   3.291   7.147   5.456
 5714WAT      O17383   1.228   9.501   0.584
 5714WAT     H117384   1.310   9.463   0.627
 5714WAT     H217385   1.252   9.542   0.497
 5715WAT      O17386   1.693   6.247   0.817
 5715WAT     H117387   1.643   6.289   0.741
 5715WAT     H217388   1.779   6.208   0.783
 5716WAT      O17389   7.485   1.303   1.462
 5716WAT     H117390   7.570   1.307   1.410
 5716WAT     H217391   7.456   1.396   1.485
 5717WAT      O17392   8.122   1.221   8.209
 5717WAT     H117393   8.118   1.231   8.308
 5717WAT     H217394   8.088   1.130   8.183
 5718WAT      O17395   2.148   4.677   6.935
 5718WAT     H117396   2.101   4.658   7.021
 5718WAT     H217397   2.173   4.774   6.931
 5719WAT      O17398   4.220   0.995   7.285
 5719WAT     H117399   4.295   1.000   7.219
 5719WAT     H217400   4.245   1.042   7.369
 5720WAT      O17401   0.121   8.384   6.954
 5720WAT     H117402   0.097   8.394   7.051
 5720WAT     H217403   0.220   8.380   6.945
 5721WAT      O17404   5.066   9.139   8.351
 5721WAT     H117405   5.003   9.065   8.373
 5721WAT     H217406   5.040   9.221   8.402
 5722WAT      O17407   9.199   7.970   0.122
 5722WAT     H117408   9.142   7.909   0.067
 5722WAT     H217409   9.295   7.961   0.094
 5723WAT      O17410   6.210   6.260   1.989
 5723WAT     H117411   6.268   6.334   2.023
 5723WAT     H217412   6.261   6.174   1.987
 5724WAT      O17413   7.294   2.640   4.093
 5724WAT     H117414   7.355   2.611   4.018
 5724WAT     H217415   7.200   2.640   4.061
 5725WAT      O17416   0.696   3.988   9.674
 5725WAT     H117417   0.639   3.914   9.639
 5725WAT     H217418   0.779   3.950   9.715
 5726WAT      O17419   4.253   3.959   6.628
 5726WAT     H117420   4.321   4.025   6.595
 5726WAT     H217421   4.298   3.871   6.643
 5727WAT      O17422   0.348   1.392   0.411
 5727WAT     H117423   0.334   1.386   0.510
 5727WAT     H217424   0.315   1.481   0.378
 5728WAT      O17425   2.511   2.351   7.794
 5728WAT     H117426   2.529   2.317   7.702
 5728WAT     H217427   2.478   2.445   7.790
 5729WAT      O17428   5.901   3.869   2.039
 5729WAT     H117429   5.962   3.942   2.008
 5729WAT     H217430   5.879   3.882   2.135
 5730WAT      O17431   5.175   9.379   8.856
 5730WAT     H117432   5.092   9.421   8.893
 5730WAT     H217433   5.233   9.347   8.931
 5731WAT      O17434   0.285   8.445   7.226
 5731WAT     H117435   0.369   8.492   7.198
 5731WAT     H217436   0.305   8.381   7.300
 5732WAT      O17437   2.434   6.430   7.269
 5732WAT     H117438   2.448   6.345   7.320
 5732WAT     H217439   2.498   6.499   7.302
 5733WAT      O17440   5.322   3.095   4.426
 5733WAT     H117441   5.309   3.187   4.388
 5733WAT     H217442   5.351   3.033   4.353
 5734WAT      O17443   5.729   9.664   1.048
 5734WAT     H117444   5.823   9.680   1.079
 5734WAT     H217445   5.691   9.749   1.012
 5735WAT      O17446   8.672   3.330   3.916
 5735WAT     H117447   8.733   3.251   3.920
 5735WAT     H217448   8.718   3.410   3.954
 5736WAT      O17449   8.552   2.831   1.396
 5736WAT     H117450   8.529   2.737   1.424
 5736WAT     H217451   8.543   2.839   1.297
 5737WAT      O17452   5.625   4.990   4.773
 5737WAT     H117453   5.664   5.082   4.764
 5737WAT     H217454   5.538   4.986   4.723
 5738WAT      O17455   3.682   8.851   9.158
 5738WAT     H117456   3.698   8.932   9.102
 5738WAT     H217457   3.770   8.814   9.188
 5739WAT      O17458   2.390   3.217   1.031
 5739WAT     H117459   2.398   3.197   1.129
 5739WAT     H217460   2.296   3.242   1.009
 5740WAT      O17461   4.111   0.613   7.457
 5740WAT     H117462   4.134   0.592   7.552
 5740WAT     H217463   4.082   0.530   7.410
 5741WAT      O17464   4.402   5.019   5.266
 5741WAT     H117465   4.328   4.961   5.301
 5741WAT     H217466   4.393   5.111   5.305
 5742WAT      O17467   6.781   3.213   6.288
 5742WAT     H117468   6.795   3.148   6.213
 5742WAT     H217469   6.869   3.234   6.331
 5743WAT      O17470   9.407   6.840   3.257
 5743WAT     H117471   9.356   6.879   3.180
 5743WAT     H217472   9.343   6.807   3.326
 5744WAT      O17473   9.169   0.867   2.276
 5744WAT     H117474   9.151   0.962   2.248
 5744WAT     H217475   9.254   0.864   2.329
 5745WAT      O17476   1.364   5.603   9.893
 5745WAT     H117477   1.427   5.671   9.930
 5745WAT     H217478   1.306   5.646   9.823
 5746WAT      O17479   4.442   9.221   7.757
 5746WAT     H117480   4.404   9.133   7.785
 5746WAT     H217481   4.541   9.221   7.774
 5747WAT      O17482   0.637   9.506   0.188
 5747WAT     H117483   0.579   9.458   0.254
 5747WAT     H217484   0.630   9.605   0.204
 5748WAT      O17485   2.253   0.131   8.142
 5748WAT     H117486   2.201   0.063   8.090
 5748WAT     H217487   2.331   0.086   8.187
 5749WAT      O17488   9.431   6.138   2.700
 5749WAT     H117489   9.407   6.072   2.771
 5749WAT     H217490   9.525   6.124   2.671
 5750WAT      O17491   4.958   2.911   5.326
 5750WAT     H117492   5.014   2.982   5.283
 5750WAT     H217493   5.004   2.879   5.409
 5751WAT      O17494   8.342   7.971   1.986
 5751WAT     H117495   8.383   7.975   2.077
 5751WAT     H217496   8.249   7.936   1.992
 5752WAT      O17497   3.187   4.979   3.611
 5752WAT     H117498   3.127   4.981   3.531
 5752WAT     H217499   3.177   4.892   3.659
 5753WAT      O17500   6.289   0.604   7.160
 5753WAT     H117501   6.252   0.696   7.173
 5753WAT     H217502   6.380   0.610   7.121
 5754WAT      O17503   0.436   1.756   4.072
 5754WAT     H117504   0.399   1.703   4.148
 5754WAT     H217505   0.469   1.693   4.001
 5755WAT      O17506   5.021   2.293   9.639
 5755WAT     H117507   5.013   2.359   9.564
 5755WAT     H217508   5.087   2.223   9.615
 5756WAT      O17509   2.215   6.493   1.933
 5756WAT     H117510   2.246   6.424   1.868
 5756WAT     H217511   2.252   6.472   2.024
 5757WAT      O17512   3.464   4.386   7.813
 5757WAT     H117513   3.495   4.334   7.734
 5757WAT     H217514   3.507   4.351   7.896
 5758WAT      O17515   5.419   2.766   2.115
 5758WAT     H117516   5.444   2.791   2.209
 5758WAT     H217517   5.502   2.762   2.059
 5759WAT      O17518   2.845   8.491   7.029
 5759WAT     H117519   2.822   8.543   7.112
 5759WAT     H217520   2.785   8.519   6.954
 5760WAT      O17521   3.488   5.880   5.097
 5760WAT     H117522   3.520   5.801   5.149
 5760WAT     H217523   3.390   5.870   5.077
 5761WAT      O17524   0.398   3.376   7.369
 5761WAT     H117525   0.407   3.340   7.276
 5761WAT     H217526   0.309   3.422   7.377
 5762WAT      O17527   0.604   8.832   0.527
 5762WAT     H117528   0.523   8.886   0.552
 5762WAT     H217529   0.633   8.857   0.435
 5763WAT      O17530   0.793   5.906   1.338
 5763WAT     H117531   0.887   5.870   1.338
 5763WAT     H217532   0.785   5.978   1.269
 5764WAT      O17533   8.956   8.911   6.705
 5764WAT     H117534   8.901   8.874   6.630
 5764WAT     H217535   8.971   9.009   6.690
 5765WAT      O17536   3.652   3.315   1.652
 5765WAT     H117537   3.592   3.392   1.673
 5765WAT     H217538   3.695   3.282   1.736
 5766WAT      O17539   9.264   6.230   3.327
 5766WAT     H117540   9.198   6.285   3.377
 5766WAT     H217541   9.260   6.254   3.230
 5767WAT      O17542   0.183   8.236   2.276
 5767WAT     H117543   0.118   8.306   2.304
 5767WAT     H217544   0.276   8.270   2.289
 5768WAT      O17545   4.223   9.363   8.334
 5768WAT     H117546   4.139   9.410   8.306
 5768WAT     H217547   4.297   9.388   8.271
 5769WAT      O17548   9.003   4.338   7.460
 5769WAT     H117549   9.000   4.380   7.550
 5769WAT     H217550   9.094   4.350   7.421
 5770WAT      O17551   4.279   2.598   2.477
 5770WAT     H117552   4.355   2.571   2.536
 5770WAT     H217553   4.209   2.643   2.532
 5771WAT      O17554   6.370   6.845   9.280
 5771WAT     H117555   6.371   6.899   9.365
 5771WAT     H217556   6.276   6.837   9.246
 5772WAT      O17557   1.434   9.616   6.501
 5772WAT     H117558   1.508   9.637   6.564
 5772WAT     H217559   1.367   9.557   6.546
 5773WAT      O17560   3.154   9.087   4.062
 5773WAT     H117561   3.178   9.105   3.967
 5773WAT     H217562   3.081   9.149   4.091
 5774WAT      O17563   2.778   8.195   8.611
 5774WAT     H117564   2.819   8.104   8.618
 5774WAT     H217565   2.680   8.190   8.626
 5775WAT      O17566   4.517   5.390   3.496
 5775WAT     H117567   4.606   5.347   3.511
 5775WAT     H217568   4.493   5.385   3.399
 5776WAT      O17569   1.300   3.425   2.293
 5776WAT     H117570   1.254   3.338   2.314
 5776WAT     H217571   1.309   3.435   2.194
 5777WAT      O17572   6.015   5.225   6.772
 5777WAT     H117573   6.013   5.277   6.686
 5777WAT     H217574   5.943   5.156   6.770
 5778WAT      O17575   0.781   0.384   8.115
 5778WAT     H117576   0.720   0.311   8.145
 5778WAT     H217577   0.870   0.346   8.092
 5779WAT      O17578   8.619   2.461   5.748
 5779WAT     H117579   8.583   2.520   5.676
 5779WAT     H217580   8.717   2.446   5.734
 5780WAT      O17581   7.072   5.357   1.311
 5780WAT     H117582   7.008   5.288   1.343
 5780WAT     H217583   7.022   5.436   1.275
 5781WAT      O17584   8.066   7.123   9.295
 5781WAT     H117585   7.981   7.175   9.304
 5781WAT     H217586   8.144   7.185   9.303
 5782WAT      O17587   4.400   0.063   7.189
 5782WAT     H117588   4.463  -0.013   7.201
 5782WAT     H217589   4.418   0.133   7.257
 5783WAT      O17590   4.170   5.411   1.994
 5783WAT     H117591   4.229   5.489   1.973
 5783WAT     H217592   4.074   5.438   1.986
 5784WAT      O17593   7.877   2.141   9.567
 5784WAT     H117594   7.893   2.175   9.660
 5784WAT     H217595   7.944   2.070   9.546
 5785WAT      O17596   9.035   8.934   4.346
 5785WAT     H117597   8.939   8.945   4.371
 5785WAT     H217598   9.067   8.844   4.376
 5786WAT      O17599   3.823   7.701   9.668
 5786WAT     H117600   3.912   7.737   9.638
 5786WAT     H217601   3.751   7.743   9.613
 5787WAT      O17602   1.812   6.741   5.838
 5787WAT     H117603   1.799   6.651   5.797
 5787WAT     H217604   1.801   6.812   5.768
 5788WAT      O17605   5.801   1.480   3.516
 5788WAT     H117606   5.895   1.450   3.497
 5788WAT     H217607   5.797   1.580   3.518
 5789WAT      O17608   6.436   4.163   4.241
 5789WAT     H117609   6.513   4.198   4.296
 5789WAT     H217610   6.386   4.095   4.294
 5790WAT      O17611   1.107   7.211   8.265
 5790WAT     H117612   1.171   7.145   8.226
 5790WAT     H217613   1.113   7.298   8.215
 5791WAT      O17614   3.995   2.409   4.059
 5791WAT     H117615   3.930   2.395   3.984
 5791WAT     H217616   4.054   2.487   4.038
 5792WAT      O17617   5.622   5.547   0.779
 5792WAT     H117618   5.605   5.588   0.869
 5792WAT     H217619   5.582   5.455   0.776
 5793WAT      O17620   3.142   0.025   3.119
 5793WAT     H117621   3.221   0.079   3.091
 5793WAT     H217622   3.102   0.064   3.202
 5794WAT      O17623   9.005   0.755   2.026
 5794WAT     H117624   9.089   0.797   2.060
 5794WAT     H217625   8.972   0.807   1.947
 5795WAT      O17626   4.164   5.800   3.542
 5795WAT     H117627   4.101   5.773   3.615
 5795WAT     H217628   4.209   5.886   3.566
 5796WAT      O17629   7.932   2.573   6.907
 5796WAT     H117630   7.917   2.529   6.818
 5796WAT     H217631   7.992   2.652   6.896
 5797WAT      O17632   6.112   3.817   9.282
 5797WAT     H117633   6.130   3.731   9.234
 5797WAT     H217634   6.032   3.861   9.242
 5798WAT      O17635   7.083   8.435   3.240
 5798WAT     H117636   7.137   8.355   3.214
 5798WAT     H217637   7.078   8.498   3.162
 5799WAT      O17638   2.647   3.192   0.536
 5799WAT     H117639   2.659   3.264   0.468
 5799WAT     H217640   2.585   3.121   0.500
 5800WAT      O17641   0.204   6.949   3.650
 5800WAT     H117642   0.150   7.027   3.620
 5800WAT     H217643   0.198   6.876   3.582
 5801WAT      O17644   6.175   5.590   9.380
 5801WAT     H117645   6.250   5.528   9.402
 5801WAT     H217646   6.190   5.678   9.424
 5802WAT      O17647   3.124   8.241   9.153
 5802WAT     H117648   3.213   8.286   9.150
 5802WAT     H217649   3.102   8.204   9.063
 5803WAT      O17650   1.462   0.499   6.316
 5803WAT     H117651   1.559   0.480   6.301
 5803WAT     H217652   1.450   0.594   6.346
 5804WAT      O17653   3.311   6.040   1.187
 5804WAT     H117654   3.246   5.983   1.137
 5804WAT     H217655   3.378   6.077   1.124
 5805WAT      O17656   2.933   1.333   7.799
 5805WAT     H117657   2.835   1.316   7.813
 5805WAT     H217658   2.983   1.305   7.881
 5806WAT      O17659   0.026   8.235   6.101
 5806WAT     H117660   0.094   8.162   6.106
 5806WAT     H217661   0.060   8.308   6.042
 5807WAT      O17662   4.335   9.036   0.071
 5807WAT     H117663   4.316   9.092  -0.010
 5807WAT     H217664   4.384   8.954   0.043
 5808WAT      O17665   0.873   7.560   3.861
 5808WAT     H117666   0.926   7.629   3.812
 5808WAT     H217667   0.931   7.482   3.883
 5809WAT      O17668   0.538   0.129   7.225
 5809WAT     H117669   0.469   0.101   7.292
 5809WAT     H217670   0.616   0.067   7.230
 5810WAT      O17671   6.254   4.476   0.550
 5810WAT     H117672   6.300   4.387   0.556
 5810WAT     H217673   6.160   4.468   0.583
 5811WAT      O17674   3.895   6.611   7.956
 5811WAT     H117675   3.870   6.521   7.992
 5811WAT     H217676   3.818   6.673   7.965
 5812WAT      O17677   9.816   1.408   5.094
 5812WAT     H117678   9.785   1.459   5.175
 5812WAT     H217679   9.850   1.472   5.025
 5813WAT      O17680   5.541   9.375   2.456
 5813WAT     H117681   5.473   9.407   2.522
 5813WAT     H217682   5.508   9.290   2.414
 5814WAT      O17683   8.507   7.446   4.432
 5814WAT     H117684   8.523   7.443   4.531
 5814WAT     H217685   8.436   7.380   4.408
 5815WAT      O17686   5.895   2.552   9.337
 5815WAT     H117687   5.935   2.498   9.411
 5815WAT     H217688   5.876   2.493   9.258
 5816WAT      O17689   7.261   4.698   3.663
 5816WAT     H117690   7.204   4.661   3.736
 5816WAT     H217691   7.286   4.792   3.684
 5817WAT      O17692   5.005   7.123   4.015
 5817WAT     H117693   4.923   7.117   3.958
 5817WAT     H217694   4.985   7.172   4.099
 5818WAT      O17695   3.436   6.004   2.084
 5818WAT     H117696   3.373   5.926   2.081
 5818WAT     H217697   3.408   6.073   2.017
 5819WAT      O17698   4.821   2.247   3.351
 5819WAT     H117699   4.875   2.219   3.430
 5819WAT     H217700   4.831   2.178   3.279
 5820WAT      O17701   7.030   1.954   4.794
 5820WAT     H117702   7.025   2.051   4.816
 5820WAT     H217703   7.113   1.936   4.741
 5821WAT      O17704   0.131   9.689   1.678
 5821WAT     H117705   0.079   9.734   1.751
 5821WAT     H217706   0.127   9.590   1.690
 5822WAT      O17707   9.376   4.113   6.939
 5822WAT     H117708   9.473   4.114   6.913
 5822WAT     H217709   9.320   4.087   6.860
 5823WAT      O17710   8.559   1.883   3.023
 5823WAT     H117711   8.480   1.836   2.984
 5823WAT     H217712   8.538   1.980   3.035
 5824WAT      O17713   7.727   6.849   4.151
 5824WAT     H117714   7.729   6.935   4.100
 5824WAT     H217715   7.640   6.840   4.199
 5825WAT      O17716   6.994   3.028   9.815
 5825WAT     H117717   7.051   3.005   9.736
 5825WAT     H217718   6.900   2.999   9.797
 5826WAT      O17719   4.447   8.332   6.384
 5826WAT     H117720   4.393   8.416   6.373
 5826WAT     H217721   4.541   8.350   6.353
 5827WAT      O17722   7.800   7.553   2.553
 5827WAT     H117723   7.707   7.548   2.517
 5827WAT     H217724   7.863   7.516   2.485
 5828WAT      O17725   5.499   5.170   9.093
 5828WAT     H117726   5.507   5.246   9.028
 5828WAT     H217727   5.501   5.084   9.043
 5829WAT      O17728   3.872   1.029   1.283
 5829WAT     H117729   3.797   0.972   1.318
 5829WAT     H217730   3.954   1.014   1.340
 5830WAT      O17731   0.717   2.715   6.206
 5830WAT     H117732   0.700   2.652   6.130
 5830WAT     H217733   0.751   2.664   6.285
 5831WAT      O17734   7.620   0.898   6.755
 5831WAT     H117735   7.603   0.991   6.788
 5831WAT     H217736   7.597   0.893   6.658
 5832WAT      O17737   6.378   6.745   4.355
 5832WAT     H117738   6.292   6.782   4.320
 5832WAT     H217739   6.375   6.743   4.455
 5833WAT      O17740   4.873   1.639   2.586
 5833WAT     H117741   4.869   1.656   2.685
 5833WAT     H217742   4.958   1.592   2.564
 5834WAT      O17743   5.563   9.830   7.548
 5834WAT     H117744   5.630   9.829   7.622
 5834WAT     H217745   5.591   9.766   7.477
 5835WAT      O17746   0.694   6.648   1.204
 5835WAT     H117747   0.779   6.623   1.156
 5835WAT     H217748   0.676   6.582   1.276
 5836WAT      O17749   1.337   6.657   7.483
 5836WAT     H117750   1.335   6.655   7.583
 5836WAT     H217751   1.424   6.694   7.453
 5837WAT      O17752   5.275   0.174   4.781
 5837WAT     H117753   5.175   0.167   4.774
 5837WAT     H217754   5.316   0.143   4.696
 5838WAT      O17755   7.724   4.743   7.908
 5838WAT     H117756   7.636   4.744   7.861
 5838WAT     H217757   7.711   4.710   8.002
 5839WAT      O17758   7.214   4.315   6.019
 5839WAT     H117759   7.291   4.378   6.006
 5839WAT     H217760   7.205   4.293   6.117
 5840WAT      O17761   0.253   0.838   8.726
 5840WAT     H117762   0.239   0.760   8.665
 5840WAT     H217763   0.166   0.862   8.770
 5841WAT      O17764   6.998   3.717   0.976
 5841WAT     H117765   7.032   3.681   1.063
 5841WAT     H217766   6.929   3.654   0.939
 5842WAT      O17767   6.068   6.525   5.022
 5842WAT     H117768   6.140   6.494   5.083
 5842WAT     H217769   6.002   6.581   5.072
 5843WAT      O17770   1.064   6.234   4.767
 5843WAT     H117771   0.983   6.227   4.826
 5843WAT     H217772   1.077   6.329   4.740
 5844WAT      O17773   6.554   1.639   9.732
 5844WAT     H117774   6.539   1.545   9.764
 5844WAT     H217775   6.525   1.703   9.804
 5845WAT      O17776   8.504   7.984   2.962
 5845WAT     H117777   8.589   8.029   2.990
 5845WAT     H217778   8.431   8.052   2.954
 5846WAT      O17779   6.537   0.012   1.212
 5846WAT     H117780   6.584  -0.018   1.295
 5846WAT     H217781   6.508  -0.067   1.159
 5847WAT      O17782   0.168   0.359   3.316
 5847WAT     H117783   0.196   0.435   3.258
 5847WAT     H217784   0.072   0.337   3.297
 5848WAT      O17785   2.595   6.819   4.228
 5848WAT     H117786   2.687   6.854   4.248
 5848WAT     H217787   2.599   6.719   4.220
 5849WAT      O17788   7.559   0.304   2.897
 5849WAT     H117789   7.615   0.271   2.822
 5849WAT     H217790   7.473   0.341   2.862
 5850WAT      O17791   5.896   6.689   5.401
 5850WAT     H117792   5.896   6.744   5.318
 5850WAT     H217793   5.811   6.637   5.407
 5851WAT      O17794   8.418   5.582   2.240
 5851WAT     H117795   8.405   5.616   2.333
 5851WAT     H217796   8.428   5.660   2.178
 5852WAT      O17797   1.588   8.116   7.187
 5852WAT     H117798   1.657   8.146   7.253
 5852WAT     H217799   1.507   8.083   7.236
 5853WAT      O17800   7.949   5.677   9.285
 5853WAT     H117801   8.024   5.611   9.285
 5853WAT     H217802   7.974   5.755   9.343
 5854WAT      O17803   5.938   5.771   0.194
 5854WAT     H117804   5.951   5.771   0.294
 5854WAT     H217805   5.914   5.863   0.164
 5855WAT      O17806   2.721   2.458   0.125
 5855WAT     H117807   2.650   2.417   0.183
 5855WAT     H217808   2.808   2.413   0.144
 5856WAT      O17809   0.478   2.294   9.638
 5856WAT     H117810   0.478   2.360   9.713
 5856WAT     H217811   0.527   2.333   9.559
 5857WAT      O17812   4.000   6.593   6.998
 5857WAT     H117813   3.983   6.511   6.944
 5857WAT     H217814   3.913   6.640   7.015
 5858WAT      O17815   6.828   6.203   4.477
 5858WAT     H117816   6.786   6.270   4.415
 5858WAT     H217817   6.758   6.140   4.510
 5859WAT      O17818   3.263   4.918   6.678
 5859WAT     H117819   3.323   4.992   6.648
 5859WAT     H217820   3.307   4.867   6.752
 5860WAT      O17821   1.559   0.262   4.921
 5860WAT     H117822   1.600   0.175   4.894
 5860WAT     H217823   1.611   0.338   4.882
 5861WAT      O17824   1.625   1.691   3.457
 5861WAT     H117825   1.636   1.602   3.502
 5861WAT     H217826   1.548   1.739   3.498
 5862WAT      O17827   2.630   7.512   2.130
 5862WAT     H117828   2.652   7.608   2.149
 5862WAT     H217829   2.686   7.478   2.055
 5863WAT      O17830   5.052   4.032   8.352
 5863WAT     H117831   5.087   3.939   8.340
 5863WAT     H217832   5.051   4.056   8.449
 5864WAT      O17833   1.131   5.355   5.714
 5864WAT     H117834   1.161   5.318   5.626
 5864WAT     H217835   1.046   5.310   5.741
 5865WAT      O17836   7.890   3.629   7.624
 5865WAT     H117837   7.942   3.631   7.709
 5865WAT     H217838   7.816   3.695   7.628
 5866WAT      O17839   5.059   9.107   9.065
 5866WAT     H117840   5.131   9.176   9.053
 5866WAT     H217841   5.098   9.025   9.107
 5867WAT      O17842   6.097   4.226   6.484
 5867WAT     H117843   6.181   4.249   6.435
 5867WAT     H217844   6.059   4.141   6.447
 5868WAT      O17845   5.213   6.857   5.512
 5868WAT     H117846   5.119   6.859   5.479
 5868WAT     H217847   5.226   6.779   5.572
 5869WAT      O17848   1.273   1.894   8.908
 5869WAT     H117849   1.205   1.827   8.877
 5869WAT     H217850   1.304   1.870   9.000
 5870WAT      O17851   3.356   3.192   9.020
 5870WAT     H117852   3.453   3.215   9.020
 5870WAT     H217853   3.342   3.104   9.065
 5871WAT      O17854   2.746   6.180   3.822
 5871WAT     H117855   2.795   6.093   3.814
 5871WAT     H217856   2.778   6.243   3.751
 5872WAT      O17857   4.054   6.434   5.146
 5872WAT     H117858   4.081   6.338   5.157
 5872WAT     H217859   4.067   6.461   5.050
 5873WAT      O17860   9.521   1.350   6.787
 5873WAT     H117861   9.519   1.450   6.781
 5873WAT     H217862   9.429   1.316   6.803
 5874WAT      O17863   8.731   2.238   1.928
 5874WAT     H117864   8.795   2.240   2.004
 5874WAT     H217865   8.717   2.331   1.893
 5875WAT      O17866   9.776   1.956   2.922
 5875WAT     H117867   9.708   1.908   2.867
 5875WAT     H217868   9.850   1.989   2.863
 5876WAT      O17869   1.971   3.785   6.117
 5876WAT     H117870   1.925   3.799   6.204
 5876WAT     H217871   1.979   3.687   6.100
 5877WAT      O17872   8.896   3.097   8.626
 5877WAT     H117873   8.994   3.097   8.604
 5877WAT     H217874   8.845   3.055   8.552
 5878WAT      O17875   1.220   4.795   4.912
 5878WAT     H117876   1.230   4.889   4.878
 5878WAT     H217877   1.138   4.788   4.968
 5879WAT      O17878   9.061   8.982   3.981
 5879WAT     H117879   9.115   8.902   3.954
 5879WAT     H217880   9.110   9.032   4.053
 5880WAT      O17881   8.393   2.053   9.814
 5880WAT     H117882   8.445   2.117   9.870
 5880WAT     H217883   8.457   1.998   9.759
 5881WAT      O17884   6.509   6.523   2.713
 5881WAT     H117885   6.456   6.525   2.798
 5881WAT     H217886   6.567   6.604   2.708
 5882WAT      O17887   8.484   8.704   9.227
 5882WAT     H117888   8.396   8.657   9.218
 5882WAT     H217889   8.558   8.644   9.197
 5883WAT      O17890   2.843   5.302   8.934
 5883WAT     H117891   2.910   5.329   8.864
 5883WAT     H217892   2.886   5.307   9.024
 5884WAT      O17893   5.369   3.766   1.480
 5884WAT     H117894   5.362   3.744   1.577
 5884WAT     H217895   5.378   3.682   1.427
 5885WAT      O17896   7.016   6.913   8.242
 5885WAT     H117897   7.062   6.826   8.254
 5885WAT     H217898   7.082   6.984   8.217
 5886WAT      O17899   9.530   3.436   5.901
 5886WAT     H117900   9.465   3.496   5.947
 5886WAT     H217901   9.620   3.445   5.944
 5887WAT      O17902   8.553   2.704   4.113
 5887WAT     H117903   8.481   2.635   4.105
 5887WAT     H217904   8.544   2.752   4.201
 5888WAT      O17905   7.842   2.495   8.369
 5888WAT     H117906   7.878   2.464   8.457
 5888WAT     H217907   7.760   2.551   8.385
 5889WAT      O17908   9.846   8.507   7.971
 5889WAT     H117909   9.898   8.517   7.887
 5889WAT     H217910   9.812   8.597   8.000
 5890WAT      O17911   7.518   0.544   5.231
 5890WAT     H117912   7.434   0.493   5.251
 5890WAT     H217913   7.597   0.485   5.243
 5891WAT      O17914   9.069   6.732   4.883
 5891WAT     H117915   9.062   6.647   4.830
 5891WAT     H217916   8.981   6.750   4.928
 5892WAT      O17917   8.573   2.819   5.764
 5892WAT     H117918   8.669   2.801   5.787
 5892WAT     H217919   8.566   2.905   5.713
 5893WAT      O17920   3.277   8.789   7.361
 5893WAT     H117921   3.198   8.758   7.414
 5893WAT     H217922   3.256   8.875   7.316
 5894WAT      O17923   8.701   5.502   5.565
 5894WAT     H117924   8.603   5.481   5.568
 5894WAT     H217925   8.744   5.468   5.648
 5895WAT      O17926   5.356   5.442   6.294
 5895WAT     H117927   5.387   5.359   6.340
 5895WAT     H217928   5.401   5.521   6.335
 5896WAT      O17929   6.883   3.914   9.017
 5896WAT     H117930   6.914   3.930   8.923
 5896WAT     H217931   6.907   3.821   9.045
 5897WAT      O17932   9.371   6.309   8.952
 5897WAT     H117933   9.402   6.223   8.993
 5897WAT     H217934   9.444   6.346   8.893
 5898WAT      O17935   1.363   5.162   1.810
 5898WAT     H117936   1.380   5.102   1.888
 5898WAT     H217937   1.428   5.140   1.737
 5899WAT      O17938   5.585   5.660   5.892
 5899WAT     H117939   5.550   5.634   5.802
 5899WAT     H217940   5.607   5.578   5.944
 5900WAT      O17941   3.382   5.920   1.440
 5900WAT     H117942   3.395   5.821   1.449
 5900WAT     H217943   3.347   5.942   1.349
 5901WAT      O17944   1.946   6.516   1.830
 5901WAT     H117945   1.889   6.575   1.887
 5901WAT     H217946   2.030   6.493   1.879
 5902WAT      O17947   2.870   4.619   3.578
 5902WAT     H117948   2.824   4.540   3.618
 5902WAT     H217949   2.881   4.690   3.647
 5903WAT      O17950   2.775   5.735   7.064
 5903WAT     H117951   2.837   5.774   6.996
 5903WAT     H217952   2.799   5.640   7.081
 5904WAT      O17953   5.403   7.638   6.919
 5904WAT     H117954   5.470   7.565   6.933
 5904WAT     H217955   5.448   7.718   6.880
 5905WAT      O17956   1.568   6.785   1.034
 5905WAT     H117957   1.623   6.736   1.101
 5905WAT     H217958   1.476   6.801   1.072
 5906WAT      O17959   5.131   3.934   3.994
 5906WAT     H117960   5.092   3.858   3.943
 5906WAT     H217961   5.198   3.901   4.060
 5907WAT      O17962   8.536   0.379   0.082
 5907WAT     H117963   8.486   0.295   0.102
 5907WAT     H217964   8.632   0.368   0.108
 5908WAT      O17965   8.835   4.252   5.366
 5908WAT     H117966   8.794   4.302   5.290
 5908WAT     H217967   8.934   4.255   5.359
 5909WAT      O17968   0.616   7.888   8.481
 5909WAT     H117969   0.592   7.984   8.465
 5909WAT     H217970   0.675   7.856   8.407
 5910WAT      O17971   3.620   2.859   6.121
 5910WAT     H117972   3.666   2.924   6.182
 5910WAT     H217973   3.637   2.885   6.026
 5911WAT      O17974   1.098   5.358   9.703
 5911WAT     H117975   1.194   5.333   9.688
 5911WAT     H217976   1.079   5.362   9.801
 5912WAT      O17977   1.398   4.231   5.222
 5912WAT     H117978   1.326   4.285   5.179
 5912WAT     H217979   1.358   4.151   5.268
 5913WAT      O17980   7.287   5.957   2.346
 5913WAT     H117981   7.200   5.909   2.349
 5913WAT     H217982   7.323   5.956   2.253
 5914WAT      O17983   6.361   2.559   5.376
 5914WAT     H117984   6.451   2.585   5.340
 5914WAT     H217985   6.361   2.567   5.476
 5915WAT      O17986   0.957   1.492   7.956
 5915WAT     H117987   0.955   1.403   7.911
 5915WAT     H217988   0.874   1.542   7.935
 5916WAT      O17989   9.839   0.713   3.709
 5916WAT     H117990   9.821   0.682   3.616
 5916WAT     H217991   9.875   0.636   3.763
 5917WAT      O17992   6.417   6.727   7.310
 5917WAT     H117993   6.391   6.823   7.322
 5917WAT     H217994   6.377   6.672   7.384
 5918WAT      O17995   5.985   1.360   3.071
 5918WAT     H117996   5.981   1.324   2.978
 5918WAT     H217997   5.894   1.361   3.111
 5919WAT      O17998   9.370   3.698   4.422
 5919WAT     H117999   9.389   3.720   4.327
 5919WAT     H218000   9.385   3.779   4.479
 5920WAT      O18001   5.892   5.103   8.411
 5920WAT     H118002   5.824   5.113   8.484
 5920WAT     H218003   5.848   5.116   8.322
 5921WAT      O18004   7.426   3.741   4.642
 5921WAT     H118005   7.363   3.734   4.719
 5921WAT     H218006   7.388   3.692   4.563
 5922WAT      O18007   6.545   4.630   9.678
 5922WAT     H118008   6.632   4.671   9.705
 5922WAT     H218009   6.482   4.701   9.648
 5923WAT      O18010   3.103   0.452   9.651
 5923WAT     H118011   3.037   0.403   9.594
 5923WAT     H218012   3.163   0.507   9.592
 5924WAT      O18013   0.449   1.347   5.768
 5924WAT     H118014   0.446   1.247   5.762
 5924WAT     H218015   0.357   1.384   5.764
 5925WAT      O18016   3.740   3.985   6.628
 5925WAT     H118017   3.768   3.901   6.581
 5925WAT     H218018   3.721   4.056   6.560
 5926WAT      O18019   5.314   6.960   0.166
 5926WAT     H118020   5.236   6.994   0.114
 5926WAT     H218021   5.399   6.985   0.120
 5927WAT      O18022   5.109   4.304   3.100
 5927WAT     H118023   5.196   4.292   3.148
 5927WAT     H218024   5.034   4.274   3.159
 5928WAT      O18025   2.325   8.008   1.633
 5928WAT     H118026   2.253   7.989   1.566
 5928WAT     H218027   2.386   7.930   1.640
 5929WAT      O18028   0.227   0.622   8.577
 5929WAT     H118029   0.197   0.620   8.482
 5929WAT     H218030   0.281   0.539   8.597
 5930WAT      O18031   4.541   2.797   8.338
 5930WAT     H118032   4.483   2.864   8.385
 5930WAT     H218033   4.485   2.745   8.274
 5931WAT      O18034   1.339   3.302   5.564
 5931WAT     H118035   1.338   3.205   5.585
 5931WAT     H218036   1.433   3.337   5.568
 5932WAT      O18037   2.966   0.859   9.297
 5932WAT     H118038   2.922   0.825   9.380
 5932WAT     H218039   2.932   0.808   9.218
 5933WAT      O18040   5.239   0.205   7.918
 5933WAT     H118041   5.260   0.288   7.866
 5933WAT     H218042   5.168   0.153   7.871
 5934WAT      O18043   1.032   9.349   8.087
 5934WAT     H118044   1.014   9.427   8.148
 5934WAT     H218045   1.022   9.378   7.992
 5935WAT      O18046   1.295   1.723   2.901
 5935WAT     H118047   1.268   1.645   2.957
 5935WAT     H218048   1.282   1.701   2.804
 5936WAT      O18049   3.326   8.115   3.941
 5936WAT     H118050   3.396   8.056   3.900
 5936WAT     H218051   3.246   8.061   3.966
 5937WAT      O18052   6.725   6.972   4.272
 5937WAT     H118053   6.693   7.067   4.275
 5937WAT     H218054   6.760   6.952   4.181
 5938WAT      O18055   3.672   9.012   6.268
 5938WAT     H118056   3.691   8.938   6.333
 5938WAT     H218057   3.670   8.975   6.175
 5939WAT      O18058   1.644   2.772   2.435
 5939WAT     H118059   1.704   2.729   2.503
 5939WAT     H218060   1.591   2.844   2.479
 5940WAT      O18061   5.376   4.188   3.173
 5940WAT     H118062   5.385   4.142   3.084
 5940WAT     H218063   5.407   4.127   3.245
 5941WAT      O18064   9.234   6.948   6.807
 5941WAT     H118065   9.158   6.896   6.845
 5941WAT     H218066   9.308   6.954   6.875
 5942WAT      O18067   1.256   0.971   8.327
 5942WAT     H118068   1.163   0.985   8.294
 5942WAT     H218069   1.307   1.057   8.321
 5943WAT      O18070   4.458   8.339   8.839
 5943WAT     H118071   4.462   8.411   8.770
 5943WAT     H218072   4.447   8.250   8.795
 5944WAT      O18073   4.827   1.685   6.963
 5944WAT     H118074   4.847   1.637   6.877
 5944WAT     H218075   4.817   1.783   6.945
 5945WAT      O18076   3.296   8.647   5.289
 5945WAT     H118077   3.315   8.660   5.386
 5945WAT     H218078   3.316   8.553   5.263
 5946WAT      O18079   2.455   5.430   1.688
 5946WAT     H118080   2.413   5.345   1.658
 5946WAT     H218081   2.525   5.458   1.621
 5947WAT      O18082   9.350   6.807   1.522
 5947WAT     H118083   9.271   6.836   1.576
 5947WAT     H218084   9.434   6.828   1.572
 5948WAT      O18085   1.903   1.659   4.899
 5948WAT     H118086   1.968   1.675   4.973
 5948WAT     H218087   1.936   1.585   4.841
 5949WAT      O18088   4.126   8.457   5.859
 5949WAT     H118089   4.043   8.481   5.809
 5949WAT     H218090   4.160   8.369   5.826
 5950WAT      O18091   0.293   1.699   6.331
 5950WAT     H118092   0.329   1.634   6.398
 5950WAT     H218093   0.330   1.790   6.349
 5951WAT      O18094   7.792   2.157   4.222
 5951WAT     H118095   7.839   2.095   4.159
 5951WAT     H218096   7.704   2.117   4.248
 5952WAT      O18097   3.137   6.431   7.812
 5952WAT     H118098   3.151   6.457   7.717
 5952WAT     H218099   3.167   6.336   7.826
 5953WAT      O18100   5.420   5.834   6.941
 5953WAT     H118101   5.365   5.752   6.955
 5953WAT     H218102   5.461   5.862   7.028
 5954WAT      O18103   1.667   7.023   2.107
 5954WAT     H118104   1.655   7.013   2.206
 5954WAT     H218105   1.755   6.984   2.080
 5955WAT      O18106   7.713   6.324   8.499
 5955WAT     H118107   7.735   6.265   8.577
 5955WAT     H218108   7.756   6.413   8.512
 5956WAT      O18109   0.849   8.074   6.040
 5956WAT     H118110   0.850   8.022   6.126
 5956WAT     H218111   0.865   8.012   5.963
 5957WAT      O18112   2.483   1.421   0.841
 5957WAT     H118113   2.532   1.464   0.765
 5957WAT     H218114   2.549   1.391   0.911
 5958WAT      O18115   5.996   1.426   1.657
 5958WAT     H118116   5.988   1.524   1.640
 5958WAT     H218117   5.915   1.393   1.704
 5959WAT      O18118   8.582   0.723   3.452
 5959WAT     H118119   8.631   0.753   3.371
 5959WAT     H218120   8.533   0.801   3.492
 5960WAT      O18121   9.608   3.221   2.068
 5960WAT     H118122   9.689   3.279   2.061
 5960WAT     H218123   9.636   3.125   2.071
 5961WAT      O18124   3.132   6.997   9.144
 5961WAT     H118125   3.059   6.932   9.122
 5961WAT     H218126   3.170   6.974   9.234
 5962WAT      O18127   7.790   3.285   5.188
 5962WAT     H118128   7.886   3.263   5.201
 5962WAT     H218129   7.762   3.264   5.094
 5963WAT      O18130   3.202   8.729   1.625
 5963WAT     H118131   3.157   8.796   1.567
 5963WAT     H218132   3.138   8.657   1.650
 5964WAT      O18133   6.609   0.068   9.718
 5964WAT     H118134   6.640   0.031   9.805
 5964WAT     H218135   6.671   0.142   9.689
 5965WAT      O18136   7.868   3.920   5.392
 5965WAT     H118137   7.789   3.862   5.372
 5965WAT     H218138   7.841   3.991   5.457
 5966WAT      O18139   2.157   3.526   3.951
 5966WAT     H118140   2.248   3.558   3.976
 5966WAT     H218141   2.156   3.497   3.855
 5967WAT      O18142   0.557   7.215   6.914
 5967WAT     H118143   0.550   7.294   6.975
 5967WAT     H218144   0.570   7.132   6.967
 5968WAT      O18145   9.485   1.150   9.352
 5968WAT     H118146   9.526   1.218   9.412
 5968WAT     H218147   9.549   1.074   9.339
 5969WAT      O18148   1.175   3.191   2.318
 5969WAT     H118149   1.160   3.120   2.387
 5969WAT     H218150   1.192   3.147   2.229
 5970WAT      O18151   7.008   6.582   8.868
 5970WAT     H118152   6.957   6.529   8.936
 5970WAT     H218153   7.076   6.522   8.825
 5971WAT      O18154   8.667   9.338   5.379
 5971WAT     H118155   8.666   9.399   5.300
 5971WAT     H218156   8.711   9.383   5.456
 5972WAT      O18157   4.457   2.552   1.243
 5972WAT     H118158   4.405   2.611   1.305
 5972WAT     H218159   4.554   2.575   1.249
 5973WAT      O18160   9.733   1.585   3.705
 5973WAT     H118161   9.683   1.499   3.692
 5973WAT     H218162   9.818   1.567   3.755
 5974WAT      O18163   6.224   7.813   2.396
 5974WAT     H118164   6.283   7.792   2.474
 5974WAT     H218165   6.172   7.732   2.371
 5975WAT      O18166   8.616   7.237   0.345
 5975WAT     H118167   8.532   7.275   0.384
 5975WAT     H218168   8.602   7.141   0.324
 5976WAT      O18169   1.667   2.491   0.881
 5976WAT     H118170   1.657   2.469   0.784
 5976WAT     H218171   1.701   2.410   0.930
 5977WAT      O18172   5.546   4.044   3.869
 5977WAT     H118173   5.495   4.071   3.951
 5977WAT     H218174   5.574   4.126   3.819
 5978WAT      O18175   8.880   5.784   7.454
 5978WAT     H118176   8.787   5.819   7.445
 5978WAT     H218177   8.909   5.789   7.549
 5979WAT      O18178   0.105   4.063   3.317
 5979WAT     H118179   0.109   4.079   3.219
 5979WAT     H218180   0.165   3.987   3.341
 5980WAT      O18181   9.411   9.014   3.626
 5980WAT     H118182   9.410   9.086   3.556
 5980WAT     H218183   9.451   9.051   3.710
 5981WAT      O18184   6.199   5.191   8.977
 5981WAT     H118185   6.121   5.187   9.039
 5981WAT     H218186   6.168   5.179   8.883
 5982WAT      O18187   6.047   5.323   1.269
 5982WAT     H118188   5.986   5.402   1.268
 5982WAT     H218189   6.078   5.306   1.363
 5983WAT      O18190   1.120   4.861   8.539
 5983WAT     H118191   1.115   4.855   8.639
 5983WAT     H218192   1.061   4.791   8.499
 5984WAT      O18193   3.048   2.238   8.543
 5984WAT     H118194   3.069   2.332   8.517
 5984WAT     H218195   2.959   2.212   8.505
 5985WAT      O18196   8.435   7.759   4.532
 5985WAT     H118197   8.393   7.727   4.617
 5985WAT     H218198   8.534   7.759   4.541
 5986WAT      O18199   1.815   5.054   9.689
 5986WAT     H118200   1.888   5.051   9.757
 5986WAT     H218201   1.853   5.032   9.599
 5987WAT      O18202   4.763   9.779   4.748
 5987WAT     H118203   4.664   9.761   4.745
 5987WAT     H218204   4.806   9.741   4.667
 5988WAT      O18205   3.414   1.538   1.658
 5988WAT     H118206   3.386   1.477   1.732
 5988WAT     H218207   3.450   1.623   1.698
 5989WAT      O18208   0.243   3.322   5.125
 5989WAT     H118209   0.228   3.234   5.170
 5989WAT     H218210   0.311   3.374   5.177
 5990WAT      O18211   5.438   1.459   2.340
 5990WAT     H118212   5.516   1.472   2.279
 5990WAT     H218213   5.383   1.542   2.342
 5991WAT      O18214   8.438   9.187   2.485
 5991WAT     H118215   8.389   9.263   2.528
 5991WAT     H218216   8.506   9.223   2.421
 5992WAT      O18217   1.483   0.779   0.963
 5992WAT     H118218   1.526   0.855   1.012
 5992WAT     H218219   1.397   0.755   1.008
 5993WAT      O18220   0.660   2.793   3.133
 5993WAT     H118221   0.594   2.834   3.197
 5993WAT     H218222   0.752   2.799   3.171
 5994WAT      O18223   8.765   8.213   8.869
 5994WAT     H118224   8.815   8.160   8.937
 5994WAT     H218225   8.694   8.267   8.915
 5995WAT      O18226   2.863   7.541   9.148
 5995WAT     H118227   2.808   7.516   9.068
 5995WAT     H218228   2.855   7.640   9.163
 5996WAT      O18229   0.811   8.803   1.500
 5996WAT     H118230   0.792   8.881   1.559
 5996WAT     H218231   0.784   8.719   1.546
 5997WAT      O18232   8.529   4.287   7.483
 5997WAT     H118233   8.456   4.269   7.418
 5997WAT     H218234   8.492   4.334   7.563
 5998WAT      O18235   1.409   7.362   5.757
 5998WAT     H118236   1.478   7.340   5.825
 5998WAT     H218237   1.395   7.461   5.754
 5999WAT      O18238   4.294   6.210   5.451
 5999WAT     H118239   4.222   6.152   5.490
 5999WAT     H218240   4.383   6.171   5.474
 6000WAT      O18241   1.748   0.205   8.530
 6000WAT     H118242   1.761   0.107   8.517
 6000WAT     H218243   1.797   0.234   8.613
 6001WAT      O18244   3.868   4.465   7.108
 6001WAT     H118245   3.843   4.561   7.113
 6001WAT     H218246   3.947   4.448   7.167
 6002WAT      O18247   2.994   9.525   6.944
 6002WAT     H118248   3.040   9.613   6.939
 6002WAT     H218249   3.008   9.484   7.034
 6003WAT      O18250   1.320   5.695   1.952
 6003WAT     H118251   1.366   5.784   1.946
 6003WAT     H218252   1.388   5.623   1.964
 6004WAT      O18253   7.288   6.413   7.139
 6004WAT     H118254   7.335   6.355   7.072
 6004WAT     H218255   7.192   6.388   7.143
 6005WAT      O18256   2.581   4.724   1.488
 6005WAT     H118257   2.492   4.680   1.479
 6005WAT     H218258   2.573   4.821   1.466
 6006WAT      O18259   1.117   7.349   7.271
 6006WAT     H118260   1.157   7.440   7.284
 6006WAT     H218261   1.170   7.299   7.202
 6007WAT      O18262   4.524   8.427   3.878
 6007WAT     H118263   4.436   8.449   3.917
 6007WAT     H218264   4.584   8.388   3.948
 6008WAT      O18265   1.112   3.252   9.715
 6008WAT     H118266   1.038   3.186   9.701
 6008WAT     H218267   1.128   3.303   9.631
 6009WAT      O18268   3.288   2.515   9.151
 6009WAT     H118269   3.239   2.462   9.082
 6009WAT     H218270   3.222   2.566   9.206
 6010WAT      O18271   1.981   2.736   3.596
 6010WAT     H118272   1.995   2.795   3.675
 6010WAT     H218273   1.907   2.772   3.540
 6011WAT      O18274   6.681   9.284   2.300
 6011WAT     H118275   6.647   9.244   2.215
 6011WAT     H218276   6.732   9.215   2.352
 6012WAT      O18277   0.042   0.430   1.985
 6012WAT     H118278   0.132   0.452   1.948
 6012WAT     H218279   0.046   0.430   2.085
 6013WAT      O18280   4.893   6.884   9.135
 6013WAT     H118281   4.846   6.916   9.217
 6013WAT     H218282   4.895   6.784   9.135
 6014WAT      O18283   3.385   6.757   1.215
 6014WAT     H118284   3.406   6.700   1.293
 6014WAT     H218285   3.288   6.747   1.192
 6015WAT      O18286   8.289   5.504   9.874
 6015WAT     H118287   8.339   5.590   9.886
 6015WAT     H218288   8.202   5.522   9.829
 6016WAT      O18289   3.716   4.331   3.100
 6016WAT     H118290   3.799   4.306   3.151
 6016WAT     H218291   3.636   4.300   3.151
 6017WAT      O18292   8.244   8.820   7.483
 6017WAT     H118293   8.159   8.857   7.518
 6017WAT     H218294   8.287   8.887   7.422
 6018WAT      O18295   3.798   5.090   8.289
 6018WAT     H118296   3.815   5.078   8.387
 6018WAT     H218297   3.700   5.101   8.273
 6019WAT      O18298   3.260   5.969   5.314
 6019WAT     H118299   3.250   5.870   5.302
 6019WAT     H218300   3.351   5.989   5.350
 6020WAT      O18301   4.640   8.774   9.686
 6020WAT     H118302   4.664   8.680   9.709
 6020WAT     H218303   4.642   8.785   9.586
 6021WAT      O18304   5.587   7.561   2.511
 6021WAT     H118305   5.671   7.592   2.468
 6021WAT     H218306   5.606   7.482   2.569
 6022WAT      O18307   6.406   3.046   5.796
 6022WAT     H118308   6.374   2.960   5.836
 6022WAT     H218309   6.498   3.034   5.759
 6023WAT      O18310   9.817   5.726   8.573
 6023WAT     H118311   9.850   5.664   8.644
 6023WAT     H218312   9.821   5.820   8.607
 6024WAT      O18313   8.936   7.116   8.133
 6024WAT     H118314   8.867   7.114   8.205
 6024WAT     H218315   9.019   7.069   8.164
 6025WAT      O18316   0.775   7.128   2.638
 6025WAT     H118317   0.825   7.198   2.689
 6025WAT     H218318   0.765   7.158   2.542
 6026WAT      O18319   1.093   3.459   1.548
 6026WAT     H118320   1.136   3.475   1.637
 6026WAT     H218321   1.055   3.545   1.513
 6027WAT      O18322   7.299   3.703   6.052
 6027WAT     H118323   7.372   3.771   6.042
 6027WAT     H218324   7.277   3.692   6.149
 6028WAT      O18325   0.250   7.434   8.870
 6028WAT     H118326   0.186   7.503   8.837
 6028WAT     H218327   0.312   7.408   8.796
 6029WAT      O18328   8.056   9.274   5.511
 6029WAT     H118329   7.963   9.307   5.528
 6029WAT     H218330   8.055   9.174   5.504
 6030WAT      O18331   1.298   2.194   7.960
 6030WAT     H118332   1.378   2.253   7.968
 6030WAT     H218333   1.249   2.192   8.047
 6031WAT      O18334   0.669   7.663   5.014
 6031WAT     H118335   0.675   7.590   4.946
 6031WAT     H218336   0.751   7.663   5.072
 6032WAT      O18337   7.495   2.222   8.855
 6032WAT     H118338   7.561   2.258   8.790
 6032WAT     H218339   7.541   2.196   8.940
 6033WAT      O18340   1.224   0.034   0.982
 6033WAT     H118341   1.247   0.007   1.075
 6033WAT     H218342   1.141  -0.013   0.952
 6034WAT      O18343   8.225   1.679   6.001
 6034WAT     H118344   8.131   1.661   6.030
 6034WAT     H218345   8.284   1.603   6.028
 6035WAT      O18346   3.713   6.865   0.827
 6035WAT     H118347   3.650   6.819   0.764
 6035WAT     H218348   3.680   6.853   0.921
 6036WAT      O18349   3.384   1.769   8.468
 6036WAT     H118350   3.432   1.827   8.534
 6036WAT     H218351   3.379   1.816   8.380
 6037WAT      O18352   9.048   2.010   1.305
 6037WAT     H118353   9.025   1.942   1.236
 6037WAT     H218354   9.075   1.964   1.390
 6038WAT      O18355   6.916   8.781   4.550
 6038WAT     H118356   7.000   8.834   4.538
 6038WAT     H218357   6.887   8.743   4.462
 6039WAT      O18358   5.187   4.404   3.387
 6039WAT     H118359   5.259   4.450   3.336
 6039WAT     H218360   5.122   4.471   3.423
 6040WAT      O18361   4.149   3.560   9.789
 6040WAT     H118362   4.096   3.525   9.712
 6040WAT     H218363   4.161   3.488   9.857
 6041WAT      O18364   1.797   0.613   9.222
 6041WAT     H118365   1.741   0.535   9.247
 6041WAT     H218366   1.891   0.599   9.253
 6042WAT      O18367   1.345   0.489   6.625
 6042WAT     H118368   1.382   0.548   6.554
 6042WAT     H218369   1.383   0.397   6.615
 6043WAT      O18370   0.820   0.540   8.321
 6043WAT     H118371   0.904   0.502   8.361
 6043WAT     H218372   0.790   0.483   8.245
 6044WAT      O18373   9.121   8.958   8.671
 6044WAT     H118374   9.131   9.039   8.612
 6044WAT     H218375   9.207   8.942   8.720
 6045WAT      O18376   6.538   1.947   5.817
 6045WAT     H118377   6.615   2.007   5.840
 6045WAT     H218378   6.542   1.865   5.873
 6046WAT      O18379   8.133   5.668   0.709
 6046WAT     H118380   8.095   5.737   0.769
 6046WAT     H218381   8.096   5.578   0.733
 6047WAT      O18382   0.234   9.334   6.414
 6047WAT     H118383   0.191   9.317   6.502
 6047WAT     H218384   0.333   9.325   6.423
 6048WAT      O18385   2.127   3.613   7.918
 6048WAT     H118386   2.160   3.523   7.947
 6048WAT     H218387   2.197   3.659   7.864
 6049WAT      O18388   9.606   6.771   3.531
 6049WAT     H118389   9.632   6.696   3.471
 6049WAT     H218390   9.620   6.743   3.626
 6050WAT      O18391   3.946   0.091   7.973
 6050WAT     H118392   4.005   0.105   8.053
 6050WAT     H218393   3.942  -0.007   7.951
 6051WAT      O18394   4.785   2.815   7.511
 6051WAT     H118395   4.863   2.772   7.557
 6051WAT     H218396   4.741   2.879   7.573
 6052WAT      O18397   4.240   3.095   9.340
 6052WAT     H118398   4.205   3.185   9.366
 6052WAT     H218399   4.312   3.067   9.404
 6053WAT      O18400   6.723   9.628   3.929
 6053WAT     H118401   6.790   9.573   3.979
 6053WAT     H218402   6.665   9.678   3.994
 6054WAT      O18403   3.596   9.476   1.998
 6054WAT     H118404   3.604   9.454   2.095
 6054WAT     H218405   3.617   9.395   1.943
 6055WAT      O18406   5.222   1.489   5.339
 6055WAT     H118407   5.296   1.503   5.405
 6055WAT     H218408   5.153   1.559   5.352
 6056WAT      O18409   9.676   5.383   6.527
 6056WAT     H118410   9.674   5.289   6.491
 6056WAT     H218411   9.724   5.384   6.615
 6057WAT      O18412   7.535   8.579   9.008
 6057WAT     H118413   7.452   8.526   9.029
 6057WAT     H218414   7.561   8.564   8.913
 6058WAT      O18415   8.173   1.084   0.176
 6058WAT     H118416   8.093   1.031   0.205
 6058WAT     H218417   8.253   1.056   0.228
 6059WAT      O18418   4.352   9.820   4.352
 6059WAT     H118419   4.397   9.846   4.438
 6059WAT     H218420   4.314   9.902   4.309
 6060WAT      O18421   3.422   8.639   7.955
 6060WAT     H118422   3.423   8.580   8.035
 6060WAT     H218423   3.416   8.583   7.872
 6061WAT      O18424   7.909   4.132   0.589
 6061WAT     H118425   7.997   4.156   0.548
 6061WAT     H218426   7.887   4.037   0.566
 6062WAT      O18427   4.147   2.214   3.743
 6062WAT     H118428   4.203   2.200   3.825
 6062WAT     H218429   4.183   2.291   3.691
 6063WAT      O18430   2.009   4.159   4.203
 6063WAT     H118431   2.061   4.155   4.117
 6063WAT     H218432   1.912   4.166   4.182
 6064WAT      O18433   2.858   8.960   3.206
 6064WAT     H118434   2.884   8.955   3.110
 6064WAT     H218435   2.792   8.887   3.226
 6065WAT      O18436   3.028   4.629   8.784
 6065WAT     H118437   2.937   4.600   8.754
 6065WAT     H218438   3.019   4.700   8.854
 6066WAT      O18439   3.931   8.040   7.244
 6066WAT     H118440   3.880   8.053   7.159
 6066WAT     H218441   4.027   8.062   7.228
 6067WAT      O18442   0.121   4.310   7.033
 6067WAT     H118443   0.139   4.366   7.114
 6067WAT     H218444   0.183   4.337   6.959
 6068WAT      O18445   8.859   8.695   3.534
 6068WAT     H118446   8.861   8.687   3.435
 6068WAT     H218447   8.907   8.618   3.575
 6069WAT      O18448   2.126   9.621   1.764
 6069WAT     H118449   2.172   9.550   1.711
 6069WAT     H218450   2.138   9.710   1.719
 6070WAT      O18451   2.097   2.770   1.920
 6070WAT     H118452   2.109   2.672   1.901
 6070WAT     H218453   2.003   2.797   1.897
 6071WAT      O18454   2.727   2.852   5.737
 6071WAT     H118455   2.664   2.922   5.772
 6071WAT     H218456   2.709   2.837   5.640
 6072WAT      O18457   9.201   6.585   3.242
 6072WAT     H118458   9.258   6.506   3.218
 6072WAT     H218459   9.249   6.641   3.310
 6073WAT      O18460   6.562   2.422   9.630
 6073WAT     H118461   6.478   2.473   9.645
 6073WAT     H218462   6.639   2.473   9.668
 6074WAT      O18463   9.324   0.736   9.209
 6074WAT     H118464   9.404   0.763   9.154
 6074WAT     H218465   9.353   0.716   9.302
 6075WAT      O18466   9.284   2.661   1.609
 6075WAT     H118467   9.253   2.567   1.595
 6075WAT     H218468   9.378   2.670   1.574
 6076WAT      O18469   2.045   7.729   5.277
 6076WAT     H118470   1.999   7.640   5.282
 6076WAT     H218471   1.981   7.797   5.242
 6077WAT      O18472   8.100   0.213   1.069
 6077WAT     H118473   8.132   0.275   1.141
 6077WAT     H218474   8.025   0.157   1.104
 6078WAT      O18475   8.407   2.877   5.385
 6078WAT     H118476   8.431   2.912   5.475
 6078WAT     H218477   8.320   2.828   5.390
 6079WAT      O18478   7.816   3.222   3.407
 6079WAT     H118479   7.878   3.152   3.444
 6079WAT     H218480   7.868   3.292   3.360
 6080WAT      O18481   2.049   2.240   4.024
 6080WAT     H118482   2.001   2.152   4.015
 6080WAT     H218483   2.055   2.283   3.934
 6081WAT      O18484   5.590   7.797   0.059
 6081WAT     H118485   5.508   7.843   0.094
 6081WAT     H218486   5.564   7.732  -0.012
 6082WAT      O18487   9.755   1.532   9.127
 6082WAT     H118488   9.674   1.482   9.097
 6082WAT     H218489   9.818   1.542   9.050
 6083WAT      O18490   4.125   7.296   0.343
 6083WAT     H118491   4.073   7.237   0.404
 6083WAT     H218492   4.082   7.297   0.252
 6084WAT      O18493   1.908   9.187   7.188
 6084WAT     H118494   1.876   9.275   7.153
 6084WAT     H218495   1.835   9.119   7.182
 6085WAT      O18496   8.824   8.330   6.362
 6085WAT     H118497   8.866   8.300   6.447
 6085WAT     H218498   8.732   8.292   6.354
 6086WAT      O18499   1.876   2.149   8.088
 6086WAT     H118500   1.816   2.070   8.089
 6086WAT     H218501   1.904   2.169   7.994
 6087WAT      O18502   9.347   5.202   6.077
 6087WAT     H118503   9.363   5.181   5.981
 6087WAT     H218504   9.434   5.211   6.125
 6088WAT      O18505   4.598   0.559   2.088
 6088WAT     H118506   4.625   0.576   2.183
 6088WAT     H218507   4.501   0.537   2.085
 6089WAT      O18508   7.101   0.142   7.477
 6089WAT     H118509   7.176   0.116   7.416
 6089WAT     H218510   7.036   0.066   7.483
 6090WAT      O18511   1.797   3.680   3.978
 6090WAT     H118512   1.816   3.583   3.962
 6090WAT     H218513   1.699   3.697   3.968
 6091WAT      O18514   4.706   1.498   4.606
 6091WAT     H118515   4.706   1.461   4.513
 6091WAT     H218516   4.631   1.457   4.658
 6092WAT      O18517   5.109   7.373   8.352
 6092WAT     H118518   5.086   7.469   8.336
 6092WAT     H218519   5.038   7.330   8.408
 6093WAT      O18520   7.630   6.140   5.846
 6093WAT     H118521   7.697   6.191   5.792
 6093WAT     H218522   7.593   6.066   5.790
 6094WAT      O18523   5.453   2.867   2.372
 6094WAT     H118524   5.483   2.961   2.382
 6094WAT     H218525   5.364   2.855   2.417
 6095WAT      O18526   7.637   6.646   9.464
 6095WAT     H118527   7.634   6.690   9.554
 6095WAT     H218528   7.717   6.681   9.414
 6096WAT      O18529   1.416   0.589   4.495
 6096WAT     H118530   1.474   0.509   4.480
 6096WAT     H218531   1.413   0.610   4.593
 6097WAT      O18532   9.388   0.043   4.619
 6097WAT     H118533   9.292   0.029   4.643
 6097WAT     H218534   9.441  -0.038   4.643
 6098WAT      O18535   5.323   0.320   7.367
 6098WAT     H118536   5.373   0.235   7.353
 6098WAT     H218537   5.244   0.303   7.426
 6099WAT      O18538   8.040   9.509   5.970
 6099WAT     H118539   8.075   9.415   5.966
 6099WAT     H218540   7.940   9.507   5.974
 6100WAT      O18541   9.323   3.109   1.404
 6100WAT     H118542   9.273   3.136   1.486
 6100WAT     H218543   9.421   3.100   1.426
 6101WAT      O18544   9.293   1.797   5.220
 6101WAT     H118545   9.348   1.789   5.137
 6101WAT     H218546   9.353   1.791   5.300
 6102WAT      O18547   4.689   2.830   3.389
 6102WAT     H118548   4.678   2.927   3.365
 6102WAT     H218549   4.779   2.817   3.431
 6103WAT      O18550   3.347   6.686   6.706
 6103WAT     H118551   3.276   6.756   6.698
 6103WAT     H218552   3.404   6.706   6.785
 6104WAT      O18553   7.505   7.199   2.863
 6104WAT     H118554   7.561   7.252   2.926
 6104WAT     H218555   7.498   7.247   2.776
 6105WAT      O18556   6.229   9.582   6.640
 6105WAT     H118557   6.329   9.576   6.631
 6105WAT     H218558   6.199   9.523   6.714
 6106WAT      O18559   7.419   9.725   4.263
 6106WAT     H118560   7.332   9.698   4.222
 6106WAT     H218561   7.421   9.825   4.274
 6107WAT      O18562   0.505   4.091   3.371
 6107WAT     H118563   0.492   4.132   3.461
 6107WAT     H218564   0.590   4.038   3.371
 6108WAT      O18565   0.571   6.626   2.472
 6108WAT     H118566   0.627   6.636   2.554
 6108WAT     H218567   0.555   6.529   2.454
 6109WAT      O18568   1.108   5.804   4.430
 6109WAT     H118569   1.114   5.869   4.506
 6109WAT     H218570   1.026   5.748   4.440
 6110WAT      O18571   1.072   7.164   1.155
 6110WAT     H118572   0.984   7.193   1.193
 6110WAT     H218573   1.141   7.234   1.176
 6111WAT      O18574   9.791   2.526   8.672
 6111WAT     H118575   9.880   2.506   8.713
 6111WAT     H218576   9.800   2.529   8.572
 6112WAT      O18577   8.332   4.078   0.057
 6112WAT     H118578   8.369   4.045  -0.030
 6112WAT     H218579   8.277   4.160   0.041
 6113WAT      O18580   5.224   8.152   4.000
 6113WAT     H118581   5.291   8.078   4.003
 6113WAT     H218582   5.250   8.218   3.929
 6114WAT      O18583   0.596   3.103   2.574
 6114WAT     H118584   0.595   3.149   2.484
 6114WAT     H218585   0.593   3.172   2.646
 6115WAT      O18586   5.420   6.534   9.134
 6115WAT     H118587   5.370   6.562   9.052
 6115WAT     H218588   5.371   6.568   9.215
 6116WAT      O18589   9.873   9.539   5.953
 6116WAT     H118590   9.884   9.635   5.926
 6116WAT     H218591   9.851   9.534   6.050
 6117WAT      O18592   3.836   7.364   5.018
 6117WAT     H118593   3.924   7.366   4.971
 6117WAT     H218594   3.844   7.412   5.106
 6118WAT      O18595   3.536   6.178   2.257
 6118WAT     H118596   3.481   6.259   2.236
 6118WAT     H218597   3.502   6.100   2.204
 6119WAT      O18598   6.242   9.036   4.643
 6119WAT     H118599   6.245   9.136   4.637
 6119WAT     H218600   6.336   9.000   4.645
 6120WAT      O18601   1.550   6.693   0.796
 6120WAT     H118602   1.638   6.695   0.748
 6120WAT     H218603   1.558   6.740   0.884
 6121WAT      O18604   2.248   3.485   4.975
 6121WAT     H118605   2.231   3.404   4.919
 6121WAT     H218606   2.298   3.553   4.922
 6122WAT      O18607   7.966   0.091   7.281
 6122WAT     H118608   8.001   0.068   7.191
 6122WAT     H218609   7.978   0.013   7.342
 6123WAT      O18610   5.036   0.944   5.990
 6123WAT     H118611   5.047   0.878   6.064
 6123WAT     H218612   4.938   0.954   5.969
 6124WAT      O18613   7.099   1.459   0.913
 6124WAT     H118614   7.187   1.475   0.959
 6124WAT     H218615   7.071   1.542   0.865
 6125WAT      O18616   7.854   8.639   4.226
 6125WAT     H118617   7.897   8.718   4.270
 6125WAT     H218618   7.811   8.668   4.141
 6126WAT      O18619   6.543   5.449   7.950
 6126WAT     H118620   6.559   5.545   7.927
 6126WAT     H218621   6.629   5.399   7.946
 6127WAT      O18622   1.092   6.853   4.771
 6127WAT     H118623   1.106   6.758   4.801
 6127WAT     H218624   0.995   6.877   4.783
 6128WAT      O18625   0.147   0.804   4.727
 6128WAT     H118626   0.220   0.740   4.701
 6128WAT     H218627   0.061   0.753   4.738
 6129WAT      O18628   0.253   3.047   4.248
 6129WAT     H118629   0.219   2.982   4.315
 6129WAT     H218630   0.177   3.082   4.193
 6130WAT      O18631   3.573   5.392   1.532
 6130WAT     H118632   3.644   5.326   1.505
 6130WAT     H218633   3.528   5.427   1.450
 6131WAT      O18634   1.830   6.116   8.172
 6131WAT     H118635   1.757   6.126   8.240
 6131WAT     H218636   1.831   6.023   8.137
 6132WAT      O18637   3.682   1.907   0.259
 6132WAT     H118638   3.711   1.925   0.353
 6132WAT     H218639   3.629   1.985   0.225
 6133WAT      O18640   0.990   9.338   4.087
 6133WAT     H118641   0.986   9.316   4.184
 6133WAT     H218642   0.905   9.383   4.060
 6134WAT      O18643   3.539   0.215   5.518
 6134WAT     H118644   3.634   0.204   5.489
 6134WAT     H218645   3.504   0.302   5.482
 6135WAT      O18646   1.880   4.792   2.383
 6135WAT     H118647   1.848   4.777   2.290
 6135WAT     H218648   1.977   4.770   2.388
 6136WAT      O18649   3.167   5.851   9.383
 6136WAT     H118650   3.219   5.766   9.391
 6136WAT     H218651   3.136   5.862   9.289
 6137WAT      O18652   2.137   3.978   0.021
 6137WAT     H118653   2.214   3.914   0.024
 6137WAT     H218654   2.162   4.063   0.066
 6138WAT      O18655   0.141   0.033   9.422
 6138WAT     H118656   0.177   0.121   9.391
 6138WAT     H218657   0.149   0.027   9.521
 6139WAT      O18658   9.253   6.571   5.126
 6139WAT     H118659   9.319   6.638   5.160
 6139WAT     H218660   9.165   6.585   5.172
 6140WAT      O18661   4.542   2.651   2.018
 6140WAT     H118662   4.506   2.669   2.109
 6140WAT     H218663   4.596   2.730   1.987
 6141WAT      O18664   7.851   4.264   4.897
 6141WAT     H118665   7.811   4.356   4.897
 6141WAT     H218666   7.815   4.212   4.975
 6142WAT      O18667   4.470   2.385   6.798
 6142WAT     H118668   4.487   2.298   6.752
 6142WAT     H218669   4.553   2.441   6.796
 6143WAT      O18670   6.532   3.841   1.499
 6143WAT     H118671   6.569   3.749   1.498
 6143WAT     H218672   6.439   3.840   1.462
 6144WAT      O18673   1.071   2.614   8.477
 6144WAT     H118674   0.976   2.612   8.508
 6144WAT     H218675   1.105   2.521   8.466
 6145WAT      O18676   6.022   7.274   7.990
 6145WAT     H118677   6.035   7.373   7.981
 6145WAT     H218678   6.099   7.227   7.945
 6146WAT      O18679   3.315   3.670   6.150
 6146WAT     H118680   3.225   3.646   6.186
 6146WAT     H218681   3.307   3.746   6.086
 6147WAT      O18682   7.604   3.972   4.060
 6147WAT     H118683   7.519   3.968   4.008
 6147WAT     H218684   7.682   3.969   3.996
 6148WAT      O18685   3.682   6.843   7.696
 6148WAT     H118686   3.761   6.784   7.681
 6148WAT     H218687   3.712   6.938   7.699
 6149WAT      O18688   3.999   7.363   3.815
 6149WAT     H118689   3.915   7.409   3.788
 6149WAT     H218690   3.985   7.317   3.903
 6150WAT      O18691   2.915   6.745   0.072
 6150WAT     H118692   2.898   6.650   0.101
 6150WAT     H218693   2.930   6.802   0.153
 6151WAT      O18694   4.158   1.831   4.988
 6151WAT     H118695   4.164   1.930   4.986
 6151WAT     H218696   4.245   1.792   4.958
 6152WAT      O18697   6.789   2.143   9.377
 6152WAT     H118698   6.745   2.127   9.466
 6152WAT     H218699   6.774   2.238   9.350
 6153WAT      O18700   9.732   3.566   8.943
 6153WAT     H118701   9.738   3.604   8.850
 6153WAT     H218702   9.637   3.565   8.972
 6154WAT      O18703   1.978   1.070   8.932
 6154WAT     H118704   1.880   1.059   8.949
 6154WAT     H218705   2.026   1.076   9.019
 6155WAT      O18706   9.256   7.097   0.524
 6155WAT     H118707   9.301   7.159   0.459
 6155WAT     H218708   9.230   7.013   0.476
 6156WAT      O18709   9.052   7.262   7.752
 6156WAT     H118710   9.097   7.192   7.807
 6156WAT     H218711   8.960   7.278   7.789
 6157WAT      O18712   3.813   1.407   1.848
 6157WAT     H118713   3.866   1.329   1.816
 6157WAT     H218714   3.778   1.388   1.940
 6158WAT      O18715   8.368   9.777   5.146
 6158WAT     H118716   8.456   9.823   5.147
 6158WAT     H218717   8.346   9.750   5.052
 6159WAT      O18718   8.482   2.550   0.996
 6159WAT     H118719   8.471   2.521   0.900
 6159WAT     H218720   8.538   2.483   1.044
 6160WAT      O18721   4.716   0.081   2.836
 6160WAT     H118722   4.649   0.121   2.773
 6160WAT     H218723   4.806   0.120   2.816
 6161WAT      O18724   2.963   4.353   5.945
 6161WAT     H118725   3.014   4.396   6.018
 6161WAT     H218726   3.020   4.346   5.863
 6162WAT      O18727   0.764   6.202   4.169
 6162WAT     H118728   0.694   6.265   4.137
 6162WAT     H218729   0.832   6.187   4.097
 6163WAT      O18730   1.088   5.264   8.242
 6163WAT     H118731   1.059   5.307   8.328
 6163WAT     H218732   1.103   5.166   8.256
 6164WAT      O18733   3.267   6.692   5.863
 6164WAT     H118734   3.336   6.642   5.916
 6164WAT     H218735   3.257   6.784   5.899
 6165WAT      O18736   5.939   6.556   9.856
 6165WAT     H118737   6.023   6.603   9.830
 6165WAT     H218738   5.924   6.479   9.794
 6166WAT      O18739   4.087   0.476   3.342
 6166WAT     H118740   4.091   0.534   3.260
 6166WAT     H218741   4.157   0.505   3.407
 6167WAT      O18742   7.513   0.923   0.734
 6167WAT     H118743   7.569   0.990   0.685
 6167WAT     H218744   7.459   0.871   0.669
 6168WAT      O18745   2.628   0.220   2.260
 6168WAT     H118746   2.557   0.245   2.326
 6168WAT     H218747   2.659   0.301   2.212
 6169WAT      O18748   5.764   6.908   6.530
 6169WAT     H118749   5.786   6.972   6.457
 6169WAT     H218750   5.840   6.844   6.543
 6170WAT      O18751   8.764   1.146   6.845
 6170WAT     H118752   8.816   1.083   6.789
 6170WAT     H218753   8.805   1.152   6.936
 6171WAT      O18754   8.504   9.473   3.427
 6171WAT     H118755   8.482   9.435   3.337
 6171WAT     H218756   8.602   9.466   3.443
 6172WAT      O18757   7.080   3.042   6.227
 6172WAT     H118758   7.049   2.963   6.280
 6172WAT     H218759   7.060   3.027   6.130
 6173WAT      O18760   7.069   5.459   6.187
 6173WAT     H118761   7.079   5.468   6.286
 6173WAT     H218762   7.020   5.375   6.165
 6174WAT      O18763   3.842   7.964   5.409
 6174WAT     H118764   3.761   7.931   5.360
 6174WAT     H218765   3.899   7.887   5.435
 6175WAT      O18766   3.674   3.756   2.113
 6175WAT     H118767   3.669   3.744   2.212
 6175WAT     H218768   3.724   3.679   2.072
 6176WAT      O18769   7.500   4.562   5.795
 6176WAT     H118770   7.437   4.635   5.767
 6176WAT     H218771   7.471   4.525   5.883
 6177WAT      O18772   4.324   8.733   5.619
 6177WAT     H118773   4.406   8.785   5.596
 6177WAT     H218774   4.344   8.635   5.615
 6178WAT      O18775   7.936   1.281   3.713
 6178WAT     H118776   8.016   1.316   3.664
 6178WAT     H218777   7.867   1.353   3.719
 6179WAT      O18778   0.019   0.414   4.053
 6179WAT     H118779  -0.052   0.425   4.122
 6179WAT     H218780   0.077   0.336   4.077
 6180WAT      O18781   9.727   3.287   2.666
 6180WAT     H118782   9.707   3.318   2.573
 6180WAT     H218783   9.641   3.266   2.713
 6181WAT      O18784   3.380   4.946   2.887
 6181WAT     H118785   3.425   4.870   2.839
 6181WAT     H218786   3.406   5.032   2.844
 6182WAT      O18787   1.226   8.502   2.620
 6182WAT     H118788   1.303   8.552   2.580
 6182WAT     H218789   1.170   8.464   2.547
 6183WAT      O18790   6.344   2.910   9.647
 6183WAT     H118791   6.384   2.874   9.562
 6183WAT     H218792   6.244   2.902   9.643
 6184WAT      O18793   1.202   3.122   8.370
 6184WAT     H118794   1.224   3.071   8.453
 6184WAT     H218795   1.169   3.058   8.300
 6185WAT      O18796   5.573   6.118   7.228
 6185WAT     H118797   5.519   6.164   7.157
 6185WAT     H218798   5.660   6.165   7.239
 6186WAT      O18799   7.783   7.316   8.733
 6186WAT     H118800   7.866   7.337   8.786
 6186WAT     H218801   7.724   7.256   8.787
 6187WAT      O18802   8.805   0.014   9.440
 6187WAT     H118803   8.808   0.108   9.474
 6187WAT     H218804   8.870   0.003   9.365
 6188WAT      O18805   7.696   7.135   6.132
 6188WAT     H118806   7.737   7.226   6.134
 6188WAT     H218807   7.693   7.097   6.225
 6189WAT      O18808   1.163   5.772   3.561
 6189WAT     H118809   1.195   5.839   3.628
 6189WAT     H218810   1.221   5.777   3.479
 6190WAT      O18811   1.118   4.893   7.380
 6190WAT     H118812   1.185   4.889   7.454
 6190WAT     H218813   1.037   4.840   7.405
 6191WAT      O18814   2.382   0.138   6.811
 6191WAT     H118815   2.451   0.111   6.744
 6191WAT     H218816   2.298   0.086   6.795
 6192WAT      O18817   6.771   3.003   6.097
 6192WAT     H118818   6.813   2.931   6.042
 6192WAT     H218819   6.743   2.966   6.186
 6193WAT      O18820   1.100   8.873   8.142
 6193WAT     H118821   1.172   8.803   8.140
 6193WAT     H218822   1.133   8.956   8.097
 6194WAT      O18823   5.244   9.724   8.197
 6194WAT     H118824   5.321   9.772   8.239
 6194WAT     H218825   5.272   9.632   8.170
 6195WAT      O18826   9.444   5.194   3.390
 6195WAT     H118827   9.431   5.117   3.452
 6195WAT     H218828   9.357   5.218   3.348
 6196WAT      O18829   3.873   2.574   4.563
 6196WAT     H118830   3.877   2.525   4.476
 6196WAT     H218831   3.787   2.624   4.569
 6197WAT      O18832   6.420   1.088   6.451
 6197WAT     H118833   6.485   1.063   6.522
 6197WAT     H218834   6.339   1.131   6.492
 6198WAT      O18835   5.726   8.388   3.972
 6198WAT     H118836   5.664   8.311   3.954
 6198WAT     H218837   5.782   8.405   3.892
 6199WAT      O18838   5.439   7.719   4.157
 6199WAT     H118839   5.352   7.675   4.135
 6199WAT     H218840   5.422   7.809   4.199
 6200WAT      O18841   6.436   4.961   0.046
 6200WAT     H118842   6.535   4.955   0.063
 6200WAT     H218843   6.399   4.869   0.034
 6201WAT      O18844   9.141   7.095   5.443
 6201WAT     H118845   9.144   7.002   5.406
 6201WAT     H218846   9.233   7.133   5.445
 6202WAT      O18847   6.696   3.374   3.136
 6202WAT     H118848   6.761   3.304   3.165
 6202WAT     H218849   6.701   3.452   3.198
 6203WAT      O18850   4.760   4.504   7.050
 6203WAT     H118851   4.781   4.595   7.014
 6203WAT     H218852   4.840   4.468   7.098
 6204WAT      O18853   9.801   6.856   8.654
 6204WAT     H118854   9.715   6.889   8.615
 6204WAT     H218855   9.874   6.868   8.587
 6205WAT      O18856   9.071   1.733   2.886
 6205WAT     H118857   9.111   1.645   2.913
 6205WAT     H218858   9.096   1.802   2.954
 6206WAT      O18859   6.625   2.243   2.318
 6206WAT     H118860   6.678   2.245   2.402
 6206WAT     H218861   6.628   2.333   2.274
 6207WAT      O18862   6.648   7.920   5.112
 6207WAT     H118863   6.699   7.834   5.109
 6207WAT     H218864   6.558   7.904   5.151
 6208WAT      O18865   6.417   1.361   3.483
 6208WAT     H118866   6.346   1.317   3.537
 6208WAT     H218867   6.435   1.306   3.401
 6209WAT      O18868   8.305   7.473   9.691
 6209WAT     H118869   8.276   7.385   9.730
 6209WAT     H218870   8.235   7.506   9.627
 6210WAT      O18871   5.939   9.128   0.920
 6210WAT     H118872   5.888   9.198   0.971
 6210WAT     H218873   6.024   9.107   0.968
 6211WAT      O18874   8.381   5.341   4.734
 6211WAT     H118875   8.423   5.253   4.715
 6211WAT     H218876   8.443   5.414   4.704
 6212WAT      O18877   5.936   9.254   4.102
 6212WAT     H118878   5.975   9.242   4.193
 6212WAT     H218879   5.975   9.335   4.059
 6213WAT      O18880   3.803   9.764   2.096
 6213WAT     H118881   3.800   9.716   2.184
 6213WAT     H218882   3.813   9.697   2.022
 6214WAT      O18883   1.139   4.476   4.013
 6214WAT     H118884   1.196   4.545   3.970
 6214WAT     H218885   1.186   4.388   4.012
 6215WAT      O18886   6.686   5.294   6.078
 6215WAT     H118887   6.698   5.255   6.169
 6215WAT     H218888   6.773   5.289   6.028
 6216WAT      O18889   0.308   4.928   4.867
 6216WAT     H118890   0.368   4.964   4.796
 6216WAT     H218891   0.275   4.837   4.841
 6217WAT      O18892   5.777   0.907   5.583
 6217WAT     H118893   5.747   0.827   5.531
 6217WAT     H218894   5.877   0.914   5.579
 6218WAT      O18895   3.849   9.369   2.896
 6218WAT     H118896   3.775   9.303   2.890
 6218WAT     H218897   3.811   9.462   2.894
 6219WAT      O18898   2.187   5.995   8.915
 6219WAT     H118899   2.234   6.072   8.959
 6219WAT     H218900   2.142   5.940   8.985
 6220WAT      O18901   1.967   9.516   6.760
 6220WAT     H118902   2.031   9.459   6.812
 6220WAT     H218903   1.921   9.580   6.821
 6221WAT      O18904   6.988   1.639   4.350
 6221WAT     H118905   6.901   1.686   4.360
 6221WAT     H218906   6.972   1.546   4.317
 6222WAT      O18907   9.372   3.962   4.488
 6222WAT     H118908   9.315   3.981   4.409
 6222WAT     H218909   9.462   4.002   4.475
 6223WAT      O18910   2.169   1.907   4.721
 6223WAT     H118911   2.174   2.006   4.714
 6223WAT     H218912   2.077   1.876   4.694
 6224WAT      O18913   1.943   6.865   4.818
 6224WAT     H118914   1.892   6.852   4.733
 6224WAT     H218915   1.879   6.888   4.891
 6225WAT      O18916   2.105   1.420   0.594
 6225WAT     H118917   2.098   1.510   0.636
 6225WAT     H218918   2.063   1.352   0.654
 6226WAT      O18919   0.514   9.807   1.481
 6226WAT     H118920   0.496   9.842   1.573
 6226WAT     H218921   0.603   9.841   1.449
 6227WAT      O18922   5.969   1.873   3.702
 6227WAT     H118923   5.951   1.959   3.750
 6227WAT     H218924   6.038   1.888   3.631
 6228WAT      O18925   4.001   0.572   0.785
 6228WAT     H118926   4.008   0.668   0.812
 6228WAT     H218927   4.093   0.534   0.774
 6229WAT      O18928   5.430   9.392   5.090
 6229WAT     H118929   5.398   9.298   5.103
 6229WAT     H218930   5.463   9.404   4.997
 6230WAT      O18931   9.541   1.361   9.076
 6230WAT     H118932   9.467   1.426   9.092
 6230WAT     H218933   9.537   1.290   9.147
 6231WAT      O18934   2.965   6.365   1.933
 6231WAT     H118935   2.897   6.377   2.004
 6231WAT     H218936   3.003   6.272   1.938
 6232WAT      O18937   9.452   3.865   6.772
 6232WAT     H118938   9.434   3.963   6.769
 6232WAT     H218939   9.533   3.848   6.829
 6233WAT      O18940   0.594   2.443   3.199
 6233WAT     H118941   0.536   2.462   3.278
 6233WAT     H218942   0.683   2.486   3.212
 6234WAT      O18943   5.520   5.435   2.319
 6234WAT     H118944   5.585   5.360   2.310
 6234WAT     H218945   5.448   5.409   2.383
 6235WAT      O18946   5.500   0.305   1.776
 6235WAT     H118947   5.543   0.221   1.809
 6235WAT     H218948   5.570   0.371   1.748
 6236WAT      O18949   5.296   2.188   4.433
 6236WAT     H118950   5.286   2.208   4.336
 6236WAT     H218951   5.247   2.104   4.455
 6237WAT      O18952   9.420   9.008   7.672
 6237WAT     H118953   9.417   9.060   7.758
 6237WAT     H218954   9.331   9.013   7.627
 6238WAT      O18955   3.044   0.158   8.162
 6238WAT     H118956   2.998   0.110   8.087
 6238WAT     H218957   3.017   0.255   8.161
 6239WAT      O18958   5.727   7.562   1.383
 6239WAT     H118959   5.710   7.626   1.308
 6239WAT     H218960   5.650   7.499   1.391
 6240WAT      O18961   4.777   1.712   7.231
 6240WAT     H118962   4.808   1.698   7.137
 6240WAT     H218963   4.828   1.787   7.273
 6241WAT      O18964   9.829   6.279   7.495
 6241WAT     H118965   9.806   6.377   7.488
 6241WAT     H218966   9.928   6.268   7.496
 6242WAT      O18967   1.512   4.491   9.568
 6242WAT     H118968   1.569   4.495   9.486
 6242WAT     H218969   1.562   4.443   9.640
 6243WAT      O18970   2.477   7.875   3.938
 6243WAT     H118971   2.464   7.790   3.887
 6243WAT     H218972   2.549   7.929   3.894
 6244WAT      O18973   2.696   4.094   0.790
 6244WAT     H118974   2.704   4.105   0.691
 6244WAT     H218975   2.630   4.160   0.826
 6245WAT      O18976   9.630   5.366   6.833
 6245WAT     H118977   9.551   5.364   6.895
 6245WAT     H218978   9.675   5.277   6.835
 6246WAT      O18979   1.555   4.427   8.282
 6246WAT     H118980   1.474   4.376   8.251
 6246WAT     H218981   1.555   4.433   8.381
 6247WAT      O18982   2.404   3.989   2.009
 6247WAT     H118983   2.462   3.909   1.994
 6247WAT     H218984   2.394   4.040   1.924
 6248WAT      O18985   6.907   3.944   5.017
 6248WAT     H118986   6.953   3.896   5.092
 6248WAT     H218987   6.950   4.033   5.003
 6249WAT      O18988   4.800   7.631   2.612
 6249WAT     H118989   4.753   7.672   2.690
 6249WAT     H218990   4.733   7.583   2.554
 6250WAT      O18991   4.196   6.024   6.461
 6250WAT     H118992   4.124   6.017   6.530
 6250WAT     H218993   4.248   6.108   6.474
 6251WAT      O18994   8.732   3.486   2.477
 6251WAT     H118995   8.692   3.555   2.537
 6251WAT     H218996   8.689   3.490   2.387
 6252WAT      O18997   1.891   7.090   0.743
 6252WAT     H118998   1.893   7.045   0.832
 6252WAT     H218999   1.977   7.073   0.696
 6253WAT      O19000   9.405   4.975   3.563
 6253WAT     H119001   9.419   4.902   3.496
 6253WAT     H219002   9.426   4.941   3.654
 6254WAT      O19003   7.042   4.161   4.943
 6254WAT     H119004   7.095   4.197   5.020
 6254WAT     H219005   7.103   4.115   4.879
 6255WAT      O19006   3.872   3.985   0.082
 6255WAT     H119007   3.928   3.977   0.164
 6255WAT     H219008   3.884   3.904   0.025
 6256WAT      O19009   1.072   3.396   1.977
 6256WAT     H119010   0.982   3.426   2.008
 6256WAT     H219011   1.069   3.299   1.952
 6257WAT      O19012   5.020   8.127   6.316
 6257WAT     H119013   5.080   8.066   6.367
 6257WAT     H219014   5.074   8.181   6.251
 6258WAT      O19015   5.165   7.630   0.280
 6258WAT     H119016   5.224   7.653   0.357
 6258WAT     H219017   5.162   7.531   0.268
 6259WAT      O19018   8.397   5.877   7.619
 6259WAT     H119019   8.461   5.873   7.542
 6259WAT     H219020   8.435   5.825   7.696
 6260WAT      O19021   7.200   7.292   9.824
 6260WAT     H119022   7.182   7.203   9.866
 6260WAT     H219023   7.211   7.361   9.896
 6261WAT      O19024   4.324   8.266   7.129
 6261WAT     H119025   4.363   8.231   7.044
 6261WAT     H219026   4.233   8.304   7.111
 6262WAT      O19027   7.298   6.933   6.179
 6262WAT     H119028   7.384   6.919   6.130
 6262WAT     H219029   7.246   6.848   6.180
 6263WAT      O19030   3.383   3.707   7.206
 6263WAT     H119031   3.389   3.607   7.199
 6263WAT     H219032   3.459   3.748   7.156
 6264WAT      O19033   8.402   1.848   1.497
 6264WAT     H119034   8.370   1.841   1.402
 6264WAT     H219035   8.326   1.825   1.558
 6265WAT      O19036   0.938   8.369   0.448
 6265WAT     H119037   1.016   8.365   0.386
 6265WAT     H219038   0.916   8.464   0.467
 6266WAT      O19039   4.097   1.046   6.972
 6266WAT     H119040   4.072   0.963   6.923
 6266WAT     H219041   4.020   1.077   7.027
 6267WAT      O19042   5.222   5.030   3.278
 6267WAT     H119043   5.275   5.026   3.363
 6267WAT     H219044   5.179   5.120   3.269
 6268WAT      O19045   4.850   0.567   0.413
 6268WAT     H119046   4.801   0.573   0.326
 6268WAT     H219047   4.832   0.650   0.467
 6269WAT      O19048   7.405   9.215   0.107
 6269WAT     H119049   7.398   9.314   0.108
 6269WAT     H219050   7.437   9.184   0.017
 6270WAT      O19051   1.927   4.360   4.390
 6270WAT     H119052   1.846   4.302   4.405
 6270WAT     H219053   1.966   4.339   4.301
 6271WAT      O19054   5.064   5.022   9.399
 6271WAT     H119055   5.083   5.057   9.491
 6271WAT     H219056   5.101   5.087   9.331
 6272WAT      O19057   5.793   8.153   7.484
 6272WAT     H119058   5.878   8.166   7.535
 6272WAT     H219059   5.800   8.071   7.428
 6273WAT      O19060   3.532   8.459   8.425
 6273WAT     H119061   3.456   8.396   8.412
 6273WAT     H219062   3.503   8.552   8.400
 6274WAT      O19063   7.159   6.818   4.513
 6274WAT     H119064   7.083   6.859   4.464
 6274WAT     H219065   7.218   6.890   4.549
 6275WAT      O19066   0.765   4.011   4.096
 6275WAT     H119067   0.860   4.035   4.115
 6275WAT     H219068   0.706   4.088   4.121
 6276WAT      O19069   1.773   2.825   1.205
 6276WAT     H119070   1.726   2.904   1.246
 6276WAT     H219071   1.781   2.838   1.107
 6277WAT      O19072   2.607   1.823   2.559
 6277WAT     H119073   2.557   1.853   2.641
 6277WAT     H219074   2.699   1.794   2.585
 6278WAT      O19075   4.530   3.744   1.060
 6278WAT     H119076   4.468   3.687   1.115
 6278WAT     H219077   4.510   3.840   1.076
 6279WAT      O19078   8.573   2.318   3.360
 6279WAT     H119079   8.601   2.345   3.268
 6279WAT     H219080   8.538   2.398   3.409
 6280WAT      O19081   0.928   9.307   3.439
 6280WAT     H119082   0.850   9.356   3.400
 6280WAT     H219083   0.936   9.218   3.394
 6281WAT      O19084   4.278   9.265   2.732
 6281WAT     H119085   4.277   9.165   2.724
 6281WAT     H219086   4.371   9.299   2.721
 6282WAT      O19087   5.323   6.676   3.383
 6282WAT     H119088   5.310   6.737   3.461
 6282WAT     H219089   5.377   6.722   3.313
 6283WAT      O19090   2.935   8.620   9.062
 6283WAT     H119091   2.947   8.666   9.150
 6283WAT     H219092   2.973   8.527   9.067
 6284WAT      O19093   7.708   9.622   7.138
 6284WAT     H119094   7.630   9.656   7.191
 6284WAT     H219095   7.693   9.527   7.113
 6285WAT      O19096   4.784   2.898   1.061
 6285WAT     H119097   4.867   2.859   1.102
 6285WAT     H219098   4.763   2.985   1.107
 6286WAT      O19099   7.810   3.402   9.862
 6286WAT     H119100   7.893   3.457   9.864
 6286WAT     H219101   7.744   3.443   9.800
 6287WAT      O19102   7.091   6.966   0.476
 6287WAT     H119103   7.116   7.024   0.553
 6287WAT     H219104   7.095   7.019   0.391
 6288WAT      O19105   1.922   0.992   7.916
 6288WAT     H119106   1.834   0.968   7.957
 6288WAT     H219107   1.930   0.948   7.827
 6289WAT      O19108   8.068   3.868   0.630
 6289WAT     H119109   8.053   3.905   0.722
 6289WAT     H219110   7.980   3.862   0.583
 6290WAT      O19111   4.271   0.132   6.249
 6290WAT     H119112   4.359   0.121   6.203
 6290WAT     H219113   4.206   0.065   6.213
 6291WAT      O19114   9.574   9.588   3.835
 6291WAT     H119115   9.668   9.578   3.870
 6291WAT     H219116   9.510   9.549   3.901
 6292WAT      O19117   6.801   4.639   2.981
 6292WAT     H119118   6.892   4.665   3.013
 6292WAT     H219119   6.747   4.721   2.964
 6293WAT      O19120   3.730   7.777   7.871
 6293WAT     H119121   3.770   7.734   7.953
 6293WAT     H219122   3.647   7.826   7.897
 6294WAT      O19123   8.491   4.553   8.657
 6294WAT     H119124   8.461   4.460   8.636
 6294WAT     H219125   8.549   4.586   8.583
 6295WAT      O19126   1.631   3.466   7.815
 6295WAT     H119127   1.585   3.522   7.884
 6295WAT     H219128   1.646   3.374   7.851
 6296WAT      O19129   8.312   0.615   1.983
 6296WAT     H119130   8.338   0.645   2.075
 6296WAT     H219131   8.353   0.526   1.964
 6297WAT      O19132   7.345   6.782   7.584
 6297WAT     H119133   7.403   6.708   7.549
 6297WAT     H219134   7.269   6.798   7.521
 6298WAT      O19135   1.695   2.822   0.327
 6298WAT     H119136   1.645   2.738   0.304
 6298WAT     H219137   1.711   2.875   0.244
 6299WAT      O19138   4.725   3.489   8.885
 6299WAT     H119139   4.707   3.573   8.833
 6299WAT     H219140   4.687   3.498   8.977
 6300WAT      O19141   5.479   7.297   1.722
 6300WAT     H119142   5.579   7.297   1.731
 6300WAT     H219143   5.450   7.375   1.667
 6301WAT      O19144   3.931   1.099   7.184
 6301WAT     H119145   3.878   1.183   7.196
 6301WAT     H219146   3.967   1.069   7.272
 6302WAT      O19147   7.507   8.357   7.795
 6302WAT     H119148   7.560   8.357   7.880
 6302WAT     H219149   7.500   8.263   7.761
 6303WAT      O19150   2.223   7.800   9.330
 6303WAT     H119151   2.317   7.774   9.351
 6303WAT     H219152   2.183   7.848   9.408
 6304WAT      O19153   9.233   2.815   1.814
 6304WAT     H119154   9.244   2.742   1.746
 6304WAT     H219155   9.276   2.788   1.900
 6305WAT      O19156   0.247   2.893   3.999
 6305WAT     H119157   0.209   2.985   4.005
 6305WAT     H219158   0.329   2.887   4.055
 6306WAT      O19159   0.209   5.065   4.073
 6306WAT     H119160   0.194   4.966   4.073
 6306WAT     H219161   0.223   5.097   3.979
 6307WAT      O19162   5.714   0.183   1.200
 6307WAT     H119163   5.811   0.163   1.209
 6307WAT     H219164   5.687   0.253   1.266
 6308WAT      O19165   3.426   0.973   0.800
 6308WAT     H119166   3.476   0.925   0.872
 6308WAT     H219167   3.333   0.936   0.794
 6309WAT      O19168   6.428   6.205   5.389
 6309WAT     H119169   6.465   6.218   5.297
 6309WAT     H219170   6.502   6.193   5.454
 6310WAT      O19171   2.093   7.258   5.427
 6310WAT     H119172   2.110   7.236   5.331
 6310WAT     H219173   2.177   7.291   5.469
 6311WAT      O19174   7.653   5.338   8.180
 6311WAT     H119175   7.567   5.389   8.173
 6311WAT     H219176   7.657   5.292   8.269
 6312WAT      O19177   3.273   9.494   4.760
 6312WAT     H119178   3.245   9.550   4.837
 6312WAT     H219179   3.192   9.464   4.710
 6313WAT      O19180   7.480   6.348   9.222
 6313WAT     H119181   7.415   6.404   9.171
 6313WAT     H219182   7.561   6.403   9.244
 6314WAT      O19183   2.633   2.131   6.427
 6314WAT     H119184   2.618   2.055   6.491
 6314WAT     H219185   2.556   2.193   6.431
 6315WAT      O19186   2.957   4.761   7.821
 6315WAT     H119187   2.931   4.743   7.916
 6315WAT     H219188   2.928   4.685   7.764
 6316WAT      O19189   1.552   6.341   7.437
 6316WAT     H119190   1.627   6.284   7.403
 6316WAT     H219191   1.550   6.337   7.537
 6317WAT      O19192   9.381   3.435   4.382
 6317WAT     H119193   9.302   3.414   4.324
 6317WAT     H219194   9.371   3.527   4.420
 6318WAT      O19195   1.796   0.646   6.635
 6318WAT     H119196   1.774   0.708   6.710
 6318WAT     H219197   1.891   0.615   6.644
 6319WAT      O19198   4.743   4.943   8.471
 6319WAT     H119199   4.807   5.016   8.446
 6319WAT     H219200   4.764   4.860   8.419
 6320WAT      O19201   0.474   9.613   8.485
 6320WAT     H119202   0.443   9.660   8.567
 6320WAT     H219203   0.540   9.542   8.509
 6321WAT      O19204   0.954   6.626   5.060
 6321WAT     H119205   0.863   6.608   5.024
 6321WAT     H219206   0.964   6.582   5.149
 6322WAT      O19207   5.903   3.109   1.022
 6322WAT     H119208   5.994   3.120   0.982
 6322WAT     H219209   5.879   3.191   1.073
 6323WAT      O19210   1.206   4.718   3.504
 6323WAT     H119211   1.272   4.655   3.545
 6323WAT     H219212   1.170   4.678   3.419
 6324WAT      O19213   9.817   9.511   6.763
 6324WAT     H119214   9.790   9.503   6.859
 6324WAT     H219215   9.735   9.519   6.706
 6325WAT      O19216   8.185   1.265   1.363
 6325WAT     H119217   8.190   1.170   1.394
 6325WAT     H219218   8.093   1.300   1.377
 6326WAT      O19219   0.485   2.114   7.114
 6326WAT     H119220   0.408   2.160   7.159
 6326WAT     H219221   0.503   2.027   7.162
 6327WAT      O19222   9.879   2.722   6.222
 6327WAT     H119223   9.976   2.716   6.200
 6327WAT     H219224   9.830   2.648   6.175
 6328WAT      O19225   2.034   2.630   1.584
 6328WAT     H119226   1.939   2.600   1.588
 6328WAT     H219227   2.038   2.723   1.547
 6329WAT      O19228   5.406   2.813   3.917
 6329WAT     H119229   5.360   2.769   3.840
 6329WAT     H219230   5.380   2.767   4.002
 6330WAT      O19231   0.083   4.244   3.775
 6330WAT     H119232  -0.011   4.276   3.758
 6330WAT     H219233   0.080   4.165   3.836
 6331WAT      O19234   2.031   2.555   2.213
 6331WAT     H119235   2.055   2.537   2.118
 6331WAT     H219236   1.951   2.615   2.216
 6332WAT      O19237   5.644   8.214   6.677
 6332WAT     H119238   5.644   8.172   6.768
 6332WAT     H219239   5.550   8.234   6.650
 6333WAT      O19240   7.813   3.194   4.655
 6333WAT     H119241   7.798   3.096   4.644
 6333WAT     H219242   7.900   3.210   4.701
 6334WAT      O19243   3.984   1.190   1.778
 6334WAT     H119244   3.923   1.111   1.779
 6334WAT     H219245   4.074   1.164   1.813
 6335WAT      O19246   8.719   0.593   8.789
 6335WAT     H119247   8.754   0.500   8.785
 6335WAT     H219248   8.737   0.639   8.702
 6336WAT      O19249   5.106   6.544   1.589
 6336WAT     H119250   5.143   6.604   1.519
 6336WAT     H219251   5.055   6.598   1.656
 6337WAT      O19252   3.274   3.890   7.378
 6337WAT     H119253   3.287   3.828   7.455
 6337WAT     H219254   3.313   3.848   7.295
 6338WAT      O19255   6.248   5.844   9.479
 6338WAT     H119256   6.279   5.850   9.574
 6338WAT     H219257   6.327   5.851   9.418
 6339WAT      O19258   5.889   5.185   1.862
 6339WAT     H119259   5.883   5.127   1.943
 6339WAT     H219260   5.797   5.209   1.832
 6340WAT      O19261   8.516   6.765   5.277
 6340WAT     H119262   8.505   6.798   5.370
 6340WAT     H219263   8.426   6.743   5.239
 6341WAT      O19264   1.189   6.834   9.122
 6341WAT     H119265   1.275   6.811   9.167
 6341WAT     H219266   1.118   6.850   9.191
 6342WAT      O19267   3.546   5.602   1.998
 6342WAT     H119268   3.522   5.556   1.912
 6342WAT     H219269   3.537   5.538   2.074
 6343WAT      O19270   8.792   0.362   0.198
 6343WAT     H119271   8.796   0.344   0.296
 6343WAT     H219272   8.860   0.431   0.174
 6344WAT      O19273   2.949   5.351   0.021
 6344WAT     H119274   2.867   5.318   0.069
 6344WAT     H219275   2.944   5.450   0.013
 6345WAT      O19276   2.973   3.912   4.365
 6345WAT     H119277   2.947   3.936   4.272
 6345WAT     H219278   2.898   3.936   4.427
 6346WAT      O19279   5.687   0.206   8.401
 6346WAT     H119280   5.677   0.299   8.438
 6346WAT     H219281   5.775   0.199   8.353
 6347WAT      O19282   3.922   8.717   1.645
 6347WAT     H119283   3.838   8.750   1.602
 6347WAT     H219284   3.915   8.727   1.744
 6348WAT      O19285   3.334   4.836   2.326
 6348WAT     H119286   3.319   4.934   2.332
 6348WAT     H219287   3.431   4.816   2.343
 6349WAT      O19288   3.075   1.421   4.732
 6349WAT     H119289   3.028   1.494   4.782
 6349WAT     H219290   3.106   1.351   4.796
 6350WAT      O19291   5.157   8.450   5.524
 6350WAT     H119292   5.093   8.390   5.476
 6350WAT     H219293   5.250   8.413   5.516
 6351WAT      O19294   9.513   9.373   0.801
 6351WAT     H119295   9.566   9.410   0.724
 6351WAT     H219296   9.453   9.444   0.837
 6352WAT      O19297   7.740   4.087   5.112
 6352WAT     H119298   7.768   3.998   5.147
 6352WAT     H219299   7.644   4.103   5.137
 6353WAT      O19300   9.435   9.270   5.102
 6353WAT     H119301   9.453   9.196   5.037
 6353WAT     H219302   9.517   9.287   5.157
 6354WAT      O19303   3.915   9.802   3.269
 6354WAT     H119304   3.884   9.721   3.219
 6354WAT     H219305   3.993   9.778   3.327
 6355WAT      O19306   3.065   4.967   2.640
 6355WAT     H119307   3.011   4.979   2.724
 6355WAT     H219308   3.140   4.903   2.658
 6356WAT      O19309   6.996   9.089   2.597
 6356WAT     H119310   7.025   9.115   2.690
 6356WAT     H219311   7.075   9.091   2.536
 6357WAT      O19312   5.073   0.992   2.074
 6357WAT     H119313   4.979   0.986   2.107
 6357WAT     H219314   5.132   1.026   2.148
 6358WAT      O19315   6.337   8.490   1.768
 6358WAT     H119316   6.414   8.434   1.740
 6358WAT     H219317   6.268   8.492   1.695
 6359WAT      O19318   5.962   2.387   4.225
 6359WAT     H119319   5.968   2.388   4.325
 6359WAT     H219320   6.052   2.365   4.187
 6360WAT      O19321   5.402   1.375   0.682
 6360WAT     H119322   5.362   1.408   0.767
 6360WAT     H219323   5.478   1.313   0.702
 6361WAT      O19324   2.550   2.906   1.074
 6361WAT     H119325   2.599   2.824   1.043
 6361WAT     H219326   2.544   2.972   0.999
 6362WAT      O19327   2.725   5.980   8.808
 6362WAT     H119328   2.634   5.978   8.851
 6362WAT     H219329   2.717   6.016   8.715
 6363WAT      O19330   5.331   0.513   8.766
 6363WAT     H119331   5.390   0.590   8.791
 6363WAT     H219332   5.362   0.430   8.812
 6364WAT      O19333   2.235   4.281   5.363
 6364WAT     H119334   2.229   4.241   5.272
 6364WAT     H219335   2.144   4.307   5.394
 6365WAT      O19336   3.523   6.963   7.920
 6365WAT     H119337   3.541   6.920   7.831
 6365WAT     H219338   3.600   6.947   7.982
 6366WAT      O19339   9.842   4.997   1.411
 6366WAT     H119340   9.853   4.952   1.499
 6366WAT     H219341   9.910   4.963   1.346
 6367WAT      O19342   2.709   0.639   6.954
 6367WAT     H119343   2.790   0.601   6.910
 6367WAT     H219344   2.671   0.711   6.896
 6368WAT      O19345   1.266   2.156   9.420
 6368WAT     H119346   1.316   2.091   9.476
 6368WAT     H219347   1.168   2.137   9.425
 6369WAT      O19348   1.700   9.402   1.311
 6369WAT     H119349   1.738   9.314   1.340
 6369WAT     H219350   1.649   9.443   1.386
 6370WAT      O19351   3.388   9.302   9.072
 6370WAT     H119352   3.457   9.366   9.107
 6370WAT     H219353   3.382   9.223   9.132
 6371WAT      O19354   0.881   2.531   3.275
 6371WAT     H119355   0.897   2.466   3.201
 6371WAT     H219356   0.886   2.484   3.363
 6372WAT      O19357   3.618   3.838   3.912
 6372WAT     H119358   3.592   3.914   3.852
 6372WAT     H219359   3.555   3.762   3.900
 6373WAT      O19360   5.343   9.708   2.613
 6373WAT     H119361   5.322   9.796   2.657
 6373WAT     H219362   5.406   9.724   2.537
 6374WAT      O19363   5.910   6.725   1.428
 6374WAT     H119364   5.866   6.648   1.380
 6374WAT     H219365   6.007   6.727   1.405
 6375WAT      O19366   6.509   3.968   8.360
 6375WAT     H119367   6.419   3.924   8.364
 6375WAT     H219368   6.505   4.045   8.296
 6376WAT      O19369   0.793   9.088   7.865
 6376WAT     H119370   0.732   9.167   7.867
 6376WAT     H219371   0.837   9.082   7.775
 6377WAT      O19372   1.506   3.620   5.777
 6377WAT     H119373   1.451   3.548   5.818
 6377WAT     H219374   1.594   3.626   5.824
 6378WAT      O19375   7.765   9.194   5.311
 6378WAT     H119376   7.796   9.101   5.292
 6378WAT     H219377   7.743   9.240   5.225
 6379WAT      O19378   4.130   4.894   3.284
 6379WAT     H119379   4.134   4.977   3.229
 6379WAT     H219380   4.050   4.897   3.344
 6380WAT      O19381   9.740   3.387   2.412
 6380WAT     H119382   9.835   3.384   2.380
 6380WAT     H219383   9.688   3.451   2.357
 6381WAT      O19384   5.965   2.658   7.673
 6381WAT     H119385   6.019   2.590   7.623
 6381WAT     H219386   5.914   2.613   7.746
 6382WAT      O19387   4.011   4.418   5.104
 6382WAT     H119388   4.032   4.337   5.159
 6382WAT     H219389   4.054   4.409   5.014
 6383WAT      O19390   5.781   6.692   4.417
 6383WAT     H119391   5.794   6.791   4.421
 6383WAT     H219392   5.785   6.653   4.509
 6384WAT      O19393   4.271   2.148   5.582
 6384WAT     H119394   4.236   2.064   5.624
 6384WAT     H219395   4.317   2.126   5.496
 6385WAT      O19396   4.116   8.106   5.065
 6385WAT     H119397   4.032   8.157   5.088
 6385WAT     H219398   4.092   8.025   5.011
 6386WAT      O19399   7.742   6.362   4.780
 6386WAT     H119400   7.782   6.281   4.737
 6386WAT     H219401   7.757   6.359   4.879
 6387WAT      O19402   7.347   7.101   7.498
 6387WAT     H119403   7.270   7.123   7.559
 6387WAT     H219404   7.349   7.003   7.481
 6388WAT      O19405   4.407   0.961   4.428
 6388WAT     H119406   4.478   0.890   4.434
 6388WAT     H219407   4.321   0.919   4.400
 6389WAT      O19408   8.274   8.849   7.942
 6389WAT     H119409   8.337   8.836   8.018
 6389WAT     H219410   8.316   8.812   7.858
 6390WAT      O19411   2.416   5.706   5.715
 6390WAT     H119412   2.338   5.665   5.762
 6390WAT     H219413   2.404   5.805   5.710
 6391WAT      O19414   4.701   4.318   0.929
 6391WAT     H119415   4.659   4.314   0.839
 6391WAT     H219416   4.668   4.398   0.979
 6392WAT      O19417   9.152   1.070   4.922
 6392WAT     H119418   9.078   1.108   4.866
 6392WAT     H219419   9.117   1.052   5.014
 6393WAT      O19420   5.366   1.352   1.310
 6393WAT     H119421   5.317   1.316   1.389
 6393WAT     H219422   5.415   1.435   1.336
 6394WAT      O19423   8.572   1.701   8.926
 6394WAT     H119424   8.513   1.682   9.004
 6394WAT     H219425   8.665   1.719   8.958
 6395WAT      O19426   1.883   2.965   5.103
 6395WAT     H119427   1.840   2.967   5.194
 6395WAT     H219428   1.974   2.927   5.110
 6396WAT      O19429   5.860   9.551   5.294
 6396WAT     H119430   5.906   9.525   5.209
 6396WAT     H219431   5.923   9.541   5.371
 6397WAT      O19432   8.040   0.777   7.567
 6397WAT     H119433   8.032   0.864   7.519
 6397WAT     H219434   8.122   0.729   7.533
 6398WAT      O19435   6.209   9.696   2.223
 6398WAT     H119436   6.126   9.643   2.239
 6398WAT     H219437   6.207   9.778   2.281
 6399WAT      O19438   9.083   5.335   5.391
 6399WAT     H119439   9.172   5.328   5.346
 6399WAT     H219440   9.018   5.274   5.346
 6400WAT      O19441   0.709   3.925   8.365
 6400WAT     H119442   0.734   3.934   8.461
 6400WAT     H219443   0.789   3.941   8.307
 6401WAT      O19444   5.470   0.011   6.045
 6401WAT     H119445   5.377   0.008   6.008
 6401WAT     H219446   5.536  -0.009   5.973
 6402WAT      O19447   0.831   3.185   4.252
 6402WAT     H119448   0.771   3.128   4.197
 6402WAT     H219449   0.895   3.234   4.192
 6403WAT      O19450   6.249   5.958   6.852
 6403WAT     H119451   6.266   5.923   6.759
 6403WAT     H219452   6.336   5.982   6.895
 6404WAT      O19453   5.490   7.649   1.016
 6404WAT     H119454   5.492   7.719   0.945
 6404WAT     H219455   5.525   7.687   1.102
 6405WAT      O19456   5.318   6.192   8.160
 6405WAT     H119457   5.295   6.270   8.218
 6405WAT     H219458   5.275   6.203   8.070
 6406WAT      O19459   0.671   2.563   6.785
 6406WAT     H119460   0.607   2.639   6.798
 6406WAT     H219461   0.765   2.596   6.796
 6407WAT      O19462   7.370   2.712   6.408
 6407WAT     H119463   7.381   2.679   6.502
 6407WAT     H219464   7.272   2.714   6.385
 6408WAT      O19465   8.965   2.752   8.003
 6408WAT     H119466   9.038   2.817   8.025
 6408WAT     H219467   8.877   2.796   8.017
 6409WAT      O19468   8.295   0.521   6.139
 6409WAT     H119469   8.317   0.518   6.041
 6409WAT     H219470   8.197   0.508   6.151
 6410WAT      O19471   6.962   1.460   8.219
 6410WAT     H119472   6.967   1.486   8.315
 6410WAT     H219473   6.906   1.526   8.169
 6411WAT      O19474   8.971   2.021   6.179
 6411WAT     H119475   8.897   2.062   6.126
 6411WAT     H219476   9.006   1.941   6.130
 6412WAT      O19477   4.227   8.475   7.339
 6412WAT     H119478   4.256   8.561   7.297
 6412WAT     H219479   4.280   8.400   7.299
 6413WAT      O19480   2.788   2.984   7.567
 6413WAT     H119481   2.857   2.912   7.553
 6413WAT     H219482   2.809   3.034   7.651
 6414WAT      O19483   7.776   7.351   7.549
 6414WAT     H119484   7.681   7.335   7.578
 6414WAT     H219485   7.821   7.264   7.533
 6415WAT      O19486   7.478   9.675   6.191
 6415WAT     H119487   7.525   9.754   6.152
 6415WAT     H219488   7.537   9.594   6.184
 6416WAT      O19489   2.348   5.375   1.212
 6416WAT     H119490   2.283   5.421   1.152
 6416WAT     H219491   2.388   5.297   1.165
 6417WAT      O19492   3.763   2.404   9.474
 6417WAT     H119493   3.804   2.495   9.477
 6417WAT     H219494   3.689   2.402   9.406
 6418WAT      O19495   3.010   6.814   8.762
 6418WAT     H119496   3.102   6.813   8.725
 6418WAT     H219497   3.013   6.792   8.860
 6419WAT      O19498   4.011   6.921   8.764
 6419WAT     H119499   4.028   6.862   8.843
 6419WAT     H219500   4.081   6.904   8.694
 6420WAT      O19501   0.747   6.075   0.073
 6420WAT     H119502   0.809   6.100   0.148
 6420WAT     H219503   0.704   6.157   0.036
 6421WAT      O19504   9.265   5.835   8.954
 6421WAT     H119505   9.264   5.928   8.990
 6421WAT     H219506   9.360   5.802   8.951
 6422WAT      O19507   6.973   1.844   2.810
 6422WAT     H119508   6.966   1.856   2.909
 6422WAT     H219509   7.043   1.775   2.789
 6423WAT      O19510   1.745   8.450   1.295
 6423WAT     H119511   1.721   8.415   1.204
 6423WAT     H219512   1.839   8.483   1.294
 6424WAT      O19513   7.264   5.713   7.448
 6424WAT     H119514   7.180   5.761   7.473
 6424WAT     H219515   7.253   5.670   7.358
 6425WAT      O19516   1.211   5.562   4.686
 6425WAT     H119517   1.126   5.602   4.719
 6425WAT     H219518   1.265   5.632   4.639
 6426WAT      O19519   3.725   1.782   2.793
 6426WAT     H119520   3.797   1.851   2.798
 6426WAT     H219521   3.694   1.773   2.698
 6427WAT      O19522   8.182   5.011   7.140
 6427WAT     H119523   8.175   4.972   7.048
 6427WAT     H219524   8.182   4.937   7.208
 6428WAT      O19525   3.958   8.344   9.362
 6428WAT     H119526   3.926   8.266   9.307
 6428WAT     H219527   3.979   8.421   9.301
 6429WAT      O19528   7.389   7.174   6.268
 6429WAT     H119529   7.477   7.158   6.312
 6429WAT     H219530   7.349   7.087   6.238
 6430WAT      O19531   3.158   6.196   3.557
 6430WAT     H119532   3.090   6.128   3.583
 6430WAT     H219533   3.181   6.186   3.460
 6431WAT      O19534   3.520   1.772   1.743
 6431WAT     H119535   3.463   1.854   1.745
 6431WAT     H219536   3.565   1.765   1.654
 6432WAT      O19537   6.118   0.413   1.931
 6432WAT     H119538   6.198   0.443   1.983
 6432WAT     H219539   6.046   0.483   1.937
 6433WAT      O19540   0.896   9.272   9.854
 6433WAT     H119541   0.853   9.190   9.890
 6433WAT     H219542   0.991   9.251   9.828
 6434WAT      O19543   6.976   7.465   1.600
 6434WAT     H119544   6.903   7.447   1.666
 6434WAT     H219545   6.952   7.544   1.544
 6435WAT      O19546   4.214   3.669   5.253
 6435WAT     H119547   4.177   3.739   5.192
 6435WAT     H219548   4.274   3.712   5.320
 6436WAT      O19549   6.771   8.426   0.577
 6436WAT     H119550   6.863   8.411   0.614
 6436WAT     H219551   6.762   8.378   0.490
 6437WAT      O19552   6.515   3.758   0.790
 6437WAT     H119553   6.549   3.700   0.716
 6437WAT     H219554   6.591   3.783   0.851
 6438WAT      O19555   4.282   9.209   7.998
 6438WAT     H119556   4.253   9.154   8.077
 6438WAT     H219557   4.367   9.257   8.021
 6439WAT      O19558   4.641   0.977   9.246
 6439WAT     H119559   4.606   0.907   9.185
 6439WAT     H219560   4.634   1.067   9.202
 6440WAT      O19561   5.569   1.572   6.204
 6440WAT     H119562   5.651   1.550   6.258
 6440WAT     H219563   5.502   1.498   6.213
 6441WAT      O19564   5.412   5.940   3.143
 6441WAT     H119565   5.320   5.903   3.150
 6441WAT     H219566   5.432   5.996   3.223
 6442WAT      O19567   4.003   6.657   1.953
 6442WAT     H119568   3.973   6.726   1.886
 6442WAT     H219569   4.012   6.569   1.908
 6443WAT      O19570   9.707   3.272   6.322
 6443WAT     H119571   9.751   3.350   6.277
 6443WAT     H219572   9.754   3.254   6.409
 6444WAT      O19573   0.930   6.760   2.413
 6444WAT     H119574   0.920   6.700   2.334
 6444WAT     H219575   0.952   6.853   2.381
 6445WAT      O19576   3.154   3.156   5.106
 6445WAT     H119577   3.102   3.186   5.025
 6445WAT     H219578   3.097   3.096   5.162
 6446WAT      O19579   3.294   4.567   2.506
 6446WAT     H119580   3.268   4.642   2.567
 6446WAT     H219581   3.320   4.487   2.560
 6447WAT      O19582   9.321   0.337   7.188
 6447WAT     H119583   9.351   0.243   7.177
 6447WAT     H219584   9.347   0.371   7.278
 6448WAT      O19585   1.911   4.643   3.144
 6448WAT     H119586   1.895   4.740   3.161
 6448WAT     H219587   1.876   4.619   3.054
 6449WAT      O19588   9.551   6.143   1.603
 6449WAT     H119589   9.511   6.232   1.625
 6449WAT     H219590   9.521   6.114   1.512
 6450WAT      O19591   3.098   0.401   2.035
 6450WAT     H119592   3.084   0.492   2.075
 6450WAT     H219593   3.150   0.409   1.950
 6451WAT      O19594   0.045   9.084   7.126
 6451WAT     H119595   0.106   9.096   7.048
 6451WAT     H219596   0.023   8.987   7.136
 6452WAT      O19597   9.599   5.102   1.389
 6452WAT     H119598   9.695   5.080   1.401
 6452WAT     H219599   9.563   5.144   1.472
 6453WAT      O19600   3.871   7.138   8.861
 6453WAT     H119601   3.772   7.138   8.846
 6453WAT     H219602   3.911   7.056   8.818
 6454WAT      O19603   3.027   5.616   8.086
 6454WAT     H119604   2.981   5.562   8.157
 6454WAT     H219605   3.058   5.703   8.125
 6455WAT      O19606   0.284   8.636   3.336
 6455WAT     H119607   0.202   8.659   3.284
 6455WAT     H219608   0.310   8.541   3.320
 6456WAT      O19609   9.773   0.116   7.941
 6456WAT     H119610   9.768   0.043   7.872
 6456WAT     H219611   9.868   0.127   7.971
 6457WAT      O19612   0.780   4.321   7.365
 6457WAT     H119613   0.694   4.369   7.381
 6457WAT     H219614   0.843   4.339   7.440
 6458WAT      O19615   9.122   1.805   3.413
 6458WAT     H119616   9.164   1.848   3.493
 6458WAT     H219617   9.164   1.716   3.397
 6459WAT      O19618   2.067   8.897   6.985
 6459WAT     H119619   2.075   8.981   6.932
 6459WAT     H219620   2.055   8.919   7.082
 6460WAT      O19621   6.343   8.376   7.300
 6460WAT     H119622   6.395   8.439   7.358
 6460WAT     H219623   6.398   8.352   7.220
 6461WAT      O19624   3.959   5.400   8.505
 6461WAT     H119625   3.969   5.393   8.405
 6461WAT     H219626   3.877   5.452   8.526
 6462WAT      O19627   9.469   7.161   5.950
 6462WAT     H119628   9.526   7.116   5.881
 6462WAT     H219629   9.380   7.117   5.954
 6463WAT      O19630   1.949   2.398   3.808
 6463WAT     H119631   1.858   2.372   3.840
 6463WAT     H219632   1.946   2.415   3.709
 6464WAT      O19633   7.839   1.256   3.161
 6464WAT     H119634   7.822   1.173   3.213
 6464WAT     H219635   7.897   1.317   3.214
 6465WAT      O19636   4.096   5.984   3.842
 6465WAT     H119637   4.173   5.930   3.874
 6465WAT     H219638   4.128   6.076   3.818
 6466WAT      O19639   3.085   4.300   1.089
 6466WAT     H119640   3.153   4.328   1.022
 6466WAT     H219641   3.087   4.200   1.099
 6467WAT      O19642   8.966   4.935   8.306
 6467WAT     H119643   8.872   4.944   8.275
 6467WAT     H219644   9.001   4.845   8.281
 6468WAT      O19645   3.274   1.677   7.730
 6468WAT     H119646   3.355   1.618   7.729
 6468WAT     H219647   3.216   1.652   7.809
 6469WAT      O19648   7.820   7.703   0.589
 6469WAT     H119649   7.783   7.742   0.674
 6469WAT     H219650   7.767   7.736   0.511
 6470WAT      O19651   3.143   3.579   3.043
 6470WAT     H119652   3.186   3.637   2.973
 6470WAT     H219653   3.055   3.618   3.070
 6471WAT      O19654   7.299   3.372   6.464
 6471WAT     H119655   7.390   3.365   6.424
 6471WAT     H219656   7.296   3.319   6.549
 6472WAT      O19657   0.923   0.162   5.541
 6472WAT     H119658   0.923   0.066   5.515
 6472WAT     H219659   0.937   0.219   5.460
 6473WAT      O19660   1.926   6.632   8.540
 6473WAT     H119661   2.025   6.621   8.530
 6473WAT     H219662   1.907   6.719   8.585
 6474WAT      O19663   7.363   7.660   1.879
 6474WAT     H119664   7.451   7.668   1.833
 6474WAT     H219665   7.296   7.620   1.816
 6475WAT      O19666   6.671   9.797   1.939
 6475WAT     H119667   6.698   9.830   2.029
 6475WAT     H219668   6.721   9.713   1.918
 6476WAT      O19669   5.330   2.895   7.275
 6476WAT     H119670   5.273   2.945   7.210
 6476WAT     H219671   5.283   2.890   7.363
 6477WAT      O19672   0.731   9.106   5.440
 6477WAT     H119673   0.737   9.154   5.352
 6477WAT     H219674   0.714   9.173   5.513
 6478WAT      O19675   1.214   6.027   4.230
 6478WAT     H119676   1.159   6.038   4.148
 6478WAT     H219677   1.165   5.970   4.296
 6479WAT      O19678   2.985   0.151   2.067
 6479WAT     H119679   3.007   0.248   2.057
 6479WAT     H219680   3.069   0.097   2.064
 6480WAT      O19681   7.419   1.151   4.986
 6480WAT     H119682   7.510   1.188   5.007
 6480WAT     H219683   7.365   1.149   5.070
 6481WAT      O19684   6.931   8.721   7.398
 6481WAT     H119685   6.879   8.790   7.348
 6481WAT     H219686   6.976   8.764   7.477
 6482WAT      O19687   8.891   6.962   4.313
 6482WAT     H119688   8.807   6.968   4.258
 6482WAT     H219689   8.883   7.022   4.392
 6483WAT      O19690   6.787   8.002   6.597
 6483WAT     H119691   6.738   8.022   6.681
 6483WAT     H219692   6.726   8.015   6.519
 6484WAT      O19693   5.196   6.272   7.922
 6484WAT     H119694   5.190   6.372   7.919
 6484WAT     H219695   5.224   6.238   7.832
 6485WAT      O19696   7.425   9.294   5.174
 6485WAT     H119697   7.501   9.307   5.110
 6485WAT     H219698   7.459   9.299   5.268
 6486WAT      O19699   0.652   1.017   2.082
 6486WAT     H119700   0.690   0.951   2.146
 6486WAT     H219701   0.587   0.972   2.021
 6487WAT      O19702   1.518   4.148   0.137
 6487WAT     H119703   1.562   4.077   0.082
 6487WAT     H219704   1.546   4.238   0.103
 6488WAT      O19705   6.197   9.100   1.941
 6488WAT     H119706   6.251   9.146   2.011
 6488WAT     H219707   6.249   9.096   1.856
 6489WAT      O19708   6.810   0.292   2.885
 6489WAT     H119709   6.754   0.365   2.847
 6489WAT     H219710   6.838   0.316   2.978
 6490WAT      O19711   1.589   5.346   2.653
 6490WAT     H119712   1.626   5.255   2.635
 6490WAT     H219713   1.627   5.380   2.740
 6491WAT      O19714   7.658   5.603   3.679
 6491WAT     H119715   7.570   5.650   3.670
 6491WAT     H219716   7.666   5.566   3.772
 6492WAT      O19717   3.312   2.624   4.723
 6492WAT     H119718   3.243   2.610   4.793
 6492WAT     H219719   3.344   2.719   4.727
 6493WAT      O19720   1.903   6.265   2.286
 6493WAT     H119721   1.930   6.228   2.197
 6493WAT     H219722   1.970   6.238   2.355
 6494WAT      O19723   2.862   5.027   4.093
 6494WAT     H119724   2.913   4.998   4.013
 6494WAT     H219725   2.920   5.086   4.150
 6495WAT      O19726   9.862   3.874   6.316
 6495WAT     H119727   9.955   3.839   6.299
 6495WAT     H219728   9.804   3.854   6.237
 6496WAT      O19729   5.278   0.129   8.997
 6496WAT     H119730   5.282   0.126   8.897
 6496WAT     H219731   5.279   0.036   9.033
 6497WAT      O19732   2.568   4.025   7.481
 6497WAT     H119733   2.597   3.940   7.438
 6497WAT     H219734   2.643   4.062   7.535
 6498WAT      O19735   0.715   8.273   4.369
 6498WAT     H119736   0.755   8.360   4.398
 6498WAT     H219737   0.618   8.286   4.349
 6499WAT      O19738   2.372   5.194   0.195
 6499WAT     H119739   2.418   5.185   0.106
 6499WAT     H219740   2.308   5.119   0.207
 6500WAT      O19741   8.655   6.176   0.171
 6500WAT     H119742   8.581   6.169   0.238
 6500WAT     H219743   8.619   6.210   0.084
 6501WAT      O19744   0.502   5.531   3.860
 6501WAT     H119745   0.544   5.579   3.783
 6501WAT     H219746   0.507   5.432   3.845
 6502WAT      O19747   8.494   2.978   8.082
 6502WAT     H119748   8.453   2.943   8.166
 6502WAT     H219749   8.429   3.038   8.035
 6503WAT      O19750   1.360   9.386   1.692
 6503WAT     H119751   1.301   9.466   1.702
 6503WAT     H219752   1.413   9.372   1.776
 6504WAT      O19753   8.491   1.150   6.078
 6504WAT     H119754   8.469   1.069   6.023
 6504WAT     H219755   8.454   1.231   6.033
 6505WAT      O19756   7.996   8.270   3.238
 6505WAT     H119757   7.956   8.316   3.317
 6505WAT     H219758   8.090   8.301   3.225
 6506WAT      O19759   9.732   0.380   7.795
 6506WAT     H119760   9.779   0.395   7.708
 6506WAT     H219761   9.755   0.290   7.831
 6507WAT      O19762   6.328   0.787   8.323
 6507WAT     H119763   6.281   0.790   8.235
 6507WAT     H219764   6.419   0.826   8.313
 6508WAT      O19765   3.080   5.905   5.501
 6508WAT     H119766   3.133   5.953   5.431
 6508WAT     H219767   2.983   5.925   5.488
 6509WAT      O19768   5.990   9.542   5.505
 6509WAT     H119769   5.963   9.542   5.602
 6509WAT     H219770   6.032   9.630   5.483
 6510WAT      O19771   3.041   2.052   9.477
 6510WAT     H119772   3.008   1.964   9.442
 6510WAT     H219773   3.052   2.116   9.401
 6511WAT      O19774   8.956   8.196   3.244
 6511WAT     H119775   8.935   8.208   3.341
 6511WAT     H219776   9.053   8.215   3.229
 6512WAT      O19777   4.745   5.126   0.690
 6512WAT     H119778   4.765   5.112   0.787
 6512WAT     H219779   4.774   5.046   0.638
 6513WAT      O19780   5.520   0.186   4.364
 6513WAT     H119781   5.481   0.137   4.442
 6513WAT     H219782   5.522   0.284   4.383
 6514WAT      O19783   1.117   6.859   5.136
 6514WAT     H119784   1.213   6.833   5.145
 6514WAT     H219785   1.066   6.783   5.096
 6515WAT      O19786   4.194   8.586   0.865
 6515WAT     H119787   4.123   8.595   0.935
 6515WAT     H219788   4.214   8.675   0.826
 6516WAT      O19789   1.470   8.744   9.704
 6516WAT     H119790   1.528   8.791   9.771
 6516WAT     H219791   1.509   8.654   9.683
 6517WAT      O19792   7.106   0.227   7.135
 6517WAT     H119793   7.018   0.194   7.169
 6517WAT     H219794   7.111   0.326   7.149
 6518WAT      O19795   4.612   0.872   1.576
 6518WAT     H119796   4.627   0.796   1.512
 6518WAT     H219797   4.584   0.953   1.525
 6519WAT      O19798   7.303   1.778   1.020
 6519WAT     H119799   7.252   1.828   0.949
 6519WAT     H219800   7.240   1.721   1.072
 6520WAT      O19801   4.983   4.364   8.382
 6520WAT     H119802   4.887   4.392   8.392
 6520WAT     H219803   4.995   4.274   8.425
 6521WAT      O19804   3.837   5.347   3.390
 6521WAT     H119805   3.923   5.375   3.433
 6521WAT     H219806   3.846   5.353   3.291
 6522WAT      O19807   0.990   1.576   8.586
 6522WAT     H119808   0.921   1.514   8.625
 6522WAT     H219809   0.948   1.632   8.515
 6523WAT      O19810   5.949   3.014   2.976
 6523WAT     H119811   5.923   3.110   2.989
 6523WAT     H219812   6.044   3.001   3.002
 6524WAT      O19813   7.440   3.706   7.167
 6524WAT     H119814   7.461   3.610   7.149
 6524WAT     H219815   7.501   3.741   7.238
 6525WAT      O19816   7.365   3.370   0.010
 6525WAT     H119817   7.448   3.389  -0.043
 6525WAT     H219818   7.351   3.271   0.016
 6526WAT      O19819   1.484   7.405   2.669
 6526WAT     H119820   1.440   7.379   2.583
 6526WAT     H219821   1.430   7.476   2.714
 6527WAT      O19822   4.277   3.554   5.645
 6527WAT     H119823   4.351   3.604   5.600
 6527WAT     H219824   4.205   3.618   5.673
 6528WAT      O19825   8.715   0.882   3.276
 6528WAT     H119826   8.771   0.926   3.347
 6528WAT     H219827   8.647   0.946   3.242
 6529WAT      O19828   2.832   0.037   4.910
 6529WAT     H119829   2.814  -0.020   4.829
 6529WAT     H219830   2.832  -0.021   4.991
 6530WAT      O19831   4.555   5.028   9.363
 6530WAT     H119832   4.517   4.979   9.441
 6530WAT     H219833   4.532   5.125   9.370
 6531WAT      O19834   4.341   8.179   3.542
 6531WAT     H119835   4.296   8.094   3.570
 6531WAT     H219836   4.276   8.255   3.552
 6532WAT      O19837   6.555   4.134   1.133
 6532WAT     H119838   6.561   4.118   1.034
 6532WAT     H219839   6.615   4.070   1.181
 6533WAT      O19840   0.075   9.449   7.978
 6533WAT     H119841   0.171   9.439   8.005
 6533WAT     H219842   0.023   9.369   8.007
 6534WAT      O19843   8.053   6.977   8.523
 6534WAT     H119844   8.021   7.068   8.547
 6534WAT     H219845   8.073   6.925   8.606
 6535WAT      O19846   1.872   9.351   3.853
 6535WAT     H119847   1.796   9.323   3.794
 6535WAT     H219848   1.892   9.448   3.837
 6536WAT      O19849   6.854   5.269   8.247
 6536WAT     H119850   6.771   5.251   8.299
 6536WAT     H219851   6.929   5.214   8.284
 6537WAT      O19852   7.561   3.741   2.802
 6537WAT     H119853   7.632   3.695   2.855
 6537WAT     H219854   7.471   3.720   2.841
 6538WAT      O19855   6.539   0.615   9.019
 6538WAT     H119856   6.534   0.560   8.936
 6538WAT     H219857   6.626   0.664   9.021
 6539WAT      O19858   4.416   2.899   7.959
 6539WAT     H119859   4.322   2.900   7.991
 6539WAT     H219860   4.418   2.877   7.861
 6540WAT      O19861   3.138   4.751   1.649
 6540WAT     H119862   3.110   4.656   1.663
 6540WAT     H219863   3.238   4.757   1.648
 6541WAT      O19864   5.046   3.767   1.393
 6541WAT     H119865   5.068   3.845   1.335
 6541WAT     H219866   5.018   3.799   1.483
 6542WAT      O19867   2.642   2.436   3.262
 6542WAT     H119868   2.710   2.450   3.334
 6542WAT     H219869   2.577   2.365   3.290
 6543WAT      O19870   0.616   8.611   8.386
 6543WAT     H119871   0.706   8.582   8.418
 6543WAT     H219872   0.554   8.619   8.464
 6544WAT      O19873   5.347   4.807   3.131
 6544WAT     H119874   5.436   4.782   3.169
 6544WAT     H219875   5.297   4.862   3.197
 6545WAT      O19876   8.022   5.067   6.391
 6545WAT     H119877   8.012   5.083   6.490
 6545WAT     H219878   7.935   5.033   6.355
 6546WAT      O19879   1.493   3.527   0.272
 6546WAT     H119880   1.453   3.516   0.181
 6546WAT     H219881   1.430   3.493   0.341
 6547WAT      O19882   8.120   4.054   3.301
 6547WAT     H119883   8.083   3.988   3.365
 6547WAT     H219884   8.046   4.109   3.263
 6548WAT      O19885   2.341   7.126   6.675
 6548WAT     H119886   2.347   7.218   6.714
 6548WAT     H219887   2.391   7.062   6.733
 6549WAT      O19888   4.827   6.468   3.984
 6549WAT     H119889   4.843   6.381   3.938
 6549WAT     H219890   4.907   6.493   4.037
 6550WAT      O19891   4.262   4.013   4.120
 6550WAT     H119892   4.252   4.106   4.085
 6550WAT     H219893   4.308   3.957   4.052
 6551WAT      O19894   9.231   2.104   8.667
 6551WAT     H119895   9.212   2.201   8.683
 6551WAT     H219896   9.147   2.051   8.676
 6552WAT      O19897   4.862   3.981   4.013
 6552WAT     H119898   4.823   3.909   4.071
 6552WAT     H219899   4.959   3.962   3.997
 6553WAT      O19900   0.141   3.992   7.932
 6553WAT     H119901   0.053   4.026   7.900
 6553WAT     H219902   0.126   3.919   7.999
 6554WAT      O19903   0.900   4.480   9.302
 6554WAT     H119904   0.831   4.442   9.241
 6554WAT     H219905   0.856   4.511   9.386
 6555WAT      O19906   9.552   7.403   0.678
 6555WAT     H119907   9.490   7.449   0.615
 6555WAT     H219908   9.643   7.396   0.636
 6556WAT      O19909   5.207   7.235   6.486
 6556WAT     H119910   5.253   7.227   6.575
 6556WAT     H219911   5.135   7.304   6.491
 6557WAT      O19912   8.351   4.005   5.407
 6557WAT     H119913   8.356   4.067   5.486
 6557WAT     H219914   8.275   4.033   5.349
 6558WAT      O19915   2.386   1.342   7.498
 6558WAT     H119916   2.318   1.323   7.428
 6558WAT     H219917   2.352   1.413   7.559
 6559WAT      O19918   8.031   1.754   7.659
 6559WAT     H119919   8.039   1.702   7.744
 6559WAT     H219920   8.019   1.851   7.681
 6560WAT      O19921   7.239   3.258   2.429
 6560WAT     H119922   7.260   3.235   2.524
 6560WAT     H219923   7.166   3.326   2.426
 6561WAT      O19924   4.969   3.562   0.347
 6561WAT     H119925   4.990   3.657   0.371
 6561WAT     H219926   4.872   3.554   0.323
 6562WAT      O19927   1.224   4.530   4.796
 6562WAT     H119928   1.203   4.472   4.875
 6562WAT     H219929   1.237   4.624   4.826
 6563WAT      O19930   7.765   4.525   2.309
 6563WAT     H119931   7.727   4.604   2.356
 6563WAT     H219932   7.741   4.529   2.212
 6564WAT      O19933   4.522   5.266   0.775
 6564WAT     H119934   4.514   5.229   0.868
 6564WAT     H219935   4.577   5.205   0.719
 6565WAT      O19936   5.942   4.026   4.245
 6565WAT     H119937   5.876   3.982   4.184
 6565WAT     H219938   6.016   4.067   4.192
 6566WAT      O19939   5.319   1.323   4.425
 6566WAT     H119940   5.308   1.274   4.338
 6566WAT     H219941   5.372   1.406   4.410
 6567WAT      O19942   1.374   7.227   6.153
 6567WAT     H119943   1.446   7.256   6.091
 6567WAT     H219944   1.299   7.187   6.100
 6568WAT      O19945   5.939   9.005   2.606
 6568WAT     H119946   5.988   9.084   2.642
 6568WAT     H219947   5.843   9.030   2.591
 6569WAT      O19948   9.258   9.158   1.863
 6569WAT     H119949   9.324   9.136   1.791
 6569WAT     H219950   9.227   9.073   1.907
 6570WAT      O19951   1.890   9.338   5.203
 6570WAT     H119952   1.792   9.359   5.203
 6570WAT     H219953   1.916   9.305   5.293
 6571WAT      O19954   6.982   4.438   7.027
 6571WAT     H119955   6.917   4.363   7.037
 6571WAT     H219956   6.933   4.523   7.008
 6572WAT      O19957   3.345   4.009   3.270
 6572WAT     H119958   3.263   4.057   3.236
 6572WAT     H219959   3.339   3.998   3.369
 6573WAT      O19960   5.917   6.380   5.753
 6573WAT     H119961   5.858   6.445   5.801
 6573WAT     H219962   5.894   6.380   5.656
 6574WAT      O19963   8.462   1.909   5.621
 6574WAT     H119964   8.440   1.979   5.553
 6574WAT     H219965   8.382   1.892   5.678
 6575WAT      O19966   8.087   5.283   1.834
 6575WAT     H119967   8.183   5.290   1.807
 6575WAT     H219968   8.039   5.224   1.769
 6576WAT      O19969   2.371   2.750   5.482
 6576WAT     H119970   2.416   2.833   5.450
 6576WAT     H219971   2.425   2.710   5.557
 6577WAT      O19972   7.794   7.701   5.398
 6577WAT     H119973   7.774   7.656   5.485
 6577WAT     H219974   7.815   7.632   5.328
 6578WAT      O19975   1.040   9.789   7.873
 6578WAT     H119976   1.122   9.842   7.854
 6578WAT     H219977   0.962   9.832   7.827
 6579WAT      O19978   2.229   4.924   6.835
 6579WAT     H119979   2.308   4.984   6.850
 6579WAT     H219980   2.239   4.877   6.748
 6580WAT      O19981   1.395   2.283   9.715
 6580WAT     H119982   1.298   2.268   9.696
 6580WAT     H219983   1.410   2.380   9.736
 6581WAT      O19984   8.795   6.948   1.247
 6581WAT     H119985   8.770   7.043   1.228
 6581WAT     H219986   8.714   6.899   1.279
 6582WAT      O19987   6.779   7.490   5.345
 6582WAT     H119988   6.840   7.411   5.347
 6582WAT     H219989   6.720   7.488   5.425
 6583WAT      O19990   6.044   1.296   7.925
 6583WAT     H119991   6.103   1.371   7.956
 6583WAT     H219992   6.039   1.226   7.997
 6584WAT      O19993   5.190   4.122   9.686
 6584WAT     H119994   5.166   4.102   9.781
 6584WAT     H219995   5.148   4.209   9.659
 6585WAT      O19996   1.824   7.589   0.114
 6585WAT     H119997   1.919   7.615   0.096
 6585WAT     H219998   1.786   7.543   0.034
 6586WAT      O19999   9.791   6.255   6.445
 6586WAT     H120000   9.697   6.224   6.461
 6586WAT     H220001   9.853   6.206   6.507
 6587WAT      O20002   2.502   3.647   0.259
 6587WAT     H120003   2.441   3.642   0.180
 6587WAT     H220004   2.451   3.627   0.342
 6588WAT      O20005   8.251   1.374   9.769
 6588WAT     H120006   8.171   1.367   9.829
 6588WAT     H220007   8.326   1.417   9.819
 6589WAT      O20008   9.765   1.550   9.888
 6589WAT     H120009   9.716   1.621   9.939
 6589WAT     H220010   9.744   1.558   9.791
 6590WAT      O20011   7.815   1.021   6.963
 6590WAT     H120012   7.822   1.091   6.893
 6590WAT     H220013   7.720   1.012   6.992
 6591WAT      O20014   1.157   7.432   1.831
 6591WAT     H120015   1.197   7.478   1.752
 6591WAT     H220016   1.115   7.500   1.892
 6592WAT      O20017   9.483   3.523   0.091
 6592WAT     H120018   9.398   3.530   0.143
 6592WAT     H220019   9.501   3.610   0.046
 6593WAT      O20020   8.757   5.323   3.087
 6593WAT     H120021   8.690   5.261   3.047
 6593WAT     H220022   8.754   5.316   3.186
 6594WAT      O20023   4.180   0.676   5.340
 6594WAT     H120024   4.265   0.712   5.378
 6594WAT     H220025   4.149   0.598   5.394
 6595WAT      O20026   8.178   5.065   1.190
 6595WAT     H120027   8.106   5.130   1.216
 6595WAT     H220028   8.200   5.007   1.269
 6596WAT      O20029   8.220   9.813   6.362
 6596WAT     H120030   8.164   9.746   6.410
 6596WAT     H220031   8.245   9.886   6.425
 6597WAT      O20032   6.554   3.070   7.621
 6597WAT     H120033   6.627   3.097   7.684
 6597WAT     H220034   6.582   3.090   7.527
 6598WAT      O20035   7.447   8.173   3.921
 6598WAT     H120036   7.347   8.173   3.917
 6598WAT     H220037   7.483   8.111   3.852
 6599WAT      O20038   6.051   7.599   5.352
 6599WAT     H120039   6.097   7.612   5.264
 6599WAT     H220040   6.024   7.503   5.362
 6600WAT      O20041   3.989   4.764   2.334
 6600WAT     H120042   3.986   4.698   2.410
 6600WAT     H220043   4.018   4.853   2.369
 6601WAT      O20044   1.889   5.532   0.335
 6601WAT     H120045   1.840   5.573   0.412
 6601WAT     H220046   1.899   5.600   0.262
 6602WAT      O20047   4.563   2.368   0.077
 6602WAT     H120048   4.513   2.308   0.140
 6602WAT     H220049   4.610   2.440   0.129
 6603WAT      O20050   6.024   8.112   6.636
 6603WAT     H120051   5.952   8.088   6.571
 6603WAT     H220052   5.993   8.093   6.730
 6604WAT      O20053   8.758   8.828   6.508
 6604WAT     H120054   8.780   8.731   6.496
 6604WAT     H220055   8.769   8.875   6.420
 6605WAT      O20056   1.651   2.883   4.188
 6605WAT     H120057   1.676   2.804   4.132
 6605WAT     H220058   1.706   2.883   4.272
 6606WAT      O20059   5.049   9.278   1.798
 6606WAT     H120060   4.950   9.264   1.806
 6606WAT     H220061   5.095   9.190   1.794
 6607WAT      O20062   0.916   7.958   0.084
 6607WAT     H120063   0.932   8.056   0.089
 6607WAT     H220064   0.924   7.918   0.176
 6608WAT      O20065   0.678   5.638   4.770
 6608WAT     H120066   0.733   5.601   4.844
 6608WAT     H220067   0.614   5.706   4.806
 6609WAT      O20068   1.390   9.562   9.778
 6609WAT     H120069   1.467   9.562   9.714
 6609WAT     H220070   1.363   9.468   9.798
 6610WAT      O20071   6.822   3.884   6.275
 6610WAT     H120072   6.883   3.942   6.221
 6610WAT     H220073   6.738   3.933   6.296
 6611WAT      O20074   4.079   8.506   1.906
 6611WAT     H120075   3.987   8.478   1.934
 6611WAT     H220076   4.099   8.468   1.815
 6612WAT      O20077   3.315   0.174   3.663
 6612WAT     H120078   3.347   0.250   3.607
 6612WAT     H220079   3.215   0.167   3.657
 6613WAT      O20080   3.588   8.089   9.661
 6613WAT     H120081   3.611   8.180   9.695
 6613WAT     H220082   3.541   8.096   9.574
 6614WAT      O20083   2.078   3.025   8.961
 6614WAT     H120084   1.990   3.063   8.991
 6614WAT     H220085   2.098   2.942   9.013
 6615WAT      O20086   9.236   6.289   1.373
 6615WAT     H120087   9.317   6.231   1.365
 6615WAT     H220088   9.229   6.349   1.293
 6616WAT      O20089   5.280   7.222   4.135
 6616WAT     H120090   5.283   7.235   4.036
 6616WAT     H220091   5.188   7.239   4.168
 6617WAT      O20092   0.152   7.885   1.552
 6617WAT     H120093   0.059   7.853   1.534
 6617WAT     H220094   0.174   7.960   1.490
 6618WAT      O20095   0.672   1.533   3.466
 6618WAT     H120096   0.754   1.478   3.447
 6618WAT     H220097   0.679   1.621   3.417
 6619WAT      O20098   4.656   8.554   5.684
 6619WAT     H120099   4.649   8.479   5.618
 6619WAT     H220100   4.707   8.630   5.643
 6620WAT      O20101   8.599   3.486   0.742
 6620WAT     H120102   8.666   3.560   0.739
 6620WAT     H220103   8.638   3.408   0.792
 6621WAT      O20104   7.232   1.130   9.777
 6621WAT     H120105   7.280   1.208   9.816
 6621WAT     H220106   7.207   1.150   9.682
 6622WAT      O20107   7.138   9.310   0.457
 6622WAT     H120108   7.146   9.238   0.526
 6622WAT     H220109   7.084   9.276   0.380
 6623WAT      O20110   0.490   2.360   9.210
 6623WAT     H120111   0.513   2.303   9.131
 6623WAT     H220112   0.396   2.393   9.201
 6624WAT      O20113   2.702   2.874   9.782
 6624WAT     H120114   2.645   2.911   9.708
 6624WAT     H220115   2.644   2.851   9.860
 6625WAT      O20116   5.462   4.934   2.327
 6625WAT     H120117   5.464   4.865   2.400
 6625WAT     H220118   5.554   4.970   2.312
 6626WAT      O20119   9.787   2.639   3.126
 6626WAT     H120120   9.833   2.674   3.208
 6626WAT     H220121   9.736   2.556   3.149
 6627WAT      O20122   5.549   1.443   3.376
 6627WAT     H120123   5.494   1.362   3.396
 6627WAT     H220124   5.609   1.463   3.454
 6628WAT      O20125   1.310   5.164   0.606
 6628WAT     H120126   1.305   5.136   0.702
 6628WAT     H220127   1.221   5.200   0.577
 6629WAT      O20128   9.467   5.819   5.257
 6629WAT     H120129   9.392   5.762   5.290
 6629WAT     H220130   9.484   5.893   5.321
 6630WAT      O20131   9.591   2.894   5.431
 6630WAT     H120132   9.498   2.906   5.466
 6630WAT     H220133   9.643   2.977   5.447
 6631WAT      O20134   5.985   3.971   8.878
 6631WAT     H120135   5.998   3.926   8.966
 6631WAT     H220136   5.904   3.933   8.833
 6632WAT      O20137   5.387   9.550   3.037
 6632WAT     H120138   5.459   9.512   2.978
 6632WAT     H220139   5.331   9.614   2.985
 6633WAT      O20140   0.852   1.542   9.371
 6633WAT     H120141   0.809   1.454   9.349
 6633WAT     H220142   0.947   1.527   9.398
 6634WAT      O20143   3.983   1.432   9.285
 6634WAT     H120144   3.962   1.346   9.333
 6634WAT     H220145   4.078   1.431   9.255
 6635WAT      O20146   3.444   3.856   9.152
 6635WAT     H120147   3.449   3.790   9.077
 6635WAT     H220148   3.487   3.817   9.234
 6636WAT      O20149   9.132   8.858   9.541
 6636WAT     H120150   9.061   8.788   9.536
 6636WAT     H220151   9.172   8.871   9.450
 6637WAT      O20152   1.774   8.344   1.020
 6637WAT     H120153   1.749   8.320   0.926
 6637WAT     H220154   1.871   8.367   1.025
 6638WAT      O20155   0.616   1.973   1.318
 6638WAT     H120156   0.607   2.066   1.353
 6638WAT     H220157   0.534   1.920   1.340
 6639WAT      O20158   0.375   8.311   5.761
 6639WAT     H120159   0.403   8.286   5.668
 6639WAT     H220160   0.288   8.267   5.783
 6640WAT      O20161   9.598   4.756   1.123
 6640WAT     H120162   9.578   4.662   1.096
 6640WAT     H220163   9.533   4.785   1.193
 6641WAT      O20164   9.490   5.734   5.886
 6641WAT     H120165   9.564   5.801   5.877
 6641WAT     H220166   9.529   5.647   5.916
 6642WAT      O20167   5.466   6.150   2.817
 6642WAT     H120168   5.389   6.214   2.815
 6642WAT     H220169   5.485   6.119   2.724
 6643WAT      O20170   8.095   6.581   6.299
 6643WAT     H120171   8.050   6.510   6.354
 6643WAT     H220172   8.101   6.551   6.204
 6644WAT      O20173   8.768   4.065   9.399
 6644WAT     H120174   8.758   4.057   9.498
 6644WAT     H220175   8.775   3.974   9.359
 6645WAT      O20176   0.998   0.283   9.053
 6645WAT     H120177   1.024   0.337   9.133
 6645WAT     H220178   0.902   0.300   9.030
 6646WAT      O20179   2.336   5.187   1.626
 6646WAT     H120180   2.313   5.160   1.533
 6646WAT     H220181   2.257   5.230   1.670
 6647WAT      O20182   1.106   9.829   9.742
 6647WAT     H120183   1.025   9.884   9.726
 6647WAT     H220184   1.188   9.881   9.716
 6648WAT      O20185   5.863   8.546   9.547
 6648WAT     H120186   5.900   8.584   9.632
 6648WAT     H220187   5.801   8.613   9.505
 6649WAT      O20188   7.176   8.685   7.802
 6649WAT     H120189   7.082   8.701   7.832
 6649WAT     H220190   7.209   8.599   7.840
 6650WAT      O20191   6.264   7.777   5.799
 6650WAT     H120192   6.265   7.718   5.718
 6650WAT     H220193   6.354   7.819   5.811
 6651WAT      O20194   8.608   0.554   5.252
 6651WAT     H120195   8.559   0.477   5.212
 6651WAT     H220196   8.636   0.532   5.345
 6652WAT      O20197   7.147   6.375   3.499
 6652WAT     H120198   7.129   6.339   3.591
 6652WAT     H220199   7.169   6.473   3.506
 6653WAT      O20200   5.108   6.687   3.182
 6653WAT     H120201   5.160   6.672   3.266
 6653WAT     H220202   5.058   6.604   3.158
 6654WAT      O20203   5.778   5.682   4.934
 6654WAT     H120204   5.717   5.602   4.937
 6654WAT     H220205   5.729   5.762   4.966
 6655WAT      O20206   7.627   0.847   5.178
 6655WAT     H120207   7.627   0.944   5.205
 6655WAT     H220208   7.566   0.796   5.239
 6656WAT      O20209   8.461   5.738   8.721
 6656WAT     H120210   8.520   5.800   8.773
 6656WAT     H220211   8.492   5.644   8.733
 6657WAT      O20212   5.243   3.686   9.461
 6657WAT     H120213   5.303   3.606   9.451
 6657WAT     H220214   5.261   3.750   9.386
 6658WAT      O20215   9.844   1.701   8.343
 6658WAT     H120216   9.779   1.751   8.286
 6658WAT     H220217   9.938   1.727   8.319
 6659WAT      O20218   8.891   3.923   8.541
 6659WAT     H120219   8.991   3.924   8.535
 6659WAT     H220220   8.858   3.832   8.518
 6660WAT      O20221   9.447   3.868   3.211
 6660WAT     H120222   9.499   3.886   3.294
 6660WAT     H220223   9.349   3.865   3.233
 6661WAT      O20224   6.399   3.165   6.923
 6661WAT     H120225   6.420   3.112   6.841
 6661WAT     H220226   6.302   3.190   6.922
 6662WAT      O20227   0.340   9.228   5.147
 6662WAT     H120228   0.337   9.139   5.102
 6662WAT     H220229   0.264   9.284   5.114
 6663WAT      O20230   0.198   6.414   5.041
 6663WAT     H120231   0.285   6.423   5.090
 6663WAT     H220232   0.148   6.501   5.046
 6664WAT      O20233   3.672   3.398   5.318
 6664WAT     H120234   3.584   3.421   5.359
 6664WAT     H220235   3.716   3.482   5.285
 6665WAT      O20236   2.664   6.511   0.957
 6665WAT     H120237   2.713   6.598   0.945
 6665WAT     H220238   2.675   6.455   0.876
 6666WAT      O20239   1.613   1.967   9.276
 6666WAT     H120240   1.593   1.881   9.323
 6666WAT     H220241   1.704   1.963   9.237
 6667WAT      O20242   0.398   1.580   8.215
 6667WAT     H120243   0.430   1.487   8.198
 6667WAT     H220244   0.356   1.617   8.132
 6668WAT      O20245   0.548   8.796   4.729
 6668WAT     H120246   0.481   8.864   4.760
 6668WAT     H220247   0.505   8.735   4.663
 6669WAT      O20248   8.949   2.235   2.099
 6669WAT     H120249   8.911   2.185   2.177
 6669WAT     H220250   8.969   2.330   2.126
 6670WAT      O20251   0.773   8.701   4.850
 6670WAT     H120252   0.804   8.742   4.936
 6670WAT     H220253   0.701   8.759   4.810
 6671WAT      O20254   5.580   2.339   5.365
 6671WAT     H120255   5.671   2.354   5.326
 6671WAT     H220256   5.585   2.263   5.430
 6672WAT      O20257   6.191   2.418   5.999
 6672WAT     H120258   6.288   2.419   5.975
 6672WAT     H220259   6.180   2.425   6.098
 6673WAT      O20260   7.602   5.870   9.718
 6673WAT     H120261   7.637   5.779   9.697
 6673WAT     H220262   7.546   5.866   9.801
 6674WAT      O20263   0.573   6.890   5.286
 6674WAT     H120264   0.522   6.901   5.201
 6674WAT     H220265   0.549   6.964   5.349
 6675WAT      O20266   2.043   1.446   3.651
 6675WAT     H120267   2.036   1.546   3.651
 6675WAT     H220268   1.955   1.407   3.676
 6676WAT      O20269   0.081   5.305   3.707
 6676WAT     H120270   0.010   5.371   3.685
 6676WAT     H220271   0.040   5.223   3.747
 6677WAT      O20272   3.802   2.724   3.297
 6677WAT     H120273   3.726   2.660   3.286
 6677WAT     H220274   3.767   2.812   3.329
 6678WAT      O20275   8.660   1.165   4.808
 6678WAT     H120276   8.673   1.111   4.891
 6678WAT     H220277   8.564   1.192   4.801
 6679WAT      O20278   5.171   0.150   1.982
 6679WAT     H120279   5.073   0.133   1.996
 6679WAT     H220280   5.191   0.246   2.005
 6680WAT      O20281   2.232   1.074   9.403
 6680WAT     H120282   2.316   1.125   9.420
 6680WAT     H220283   2.154   1.124   9.440
 6681WAT      O20284   0.746   5.000   2.374
 6681WAT     H120285   0.811   5.076   2.379
 6681WAT     H220286   0.659   5.029   2.415
 6682WAT      O20287   6.277   2.055   0.371
 6682WAT     H120288   6.354   2.047   0.435
 6682WAT     H220289   6.193   2.026   0.416
 6683WAT      O20290   5.787   1.333   1.779
 6683WAT     H120291   5.735   1.305   1.699
 6683WAT     H220292   5.726   1.340   1.858
 6684WAT      O20293   3.135   3.669   3.414
 6684WAT     H120294   3.089   3.738   3.357
 6684WAT     H220295   3.166   3.594   3.356
 6685WAT      O20296   6.006   9.777   4.663
 6685WAT     H120297   6.035   9.730   4.747
 6685WAT     H220298   5.910   9.803   4.671
 6686WAT      O20299   3.173   5.773   4.350
 6686WAT     H120300   3.177   5.677   4.325
 6686WAT     H220301   3.180   5.830   4.268
 6687WAT      O20302   7.657   7.681   8.424
 6687WAT     H120303   7.750   7.711   8.402
 6687WAT     H220304   7.660   7.589   8.464
 6688WAT      O20305   0.600   4.712   5.939
 6688WAT     H120306   0.506   4.744   5.926
 6688WAT     H220307   0.657   4.789   5.968
 6689WAT      O20308   2.771   3.397   7.683
 6689WAT     H120309   2.869   3.414   7.673
 6689WAT     H220310   2.741   3.425   7.774
 6690WAT      O20311   1.047   5.263   0.588
 6690WAT     H120312   0.964   5.233   0.636
 6690WAT     H220313   1.028   5.270   0.491
 6691WAT      O20314   7.952   9.730   7.447
 6691WAT     H120315   7.994   9.694   7.531
 6691WAT     H220316   7.856   9.754   7.465
 6692WAT      O20317   5.094   3.680   3.872
 6692WAT     H120318   5.070   3.631   3.789
 6692WAT     H220319   5.100   3.616   3.948
 6693WAT      O20320   9.618   4.648   3.474
 6693WAT     H120321   9.652   4.693   3.557
 6693WAT     H220322   9.532   4.690   3.446
 6694WAT      O20323   0.559   4.679   9.730
 6694WAT     H120324   0.555   4.590   9.774
 6694WAT     H220325   0.467   4.719   9.727
 6695WAT      O20326   2.974   2.491   2.687
 6695WAT     H120327   3.035   2.467   2.611
 6695WAT     H220328   2.934   2.407   2.725
 6696WAT      O20329   5.836   5.015   6.764
 6696WAT     H120330   5.747   4.985   6.799
 6696WAT     H220331   5.906   4.950   6.794
 6697WAT      O20332   4.701   2.365   6.593
 6697WAT     H120333   4.648   2.334   6.514
 6697WAT     H220334   4.797   2.342   6.580
 6698WAT      O20335   8.196   8.790   8.383
 6698WAT     H120336   8.287   8.792   8.341
 6698WAT     H220337   8.129   8.764   8.314
 6699WAT      O20338   3.025   7.988   5.741
 6699WAT     H120339   2.976   7.997   5.655
 6699WAT     H220340   3.110   7.938   5.727
 6700WAT      O20341   2.305   2.258   3.608
 6700WAT     H120342   2.379   2.232   3.670
 6700WAT     H220343   2.294   2.357   3.609
 6701WAT      O20344   0.825   0.912   6.218
 6701WAT     H120345   0.745   0.859   6.246
 6701WAT     H220346   0.881   0.933   6.297
 6702WAT      O20347   7.262   1.700   8.952
 6702WAT     H120348   7.233   1.789   8.916
 6702WAT     H220349   7.348   1.674   8.909
 6703WAT      O20350   8.250   5.763   8.432
 6703WAT     H120351   8.284   5.743   8.524
 6703WAT     H220352   8.168   5.709   8.414
 6704WAT      O20353   6.657   3.665   2.270
 6704WAT     H120354   6.726   3.654   2.342
 6704WAT     H220355   6.682   3.742   2.211
 6705WAT      O20356   1.341   7.767   2.702
 6705WAT     H120357   1.441   7.768   2.694
 6705WAT     H220358   1.314   7.695   2.766
 6706WAT      O20359   5.138   4.104   1.973
 6706WAT     H120360   5.198   4.175   2.011
 6706WAT     H220361   5.055   4.147   1.937
 6707WAT      O20362   4.119   2.405   9.131
 6707WAT     H120363   4.155   2.427   9.041
 6707WAT     H220364   4.088   2.489   9.176
 6708WAT      O20365   6.779   2.316   6.247
 6708WAT     H120366   6.680   2.328   6.251
 6708WAT     H220367   6.804   2.226   6.285
 6709WAT      O20368   3.236   1.098   2.189
 6709WAT     H120369   3.175   1.060   2.259
 6709WAT     H220370   3.208   1.191   2.166
 6710WAT      O20371   6.514   1.472   1.806
 6710WAT     H120372   6.599   1.425   1.828
 6710WAT     H220373   6.470   1.428   1.729
 6711WAT      O20374   2.067   4.365   8.150
 6711WAT     H120375   2.080   4.455   8.109
 6711WAT     H220376   2.043   4.299   8.079
 6712WAT      O20377   8.285   5.805   1.483
 6712WAT     H120378   8.224   5.877   1.451
 6712WAT     H220379   8.238   5.717   1.478
 6713WAT      O20380   5.083   8.010   7.183
 6713WAT     H120381   5.011   7.988   7.249
 6713WAT     H220382   5.057   7.974   7.093
 6714WAT      O20383   0.494   6.557   4.659
 6714WAT     H120384   0.522   6.628   4.595
 6714WAT     H220385   0.485   6.596   4.751
 6715WAT      O20386   7.018   6.613   4.343
 6715WAT     H120387   7.116   6.612   4.365
 6715WAT     H220388   6.975   6.692   4.387
 6716WAT      O20389   4.605   3.248   1.897
 6716WAT     H120390   4.596   3.282   1.804
 6716WAT     H220391   4.529   3.186   1.918
 6717WAT      O20392   6.054   4.064   7.885
 6717WAT     H120393   6.046   4.013   7.970
 6717WAT     H220394   5.989   4.027   7.818
 6718WAT      O20395   8.709   3.268   0.874
 6718WAT     H120396   8.809   3.269   0.885
 6718WAT     H220397   8.676   3.174   0.871
 6719WAT      O20398   1.484   3.505   4.342
 6719WAT     H120399   1.386   3.484   4.342
 6719WAT     H220400   1.517   3.506   4.437
 6720WAT      O20401   5.617   1.254   0.803
 6720WAT     H120402   5.700   1.215   0.764
 6720WAT     H220403   5.564   1.183   0.849
 6721WAT      O20404   4.784   6.932   7.498
 6721WAT     H120405   4.795   6.903   7.403
 6721WAT     H220406   4.846   6.880   7.557
 6722WAT      O20407   8.448   0.714   6.818
 6722WAT     H120408   8.390   0.634   6.800
 6722WAT     H220409   8.416   0.760   6.901
 6723WAT      O20410   8.019   7.924   7.929
 6723WAT     H120411   7.923   7.950   7.941
 6723WAT     H220412   8.023   7.836   7.881
 6724WAT      O20413   2.592   8.502   3.050
 6724WAT     H120414   2.504   8.490   3.005
 6724WAT     H220415   2.604   8.431   3.119
 6725WAT      O20416   9.002   1.646   3.183
 6725WAT     H120417   9.067   1.715   3.150
 6725WAT     H220418   8.909   1.680   3.170
 6726WAT      O20419   8.558   9.687   4.117
 6726WAT     H120420   8.624   9.704   4.044
 6726WAT     H220421   8.472   9.733   4.096
 6727WAT      O20422   6.775   5.301   1.807
 6727WAT     H120423   6.723   5.343   1.882
 6727WAT     H220424   6.863   5.348   1.798
 6728WAT      O20425   2.816   9.384   8.812
 6728WAT     H120426   2.812   9.323   8.891
 6728WAT     H220427   2.801   9.478   8.843
 6729WAT      O20428   0.048   6.550   8.914
 6729WAT     H120429  -0.040   6.520   8.951
 6729WAT     H220430   0.099   6.471   8.882
 6730WAT      O20431   5.426   7.811   4.728
 6730WAT     H120432   5.440   7.908   4.751
 6730WAT     H220433   5.369   7.804   4.646
 6731WAT      O20434   5.794   5.506   5.235
 6731WAT     H120435   5.869   5.569   5.216
 6731WAT     H220436   5.830   5.419   5.267
 6732WAT      O20437   0.477   3.561   6.761
 6732WAT     H120438   0.484   3.595   6.855
 6732WAT     H220439   0.549   3.603   6.705
 6733WAT      O20440   0.161   9.614   8.212
 6733WAT     H120441   0.190   9.530   8.257
 6733WAT     H220442   0.164   9.601   8.112
 6734WAT      O20443   5.430   9.178   4.284
 6734WAT     H120444   5.357   9.133   4.233
 6734WAT     H220445   5.428   9.276   4.265
 6735WAT      O20446   8.574   6.131   1.759
 6735WAT     H120447   8.512   6.185   1.703
 6735WAT     H220448   8.539   6.038   1.767
 6736WAT      O20449   1.575   2.320   3.561
 6736WAT     H120450   1.671   2.293   3.557
 6736WAT     H220451   1.542   2.336   3.468
 6737WAT      O20452   9.325   9.354   1.445
 6737WAT     H120453   9.304   9.426   1.380
 6737WAT     H220454   9.396   9.385   1.508
 6738WAT      O20455   1.601   0.652   5.933
 6738WAT     H120456   1.571   0.669   5.839
 6738WAT     H220457   1.700   0.638   5.934
 6739WAT      O20458   0.119   1.518   6.350
 6739WAT     H120459   0.191   1.586   6.340
 6739WAT     H220460   0.091   1.484   6.260
 6740WAT      O20461   9.715   9.785   1.175
 6740WAT     H120462   9.744   9.770   1.270
 6740WAT     H220463   9.641   9.722   1.153
 6741WAT      O20464   3.914   9.406   7.755
 6741WAT     H120465   3.915   9.503   7.780
 6741WAT     H220466   3.940   9.351   7.833
 6742WAT      O20467   7.899   8.615   5.433
 6742WAT     H120468   7.831   8.550   5.468
 6742WAT     H220469   7.912   8.688   5.499
 6743WAT      O20470   3.404   5.275   9.027
 6743WAT     H120471   3.483   5.311   8.978
 6743WAT     H220472   3.333   5.345   9.032
 6744WAT      O20473   9.404   5.875   6.863
 6744WAT     H120474   9.304   5.870   6.857
 6744WAT     H220475   9.443   5.869   6.771
 6745WAT      O20476   1.952   3.354   3.401
 6745WAT     H120477   2.034   3.355   3.344
 6745WAT     H220478   1.954   3.274   3.460
 6746WAT      O20479   3.642   0.370   4.175
 6746WAT     H120480   3.704   0.291   4.179
 6746WAT     H220481   3.649   0.421   4.261
 6747WAT      O20482   3.235   4.462   1.663
 6747WAT     H120483   3.291   4.491   1.585
 6747WAT     H220484   3.293   4.422   1.733
 6748WAT      O20485   6.117   7.715   3.567
 6748WAT     H120486   6.155   7.796   3.611
 6748WAT     H220487   6.038   7.740   3.511
 6749WAT      O20488   5.729   7.998   9.185
 6749WAT     H120489   5.712   7.902   9.208
 6749WAT     H220490   5.691   8.018   9.095
 6750WAT      O20491   7.668   2.464   0.253
 6750WAT     H120492   7.588   2.451   0.312
 6750WAT     H220493   7.719   2.545   0.283
 6751WAT      O20494   2.380   1.712   1.210
 6751WAT     H120495   2.466   1.687   1.255
 6751WAT     H220496   2.353   1.640   1.146
 6752WAT      O20497   8.224   4.590   9.129
 6752WAT     H120498   8.176   4.597   9.042
 6752WAT     H220499   8.169   4.632   9.201
 6753WAT      O20500   4.101   8.453   8.933
 6753WAT     H120501   4.179   8.462   8.994
 6753WAT     H220502   4.038   8.530   8.947
 6754WAT      O20503   4.673   3.471   0.455
 6754WAT     H120504   4.575   3.459   0.470
 6754WAT     H220505   4.688   3.555   0.403
 6755WAT      O20506   3.241   6.253   1.372
 6755WAT     H120507   3.286   6.192   1.306
 6755WAT     H220508   3.202   6.331   1.323
 6756WAT      O20509   2.474   6.031   8.978
 6756WAT     H120510   2.428   6.098   9.037
 6756WAT     H220511   2.460   5.939   9.015
 6757WAT      O20512   5.496   5.259   0.005
 6757WAT     H120513   5.440   5.209  -0.062
 6757WAT     H220514   5.438   5.288   0.082
 6758WAT      O20515   3.843   9.387   8.776
 6758WAT     H120516   3.793   9.453   8.721
 6758WAT     H220517   3.922   9.353   8.724
 6759WAT      O20518   8.691   8.375   3.211
 6759WAT     H120519   8.709   8.445   3.281
 6759WAT     H220520   8.773   8.319   3.199
 6760WAT      O20521   7.926   8.092   4.133
 6760WAT     H120522   7.885   8.092   4.042
 6760WAT     H220523   7.941   8.186   4.163
 6761WAT      O20524   7.977   4.041   1.155
 6761WAT     H120525   7.900   4.060   1.094
 6761WAT     H220526   8.009   4.127   1.195
 6762WAT      O20527   7.090   4.875   0.127
 6762WAT     H120528   7.020   4.923   0.180
 6762WAT     H220529   7.095   4.780   0.157
 6763WAT      O20530   0.145   0.811   1.102
 6763WAT     H120531   0.096   0.724   1.093
 6763WAT     H220532   0.198   0.828   1.018
 6764WAT      O20533   6.132   0.828   5.822
 6764WAT     H120534   6.180   0.857   5.905
 6764WAT     H220535   6.034   0.824   5.840
 6765WAT      O20536   3.110   9.148   1.642
 6765WAT     H120537   3.048   9.133   1.720
 6765WAT     H220538   3.056   9.158   1.559
 6766WAT      O20539   0.511   1.542   2.931
 6766WAT     H120540   0.546   1.535   2.838
 6766WAT     H220541   0.411   1.550   2.929
 6767WAT      O20542   7.247   8.432   8.771
 6767WAT     H120543   7.206   8.352   8.815
 6767WAT     H220544   7.228   8.514   8.825
 6768WAT      O20545   6.865   9.726   6.693
 6768WAT     H120546   6.912   9.775   6.620
 6768WAT     H220547   6.772   9.761   6.703
 6769WAT      O20548   6.997   9.179   3.972
 6769WAT     H120549   6.994   9.126   4.057
 6769WAT     H220550   6.972   9.121   3.895
 6770WAT      O20551   0.570   1.494   7.384
 6770WAT     H120552   0.620   1.534   7.307
 6770WAT     H220553   0.475   1.523   7.381
 6771WAT      O20554   6.849   6.756   9.158
 6771WAT     H120555   6.774   6.708   9.113
 6771WAT     H220556   6.818   6.848   9.184
 6772WAT      O20557   3.285   1.629   1.221
 6772WAT     H120558   3.331   1.713   1.193
 6772WAT     H220559   3.193   1.651   1.254
 6773WAT      O20560   6.500   4.187   3.607
 6773WAT     H120561   6.565   4.184   3.531
 6773WAT     H220562   6.472   4.094   3.631
 6774WAT      O20563   7.634   1.681   3.387
 6774WAT     H120564   7.624   1.653   3.292
 6774WAT     H220565   7.673   1.605   3.440
 6775WAT      O20566   4.515   1.093   8.231
 6775WAT     H120567   4.476   1.100   8.139
 6775WAT     H220568   4.469   1.157   8.292
 6776WAT      O20569   0.536   5.360   2.872
 6776WAT     H120570   0.630   5.390   2.853
 6776WAT     H220571   0.518   5.372   2.970
 6777WAT      O20572   2.834   9.427   0.831
 6777WAT     H120573   2.847   9.489   0.754
 6777WAT     H220574   2.753   9.371   0.816
 6778WAT      O20575   9.614   0.671   5.413
 6778WAT     H120576   9.641   0.596   5.474
 6778WAT     H220577   9.611   0.638   5.319
 6779WAT      O20578   0.574   6.498   9.588
 6779WAT     H120579   0.570   6.419   9.527
 6779WAT     H220580   0.618   6.574   9.540
 6780WAT      O20581   3.143   1.335   9.731
 6780WAT     H120582   3.205   1.273   9.683
 6780WAT     H220583   3.065   1.283   9.766
 6781WAT      O20584   5.203   4.243   8.876
 6781WAT     H120585   5.103   4.249   8.878
 6781WAT     H220586   5.238   4.246   8.970
 6782WAT      O20587   8.778   7.483   7.725
 6782WAT     H120588   8.769   7.520   7.818
 6782WAT     H220589   8.792   7.384   7.730
 6783WAT      O20590   0.160   6.159   3.719
 6783WAT     H120591   0.211   6.140   3.636
 6783WAT     H220592   0.063   6.136   3.705
 6784WAT      O20593   1.203   2.008   0.691
 6784WAT     H120594   1.298   2.008   0.662
 6784WAT     H220595   1.145   2.034   0.614
 6785WAT      O20596   1.129   5.338   9.381
 6785WAT     H120597   1.118   5.370   9.476
 6785WAT     H220598   1.181   5.253   9.381
 6786WAT      O20599   9.327   8.824   1.147
 6786WAT     H120600   9.352   8.865   1.059
 6786WAT     H220601   9.319   8.725   1.135
 6787WAT      O20602   7.815   0.098   3.222
 6787WAT     H120603   7.837   0.008   3.184
 6787WAT     H220604   7.891   0.129   3.280
 6788WAT      O20605   3.480   7.873   7.498
 6788WAT     H120606   3.502   7.961   7.541
 6788WAT     H220607   3.551   7.806   7.521
 6789WAT      O20608   3.548   5.915   8.544
 6789WAT     H120609   3.545   5.870   8.633
 6789WAT     H220610   3.624   5.980   8.542
 6790WAT      O20611   7.536   2.405   9.139
 6790WAT     H120612   7.635   2.411   9.150
 6790WAT     H220613   7.514   2.381   9.045
 6791WAT      O20614   6.356   5.169   7.959
 6791WAT     H120615   6.290   5.126   7.897
 6791WAT     H220616   6.432   5.206   7.907
 6792WAT      O20617   6.945   3.382   0.185
 6792WAT     H120618   6.902   3.464   0.223
 6792WAT     H220619   7.024   3.408   0.130
 6793WAT      O20620   3.352   7.351   4.568
 6793WAT     H120621   3.383   7.259   4.593
 6793WAT     H220622   3.310   7.394   4.648
 6794WAT      O20623   1.978   0.578   4.260
 6794WAT     H120624   1.920   0.534   4.192
 6794WAT     H220625   2.051   0.629   4.214
 6795WAT      O20626   0.428   8.082   0.410
 6795WAT     H120627   0.358   8.095   0.481
 6795WAT     H220628   0.438   7.985   0.390
 6796WAT      O20629   1.784   4.589   6.223
 6796WAT     H120630   1.823   4.593   6.131
 6796WAT     H220631   1.846   4.539   6.284
 6797WAT      O20632   0.419   8.269   3.770
 6797WAT     H120633   0.435   8.296   3.865
 6797WAT     H220634   0.472   8.327   3.709
 6798WAT      O20635   5.323   7.936   6.583
 6798WAT     H120636   5.243   7.981   6.624
 6798WAT     H220637   5.396   7.929   6.651
 6799WAT      O20638   7.732   4.293   1.117
 6799WAT     H120639   7.823   4.331   1.100
 6799WAT     H220640   7.672   4.365   1.152
 6800WAT      O20641   6.809   3.619   6.259
 6800WAT     H120642   6.817   3.719   6.263
 6800WAT     H220643   6.794   3.590   6.165
 6801WAT      O20644   5.629   1.642   3.817
 6801WAT     H120645   5.678   1.677   3.737
 6801WAT     H220646   5.655   1.694   3.898
 6802WAT      O20647   2.932   2.775   7.133
 6802WAT     H120648   2.999   2.825   7.188
 6802WAT     H220649   2.974   2.749   7.046
 6803WAT      O20650   2.244   4.871   4.774
 6803WAT     H120651   2.179   4.884   4.699
 6803WAT     H220652   2.194   4.850   4.858
 6804WAT      O20653   3.222   5.892   6.220
 6804WAT     H120654   3.299   5.904   6.157
 6804WAT     H220655   3.244   5.934   6.308
 6805WAT      O20656   5.146   2.969   1.353
 6805WAT     H120657   5.150   2.877   1.392
 6805WAT     H220658   5.068   3.018   1.390
 6806WAT      O20659   8.984   0.255   8.417
 6806WAT     H120660   8.907   0.278   8.357
 6806WAT     H220661   8.978   0.158   8.443
 6807WAT      O20662   1.361   7.128   9.104
 6807WAT     H120663   1.357   7.208   9.044
 6807WAT     H220664   1.274   7.079   9.100
 6808WAT      O20665   1.873   4.218   1.243
 6808WAT     H120666   1.973   4.221   1.248
 6808WAT     H220667   1.838   4.310   1.230
 6809WAT      O20668   5.384   2.477   9.074
 6809WAT     H120669   5.435   2.501   8.992
 6809WAT     H220670   5.407   2.383   9.101
 6810WAT      O20671   3.555   2.214   3.333
 6810WAT     H120672   3.655   2.218   3.325
 6810WAT     H220673   3.516   2.173   3.250
 6811WAT      O20674   9.722   0.478   8.210
 6811WAT     H120675   9.687   0.394   8.169
 6811WAT     H220676   9.760   0.537   8.138
 6812WAT      O20677   1.481   0.961   9.445
 6812WAT     H120678   1.477   0.865   9.475
 6812WAT     H220679   1.505   1.019   9.523
 6813WAT      O20680   8.906   4.143   0.461
 6813WAT     H120681   8.909   4.196   0.546
 6813WAT     H220682   8.982   4.077   0.461
 6814WAT      O20683   0.460   4.156   5.588
 6814WAT     H120684   0.515   4.159   5.505
 6814WAT     H220685   0.440   4.249   5.619
 6815WAT      O20686   3.151   6.161   9.179
 6815WAT     H120687   3.248   6.143   9.161
 6815WAT     H220688   3.125   6.248   9.137
 6816WAT      O20689   4.034   3.929   0.295
 6816WAT     H120690   4.008   3.898   0.387
 6816WAT     H220691   4.105   3.868   0.259
 6817WAT      O20692   8.819   4.842   0.397
 6817WAT     H120693   8.768   4.815   0.315
 6817WAT     H220694   8.776   4.922   0.438
 6818WAT      O20695   8.308   8.078   2.463
 6818WAT     H120696   8.367   8.035   2.531
 6818WAT     H220697   8.323   8.177   2.463
 6819WAT      O20698   4.739   2.508   3.002
 6819WAT     H120699   4.818   2.514   3.063
 6819WAT     H220700   4.684   2.591   3.011
 6820WAT      O20701   3.050   8.967   4.975
 6820WAT     H120702   3.143   9.002   4.981
 6820WAT     H220703   2.995   9.006   5.049
 6821WAT      O20704   2.058   6.185   7.139
 6821WAT     H120705   2.017   6.262   7.188
 6821WAT     H220706   2.139   6.216   7.089
 6822WAT      O20707   2.044   2.004   8.715
 6822WAT     H120708   1.987   2.040   8.641
 6822WAT     H220709   2.056   1.906   8.703
 6823WAT      O20710   8.586   4.616   2.479
 6823WAT     H120711   8.604   4.522   2.448
 6823WAT     H220712   8.668   4.671   2.468
 6824WAT      O20713   5.052   6.364   8.779
 6824WAT     H120714   5.133   6.371   8.720
 6824WAT     H220715   5.020   6.269   8.781
 6825WAT      O20716   1.930   4.672   4.834
 6825WAT     H120717   1.882   4.755   4.862
 6825WAT     H220718   1.864   4.605   4.800
 6826WAT      O20719   4.002   8.888   9.432
 6826WAT     H120720   3.964   8.879   9.524
 6826WAT     H220721   4.023   8.798   9.395
 6827WAT      O20722   4.133   6.831   7.487
 6827WAT     H120723   4.103   6.783   7.404
 6827WAT     H220724   4.191   6.909   7.461
 6828WAT      O20725   3.455   7.134   7.673
 6828WAT     H120726   3.451   7.157   7.770
 6828WAT     H220727   3.398   7.053   7.655
 6829WAT      O20728   0.666   8.751   0.133
 6829WAT     H120729   0.644   8.817   0.061
 6829WAT     H220730   0.644   8.659   0.101
 6830WAT      O20731   0.828   0.012   7.493
 6830WAT     H120732   0.734   0.025   7.525
 6830WAT     H220733   0.847  -0.086   7.484
 6831WAT      O20734   7.962   3.313   3.085
 6831WAT     H120735   7.868   3.326   3.056
 6831WAT     H220736   7.974   3.349   3.178
 6832WAT      O20737   6.997   3.239   4.165
 6832WAT     H120738   7.087   3.282   4.151
 6832WAT     H220739   6.927   3.295   4.122
 6833WAT      O20740   6.295   0.245   7.374
 6833WAT     H120741   6.218   0.214   7.317
 6833WAT     H220742   6.381   0.209   7.336
 6834WAT      O20743   2.592   9.255   4.648
 6834WAT     H120744   2.546   9.171   4.674
 6834WAT     H220745   2.535   9.307   4.584
 6835WAT      O20746   7.019   6.261   2.360
 6835WAT     H120747   6.966   6.336   2.322
 6835WAT     H220748   7.116   6.276   2.340
 6836WAT      O20749   0.961   0.736   7.375
 6836WAT     H120750   1.045   0.790   7.368
 6836WAT     H220751   0.951   0.679   7.294
 6837WAT      O20752   1.858   8.953   9.645
 6837WAT     H120753   1.846   8.866   9.598
 6837WAT     H220754   1.904   9.018   9.583
 6838WAT      O20755   6.022   6.413   2.900
 6838WAT     H120756   6.077   6.397   2.818
 6838WAT     H220757   5.949   6.344   2.905
 6839WAT      O20758   2.238   6.428   5.774
 6839WAT     H120759   2.178   6.505   5.796
 6839WAT     H220760   2.280   6.442   5.684
 6840WAT      O20761   4.430   6.862   1.369
 6840WAT     H120762   4.379   6.932   1.321
 6840WAT     H220763   4.385   6.841   1.456
 6841WAT      O20764   2.752   5.876   5.521
 6841WAT     H120765   2.756   5.843   5.427
 6841WAT     H220766   2.730   5.973   5.522
 6842WAT      O20767   4.987   5.570   2.798
 6842WAT     H120768   5.061   5.587   2.863
 6842WAT     H220769   4.899   5.592   2.840
 6843WAT      O20770   1.243   1.399   4.311
 6843WAT     H120771   1.170   1.403   4.242
 6843WAT     H220772   1.284   1.490   4.320
 6844WAT      O20773   5.833   1.469   3.912
 6844WAT     H120774   5.888   1.525   3.974
 6844WAT     H220775   5.764   1.527   3.868
 6845WAT      O20776   1.645   0.329   8.161
 6845WAT     H120777   1.632   0.312   8.064
 6845WAT     H220778   1.561   0.307   8.210
 6846WAT      O20779   5.989   4.058   5.353
 6846WAT     H120780   5.933   3.979   5.377
 6846WAT     H220781   6.085   4.039   5.374
 6847WAT      O20782   3.673   2.286   8.619
 6847WAT     H120783   3.762   2.242   8.632
 6847WAT     H220784   3.616   2.270   8.700
 6848WAT      O20785   0.765   0.524   0.153
 6848WAT     H120786   0.801   0.573   0.232
 6848WAT     H220787   0.789   0.427   0.161
 6849WAT      O20788   8.401   5.286   3.267
 6849WAT     H120789   8.448   5.369   3.297
 6849WAT     H220790   8.323   5.312   3.209
 6850WAT      O20791   2.450   0.529   7.809
 6850WAT     H120792   2.523   0.578   7.762
 6850WAT     H220793   2.444   0.561   7.904
 6851WAT      O20794   6.122   7.723   0.739
 6851WAT     H120795   6.187   7.678   0.678
 6851WAT     H220796   6.129   7.684   0.831
 6852WAT      O20797   0.782   7.919   8.692
 6852WAT     H120798   0.745   7.869   8.770
 6852WAT     H220799   0.719   7.914   8.616
 6853WAT      O20800   8.112   7.348   0.643
 6853WAT     H120801   8.160   7.435   0.652
 6853WAT     H220802   8.023   7.354   0.688
 6854WAT      O20803   2.308   4.547   9.378
 6854WAT     H120804   2.283   4.623   9.318
 6854WAT     H220805   2.385   4.497   9.339
 6855WAT      O20806   6.012   8.399   5.716
 6855WAT     H120807   5.994   8.305   5.744
 6855WAT     H220808   6.055   8.400   5.626
 6856WAT      O20809   6.692   4.945   0.057
 6856WAT     H120810   6.722   4.924  -0.036
 6856WAT     H220811   6.704   4.864   0.115
 6857WAT      O20812   8.877   1.013   6.640
 6857WAT     H120813   8.969   1.050   6.627
 6857WAT     H220814   8.839   0.986   6.552
 6858WAT      O20815   1.744   8.279   5.224
 6858WAT     H120816   1.778   8.373   5.221
 6858WAT     H220817   1.768   8.232   5.139
 6859WAT      O20818   9.625   8.014   8.924
 6859WAT     H120819   9.569   7.945   8.970
 6859WAT     H220820   9.715   7.975   8.903
 6860WAT      O20821   9.418   7.706   5.811
 6860WAT     H120822   9.470   7.638   5.863
 6860WAT     H220823   9.479   7.755   5.749
 6861WAT      O20824   6.260   3.924   3.699
 6861WAT     H120825   6.299   3.968   3.780
 6861WAT     H220826   6.172   3.966   3.677
 6862WAT      O20827   0.852   6.335   4.934
 6862WAT     H120828   0.778   6.281   4.895
 6862WAT     H220829   0.824   6.431   4.941
 6863WAT      O20830   0.012   4.808   8.965
 6863WAT     H120831   0.074   4.733   8.945
 6863WAT     H220832  -0.067   4.804   8.904
 6864WAT      O20833   8.394   5.106   4.450
 6864WAT     H120834   8.427   5.103   4.544
 6864WAT     H220835   8.468   5.135   4.390
 6865WAT      O20836   2.079   8.800   5.268
 6865WAT     H120837   2.170   8.805   5.229
 6865WAT     H220838   2.066   8.711   5.312
 6866WAT      O20839   8.798   7.712   7.097
 6866WAT     H120840   8.873   7.681   7.155
 6866WAT     H220841   8.712   7.705   7.148
 6867WAT      O20842   6.809   5.756   1.275
 6867WAT     H120843   6.804   5.854   1.255
 6867WAT     H220844   6.876   5.713   1.215
 6868WAT      O20845   8.294   6.009   8.340
 6868WAT     H120846   8.266   5.923   8.381
 6868WAT     H220847   8.233   6.032   8.264
 6869WAT      O20848   2.465   1.985   8.096
 6869WAT     H120849   2.405   1.909   8.069
 6869WAT     H220850   2.492   2.036   8.014
 6870WAT      O20851   7.466   3.655   8.939
 6870WAT     H120852   7.520   3.663   9.023
 6870WAT     H220853   7.435   3.745   8.910
 6871WAT      O20854   7.385   5.678   1.114
 6871WAT     H120855   7.387   5.578   1.113
 6871WAT     H220856   7.297   5.710   1.080
 6872WAT      O20857   5.291   3.794   3.733
 6872WAT     H120858   5.278   3.886   3.696
 6872WAT     H220859   5.218   3.773   3.797
 6873WAT      O20860   7.878   1.786   4.575
 6873WAT     H120861   7.884   1.693   4.613
 6873WAT     H220862   7.903   1.852   4.645
 6874WAT      O20863   4.257   0.478   1.091
 6874WAT     H120864   4.203   0.409   1.140
 6874WAT     H220865   4.270   0.448   0.996
 6875WAT      O20866   2.491   4.648   0.586
 6875WAT     H120867   2.467   4.693   0.500
 6875WAT     H220868   2.590   4.633   0.589
 6876WAT      O20869   7.587   8.968   2.721
 6876WAT     H120870   7.643   9.051   2.710
 6876WAT     H220871   7.571   8.952   2.818
 6877WAT      O20872   5.325   4.731   8.983
 6877WAT     H120873   5.360   4.647   9.024
 6877WAT     H220874   5.309   4.716   8.885
 6878WAT      O20875   6.087   2.444   1.453
 6878WAT     H120876   6.001   2.492   1.473
 6878WAT     H220877   6.159   2.511   1.435
 6879WAT      O20878   9.155   3.348   8.805
 6879WAT     H120879   9.152   3.249   8.802
 6879WAT     H220880   9.090   3.382   8.874
 6880WAT      O20881   9.031   3.201   6.852
 6880WAT     H120882   9.018   3.114   6.900
 6880WAT     H220883   9.121   3.238   6.875
 6881WAT      O20884   4.639   5.642   4.047
 6881WAT     H120885   4.576   5.630   4.124
 6881WAT     H220886   4.713   5.704   4.074
 6882WAT      O20887   0.450   4.281   1.445
 6882WAT     H120888   0.506   4.202   1.420
 6882WAT     H220889   0.385   4.301   1.371
 6883WAT      O20890   0.900   0.230   3.023
 6883WAT     H120891   0.886   0.228   3.122
 6883WAT     H220892   0.930   0.140   2.992
 6884WAT      O20893   6.608   5.568   9.283
 6884WAT     H120894   6.550   5.649   9.277
 6884WAT     H220895   6.554   5.486   9.262
 6885WAT      O20896   2.716   7.252   4.625
 6885WAT     H120897   2.662   7.211   4.699
 6885WAT     H220898   2.735   7.183   4.556
 6886WAT      O20899   6.737   6.922   4.564
 6886WAT     H120900   6.740   6.971   4.477
 6886WAT     H220901   6.816   6.860   4.571
 6887WAT      O20902   0.666   4.576   3.039
 6887WAT     H120903   0.746   4.579   2.979
 6887WAT     H220904   0.596   4.517   2.998
 6888WAT      O20905   0.925   0.091   7.033
 6888WAT     H120906   0.851   0.154   7.008
 6888WAT     H220907   1.004   0.110   6.975
 6889WAT      O20908   9.525   7.225   8.065
 6889WAT     H120909   9.498   7.146   8.120
 6889WAT     H220910   9.443   7.267   8.026
 6890WAT      O20911   9.325   6.083   9.089
 6890WAT     H120912   9.406   6.074   9.147
 6890WAT     H220913   9.244   6.095   9.146
 6891WAT      O20914   4.654   0.165   5.913
 6891WAT     H120915   4.658   0.172   6.012
 6891WAT     H220916   4.707   0.086   5.882
 6892WAT      O20917   8.596   6.028   4.715
 6892WAT     H120918   8.620   6.124   4.700
 6892WAT     H220919   8.600   5.978   4.629
 6893WAT      O20920   2.072   3.763   4.626
 6893WAT     H120921   2.161   3.773   4.582
 6893WAT     H220922   2.084   3.774   4.725
 6894WAT      O20923   2.430   1.067   9.045
 6894WAT     H120924   2.515   1.048   9.094
 6894WAT     H220925   2.417   0.999   8.973
 6895WAT      O20926   6.059   1.506   8.588
 6895WAT     H120927   6.075   1.408   8.594
 6895WAT     H220928   6.093   1.540   8.501
 6896WAT      O20929   5.895   3.585   7.495
 6896WAT     H120930   5.821   3.529   7.533
 6896WAT     H220931   5.964   3.602   7.565
 6897WAT      O20932   7.015   1.872   6.696
 6897WAT     H120933   6.996   1.962   6.736
 6897WAT     H220934   6.931   1.817   6.698
 6898WAT      O20935   1.382   0.765   8.473
 6898WAT     H120936   1.335   0.852   8.454
 6898WAT     H220937   1.357   0.733   8.565
 6899WAT      O20938   5.097   7.249   1.710
 6899WAT     H120939   5.119   7.155   1.737
 6899WAT     H220940   5.129   7.312   1.781
 6900WAT      O20941   1.089   2.122   7.570
 6900WAT     H120942   1.175   2.166   7.599
 6900WAT     H220943   1.103   2.075   7.483
 6901WAT      O20944   2.466   7.070   4.208
 6901WAT     H120945   2.514   7.142   4.259
 6901WAT     H220946   2.519   6.985   4.214
 6902WAT      O20947   4.350   8.059   4.699
 6902WAT     H120948   4.409   8.042   4.621
 6902WAT     H220949   4.257   8.026   4.678
 6903WAT      O20950   1.008   3.313   8.762
 6903WAT     H120951   0.929   3.364   8.797
 6903WAT     H220952   1.007   3.314   8.662
 6904WAT      O20953   9.823   1.579   2.848
 6904WAT     H120954   9.856   1.503   2.904
 6904WAT     H220955   9.770   1.641   2.905
 6905WAT      O20956   2.765   4.644   6.238
 6905WAT     H120957   2.710   4.722   6.208
 6905WAT     H220958   2.782   4.583   6.161
 6906WAT      O20959   7.371   1.733   3.069
 6906WAT     H120960   7.379   1.762   3.165
 6906WAT     H220961   7.322   1.647   3.065
 6907WAT      O20962   7.357   2.110   0.354
 6907WAT     H120963   7.428   2.041   0.362
 6907WAT     H220964   7.284   2.091   0.420
 6908WAT      O20965   7.660   2.297   6.821
 6908WAT     H120966   7.573   2.322   6.779
 6908WAT     H220967   7.652   2.303   6.920
 6909WAT      O20968   3.443   0.650   2.277
 6909WAT     H120969   3.453   0.666   2.179
 6909WAT     H220970   3.467   0.733   2.327
 6910WAT      O20971   1.349   3.348   8.317
 6910WAT     H120972   1.421   3.362   8.385
 6910WAT     H220973   1.303   3.261   8.335
 6911WAT      O20974   6.376   7.212   9.790
 6911WAT     H120975   6.442   7.183   9.859
 6911WAT     H220976   6.335   7.131   9.747
 6912WAT      O20977   1.637   9.157   6.679
 6912WAT     H120978   1.657   9.100   6.759
 6912WAT     H220979   1.689   9.243   6.685
 6913WAT      O20980   6.606   5.574   8.650
 6913WAT     H120981   6.537   5.504   8.633
 6913WAT     H220982   6.618   5.585   8.749
 6914WAT      O20983   8.217   8.412   4.964
 6914WAT     H120984   8.250   8.319   4.980
 6914WAT     H220985   8.238   8.439   4.870
 6915WAT      O20986   8.860   3.745   3.487
 6915WAT     H120987   8.913   3.680   3.433
 6915WAT     H220988   8.797   3.695   3.547
 6916WAT      O20989   3.716   7.881   8.260
 6916WAT     H120990   3.707   7.800   8.203
 6916WAT     H220991   3.773   7.949   8.212
 6917WAT      O20992   3.531   7.334   0.466
 6917WAT     H120993   3.528   7.298   0.560
 6917WAT     H220994   3.615   7.386   0.453
 6918WAT      O20995   0.760   5.774   9.163
 6918WAT     H120996   0.761   5.870   9.190
 6918WAT     H220997   0.665   5.744   9.150
 6919WAT      O20998   6.825   2.221   1.275
 6919WAT     H120999   6.877   2.137   1.291
 6919WAT     H221000   6.859   2.266   1.192
 6920WAT      O21001   9.512   2.379   4.591
 6920WAT     H121002   9.582   2.342   4.530
 6920WAT     H221003   9.539   2.470   4.621
 6921WAT      O21004   5.200   0.149   7.024
 6921WAT     H121005   5.298   0.168   7.026
 6921WAT     H221006   5.150   0.236   7.019
 6922WAT      O21007   5.693   6.018   9.629
 6922WAT     H121008   5.726   6.110   9.647
 6922WAT     H221009   5.593   6.018   9.630
 6923WAT      O21010   1.490   0.718   9.538
 6923WAT     H121011   1.422   0.686   9.603
 6923WAT     H221012   1.582   0.698   9.572
 6924WAT      O21013   3.605   6.865   7.115
 6924WAT     H121014   3.699   6.881   7.083
 6924WAT     H221015   3.593   6.905   7.205
 6925WAT      O21016   7.076   4.035   3.707
 6925WAT     H121017   7.159   4.082   3.737
 6925WAT     H221018   7.078   3.941   3.738
 6926WAT      O21019   5.164   6.836   7.954
 6926WAT     H121020   5.185   6.739   7.936
 6926WAT     H221021   5.131   6.879   7.870
 6927WAT      O21022   4.228   8.349   4.978
 6927WAT     H121023   4.198   8.256   5.000
 6927WAT     H221024   4.305   8.344   4.914
 6928WAT      O21025   6.981   3.533   7.706
 6928WAT     H121026   6.968   3.621   7.751
 6928WAT     H221027   6.975   3.460   7.774
 6929WAT      O21028   8.562   2.772   4.730
 6929WAT     H121029   8.590   2.702   4.665
 6929WAT     H221030   8.477   2.744   4.774
 6930WAT      O21031   7.136   2.635   4.331
 6930WAT     H121032   7.171   2.712   4.385
 6930WAT     H221033   7.176   2.638   4.239
 6931WAT      O21034   1.198   0.554   4.329
 6931WAT     H121035   1.231   0.463   4.304
 6931WAT     H221036   1.269   0.601   4.382
 6932WAT      O21037   2.716   2.040   1.684
 6932WAT     H121038   2.773   2.110   1.642
 6932WAT     H221039   2.773   1.968   1.722
 6933WAT      O21040   3.236   4.032   5.744
 6933WAT     H121041   3.172   3.991   5.679
 6933WAT     H221042   3.242   4.130   5.727
 6934WAT      O21043   2.194   1.141   3.123
 6934WAT     H121044   2.274   1.090   3.156
 6934WAT     H221045   2.138   1.169   3.201
 6935WAT      O21046   0.743   5.280   4.176
 6935WAT     H121047   0.662   5.231   4.144
 6935WAT     H221048   0.738   5.290   4.276
 6936WAT      O21049   8.457   7.873   5.970
 6936WAT     H121050   8.443   7.776   5.989
 6936WAT     H221051   8.369   7.917   5.952
 6937WAT      O21052   2.055   0.557   8.750
 6937WAT     H121053   2.013   0.613   8.821
 6937WAT     H221054   2.010   0.575   8.663
 6938WAT      O21055   2.749   0.828   5.834
 6938WAT     H121056   2.829   0.866   5.789
 6938WAT     H221057   2.681   0.803   5.766
 6939WAT      O21058   0.805   7.009   6.827
 6939WAT     H121059   0.819   6.936   6.760
 6939WAT     H221060   0.775   6.969   6.914
 6940WAT      O21061   3.621   0.831   9.266
 6940WAT     H121062   3.591   0.847   9.360
 6940WAT     H221063   3.653   0.917   9.227
 6941WAT      O21064   2.608   4.325   2.471
 6941WAT     H121065   2.542   4.253   2.447
 6941WAT     H221066   2.649   4.304   2.560
 6942WAT      O21067   5.531   5.771   0.332
 6942WAT     H121068   5.462   5.734   0.394
 6942WAT     H221069   5.520   5.870   0.325
 6943WAT      O21070   0.225   8.208   9.835
 6943WAT     H121071   0.163   8.251   9.901
 6943WAT     H221072   0.305   8.172   9.882
 6944WAT      O21073   8.862   8.605   0.037
 6944WAT     H121074   8.897   8.689  -0.004
 6944WAT     H221075   8.769   8.588   0.005
 6945WAT      O21076   0.880   3.851   7.689
 6945WAT     H121077   0.829   3.766   7.694
 6945WAT     H221078   0.893   3.878   7.594
 6946WAT      O21079   6.065   2.673   4.172
 6946WAT     H121080   6.128   2.596   4.161
 6946WAT     H221081   5.973   2.645   4.146
 6947WAT      O21082   2.912   1.411   2.782
 6947WAT     H121083   2.883   1.486   2.842
 6947WAT     H221084   2.930   1.330   2.837
 6948WAT      O21085   5.559   8.406   2.207
 6948WAT     H121086   5.472   8.452   2.193
 6948WAT     H221087   5.580   8.350   2.126
 6949WAT      O21088   9.730   2.344   9.687
 6949WAT     H121089   9.718   2.432   9.641
 6949WAT     H221090   9.658   2.281   9.659
 6950WAT      O21091   2.847   5.984   4.066
 6950WAT     H121092   2.813   5.906   4.119
 6950WAT     H221093   2.907   5.951   3.994
 6951WAT      O21094   0.441   8.677   0.318
 6951WAT     H121095   0.407   8.584   0.302
 6951WAT     H221096   0.518   8.695   0.256
 6952WAT      O21097   5.750   0.703   2.865
 6952WAT     H121098   5.743   0.728   2.769
 6952WAT     H221099   5.803   0.772   2.914
 6953WAT      O21100   2.573   7.863   1.479
 6953WAT     H121101   2.546   7.797   1.549
 6953WAT     H221102   2.496   7.880   1.418
 6954WAT      O21103   9.264   8.134   6.041
 6954WAT     H121104   9.333   8.143   5.970
 6954WAT     H221105   9.272   8.044   6.084
 6955WAT      O21106   9.088   4.376   2.026
 6955WAT     H121107   9.106   4.278   2.027
 6955WAT     H221108   9.086   4.411   2.120
 6956WAT      O21109   1.310   6.758   7.752
 6956WAT     H121110   1.394   6.812   7.742
 6956WAT     H221111   1.237   6.817   7.786
 6957WAT      O21112   5.427   7.038   7.000
 6957WAT     H121113   5.391   7.030   6.907
 6957WAT     H221114   5.527   7.045   6.996
 6958WAT      O21115   2.495   2.213   3.786
 6958WAT     H121116   2.567   2.149   3.758
 6958WAT     H221117   2.468   2.193   3.880
 6959WAT      O21118   7.774   5.726   6.428
 6959WAT     H121119   7.871   5.701   6.421
 6959WAT     H221120   7.739   5.748   6.337
 6960WAT      O21121   9.041   5.414   4.309
 6960WAT     H121122   9.001   5.490   4.359
 6960WAT     H221123   8.995   5.329   4.335
 6961WAT      O21124   2.385   6.921   8.272
 6961WAT     H121125   2.383   6.872   8.184
 6961WAT     H221126   2.449   6.875   8.334
 6962WAT      O21127   2.017   8.083   5.471
 6962WAT     H121128   2.047   8.022   5.544
 6962WAT     H221129   1.985   8.169   5.511
 6963WAT      O21130   9.771   2.647   9.584
 6963WAT     H121131   9.718   2.711   9.640
 6963WAT     H221132   9.867   2.652   9.610
 6964WAT      O21133   5.531   8.121   1.973
 6964WAT     H121134   5.439   8.088   1.995
 6964WAT     H221135   5.525   8.195   1.906
 6965WAT      O21136   8.757   7.863   5.895
 6965WAT     H121137   8.664   7.868   5.933
 6965WAT     H221138   8.822   7.843   5.967
 6966WAT      O21139   7.341   0.981   4.596
 6966WAT     H121140   7.370   0.960   4.689
 6966WAT     H221141   7.307   1.075   4.592
 6967WAT      O21142   1.874   0.588   8.149
 6967WAT     H121143   1.877   0.497   8.108
 6967WAT     H221144   1.778   0.612   8.169
 6968WAT      O21145   6.006   0.842   2.325
 6968WAT     H121146   6.091   0.799   2.295
 6968WAT     H221147   6.015   0.870   2.420
 6969WAT      O21148   0.467   3.008   3.642
 6969WAT     H121149   0.424   2.918   3.653
 6969WAT     H221150   0.561   3.004   3.675
 6970WAT      O21151   4.999   7.418   5.500
 6970WAT     H121152   5.038   7.407   5.408
 6970WAT     H221153   5.068   7.457   5.561
 6971WAT      O21154   1.010   7.373   0.684
 6971WAT     H121155   0.959   7.290   0.707
 6971WAT     H221156   1.061   7.404   0.764
 6972WAT      O21157   3.831   4.450   4.459
 6972WAT     H121158   3.734   4.432   4.475
 6972WAT     H221159   3.846   4.549   4.455
 6973WAT      O21160   3.475   8.566   5.761
 6973WAT     H121161   3.407   8.629   5.800
 6973WAT     H221162   3.430   8.507   5.694
 6974WAT      O21163   2.063   1.288   3.354
 6974WAT     H121164   2.129   1.326   3.420
 6974WAT     H221165   2.019   1.362   3.304
 6975WAT      O21166   9.698   3.806   7.853
 6975WAT     H121167   9.771   3.872   7.834
 6975WAT     H221168   9.616   3.831   7.802
 6976WAT      O21169   3.861   6.611   0.581
 6976WAT     H121170   3.782   6.576   0.633
 6976WAT     H221171   3.944   6.598   0.635
 6977WAT      O21172   9.055   5.474   0.266
 6977WAT     H121173   9.003   5.437   0.189
 6977WAT     H221174   9.136   5.416   0.283
 6978WAT      O21175   1.890   9.525   7.817
 6978WAT     H121176   1.921   9.519   7.722
 6978WAT     H221177   1.862   9.620   7.837
 6979WAT      O21178   3.172   8.603   4.710
 6979WAT     H121179   3.157   8.701   4.700
 6979WAT     H221180   3.268   8.586   4.732
 6980WAT      O21181   8.799   9.764   6.051
 6980WAT     H121182   8.893   9.737   6.033
 6980WAT     H221183   8.792   9.801   6.144
 6981WAT      O21184   1.131   2.790   7.785
 6981WAT     H121185   1.036   2.819   7.772
 6981WAT     H221186   1.174   2.777   7.696
 6982WAT      O21187   1.023   4.919   7.838
 6982WAT     H121188   0.933   4.953   7.808
 6982WAT     H221189   1.091   4.941   7.769
 6983WAT      O21190   6.517   4.537   0.893
 6983WAT     H121191   6.606   4.572   0.922
 6983WAT     H221192   6.530   4.472   0.818
 6984WAT      O21193   0.372   9.548   9.728
 6984WAT     H121194   0.415   9.458   9.728
 6984WAT     H221195   0.408   9.603   9.653
 6985WAT      O21196   3.947   7.822   6.698
 6985WAT     H121197   4.004   7.740   6.701
 6985WAT     H221198   3.908   7.833   6.607
 6986WAT      O21199   1.530   4.907   5.763
 6986WAT     H121200   1.431   4.921   5.772
 6986WAT     H221201   1.551   4.880   5.669
 6987WAT      O21202   0.000   7.125   9.161
 6987WAT     H121203   0.048   7.211   9.143
 6987WAT     H221204  -0.015   7.077   9.074
 6988WAT      O21205   6.178   1.629   3.483
 6988WAT     H121206   6.241   1.635   3.560
 6988WAT     H221207   6.158   1.533   3.463
 6989WAT      O21208   3.562   1.520   2.652
 6989WAT     H121209   3.523   1.534   2.743
 6989WAT     H221210   3.661   1.532   2.656
 6990WAT      O21211   8.215   3.865   8.220
 6990WAT     H121212   8.296   3.890   8.166
 6990WAT     H221213   8.144   3.829   8.158
 6991WAT      O21214   5.964   9.553   2.217
 6991WAT     H121215   5.971   9.469   2.271
 6991WAT     H221216   5.869   9.585   2.217
 6992WAT      O21217   2.634   0.424   9.606
 6992WAT     H121218   2.723   0.401   9.568
 6992WAT     H221219   2.568   0.354   9.581
 6993WAT      O21220   5.267   8.156   9.451
 6993WAT     H121221   5.185   8.098   9.448
 6993WAT     H221222   5.339   8.108   9.502
 6994WAT      O21223   9.789   7.783   7.941
 6994WAT     H121224   9.779   7.689   7.976
 6994WAT     H221225   9.709   7.805   7.884
 6995WAT      O21226   9.387   0.449   2.363
 6995WAT     H121227   9.340   0.365   2.389
 6995WAT     H221228   9.327   0.505   2.306
 6996WAT      O21229   0.252   2.669   0.279
 6996WAT     H121230   0.339   2.625   0.304
 6996WAT     H221231   0.189   2.665   0.356
 6997WAT      O21232   2.572   6.395   9.501
 6997WAT     H121233   2.619   6.355   9.580
 6997WAT     H221234   2.636   6.451   9.448
 6998WAT      O21235   3.434   1.284   6.092
 6998WAT     H121236   3.439   1.246   6.184
 6998WAT     H221237   3.463   1.379   6.093
 6999WAT      O21238   2.452   4.357   1.293
 6999WAT     H121239   2.419   4.427   1.229
 6999WAT     H221240   2.528   4.394   1.347
 7000WAT      O21241   0.082   7.138   1.745
 7000WAT     H121242   0.122   7.184   1.666
 7000WAT     H221243   0.154   7.097   1.801
 7001WAT      O21244   2.749   5.318   9.486
 7001WAT     H121245   2.779   5.250   9.418
 7001WAT     H221246   2.660   5.355   9.458
 7002WAT      O21247   1.168   3.717   8.656
 7002WAT     H121248   1.241   3.707   8.589
 7002WAT     H221249   1.207   3.723   8.748
 7003WAT      O21250   8.681   3.147   5.432
 7003WAT     H121251   8.606   3.138   5.366
 7003WAT     H221252   8.768   3.132   5.386
 7004WAT      O21253   9.198   4.783   9.552
 7004WAT     H121254   9.213   4.815   9.458
 7004WAT     H221255   9.110   4.815   9.585
 7005WAT      O21256   4.133   0.037   4.617
 7005WAT     H121257   4.220  -0.005   4.645
 7005WAT     H221258   4.067  -0.035   4.597
 7006WAT      O21259   9.450   9.637   8.467
 7006WAT     H121260   9.429   9.570   8.396
 7006WAT     H221261   9.491   9.590   8.546
 7007WAT      O21262   4.386   1.570   6.247
 7007WAT     H121263   4.327   1.545   6.324
 7007WAT     H221264   4.335   1.627   6.183
 7008WAT      O21265   1.379   8.324   3.932
 7008WAT     H121266   1.412   8.393   3.867
 7008WAT     H221267   1.304   8.273   3.891
 7009WAT      O21268   8.294   6.279   7.592
 7009WAT     H121269   8.270   6.224   7.512
 7009WAT     H221270   8.289   6.376   7.569
 7010WAT      O21271   5.121   0.533   6.653
 7010WAT     H121272   5.111   0.540   6.752
 7010WAT     H221273   5.102   0.622   6.610
 7011WAT      O21274   1.912   0.631   5.024
 7011WAT     H121275   2.001   0.586   5.030
 7011WAT     H221276   1.842   0.565   4.995
 7012WAT      O21277   0.376   0.551   5.362
 7012WAT     H121278   0.315   0.598   5.426
 7012WAT     H221279   0.331   0.470   5.325
 7013WAT      O21280   8.619   2.204   6.271
 7013WAT     H121281   8.535   2.249   6.241
 7013WAT     H221282   8.674   2.267   6.325
 7014WAT      O21283   6.443   5.076   3.377
 7014WAT     H121284   6.363   5.017   3.386
 7014WAT     H221285   6.415   5.171   3.391
 7015WAT      O21286   5.691   7.451   6.434
 7015WAT     H121287   5.633   7.515   6.485
 7015WAT     H221288   5.767   7.422   6.492
 7016WAT      O21289   4.393   7.789   4.280
 7016WAT     H121290   4.450   7.726   4.228
 7016WAT     H221291   4.312   7.814   4.227
 7017WAT      O21292   3.378   3.133   7.073
 7017WAT     H121293   3.421   3.111   7.161
 7017WAT     H221294   3.278   3.137   7.085
 7018WAT      O21295   5.248   9.144   0.453
 7018WAT     H121296   5.319   9.168   0.387
 7018WAT     H221297   5.179   9.087   0.408
 7019WAT      O21298   3.608   9.385   5.030
 7019WAT     H121299   3.621   9.379   5.130
 7019WAT     H221300   3.655   9.309   4.986
 7020WAT      O21301   6.055   3.374   4.868
 7020WAT     H121302   5.996   3.303   4.831
 7020WAT     H221303   6.040   3.382   4.966
 7021WAT      O21304   1.682   5.863   3.955
 7021WAT     H121305   1.644   5.773   3.977
 7021WAT     H221306   1.779   5.865   3.981
 7022WAT      O21307   7.616   6.971   1.857
 7022WAT     H121308   7.552   6.933   1.791
 7022WAT     H221309   7.573   7.046   1.907
 7023WAT      O21310   0.430   5.830   7.432
 7023WAT     H121311   0.334   5.823   7.403
 7023WAT     H221312   0.470   5.913   7.394
 7024WAT      O21313   2.939   4.066   2.085
 7024WAT     H121314   3.019   4.040   2.032
 7024WAT     H221315   2.948   4.160   2.118
 7025WAT      O21316   4.155   7.867   4.939
 7025WAT     H121317   4.095   7.798   4.980
 7025WAT     H221318   4.155   7.856   4.839
 7026WAT      O21319   0.926   2.918   0.183
 7026WAT     H121320   0.885   2.865   0.257
 7026WAT     H221321   0.854   2.955   0.124
 7027WAT      O21322   3.968   4.208   8.434
 7027WAT     H121323   4.037   4.243   8.497
 7027WAT     H221324   3.885   4.185   8.486
 7028WAT      O21325   7.306   2.676   0.995
 7028WAT     H121326   7.232   2.740   0.974
 7028WAT     H221327   7.270   2.584   1.003
 7029WAT      O21328   9.646   8.792   2.580
 7029WAT     H121329   9.745   8.803   2.580
 7029WAT     H221330   9.607   8.836   2.500
 7030WAT      O21331   4.266   1.348   9.767
 7030WAT     H121332   4.237   1.279   9.833
 7030WAT     H221333   4.351   1.391   9.798
 7031WAT      O21334   9.205   1.435   5.022
 7031WAT     H121335   9.297   1.397   5.008
 7031WAT     H221336   9.199   1.523   4.976
 7032WAT      O21337   1.393   3.001   3.965
 7032WAT     H121338   1.488   2.984   3.938
 7032WAT     H221339   1.361   2.927   4.024
 7033WAT      O21340   6.684   4.400   8.508
 7033WAT     H121341   6.773   4.358   8.492
 7033WAT     H221342   6.696   4.498   8.525
 7034WAT      O21343   0.805   8.062   4.720
 7034WAT     H121344   0.798   8.032   4.625
 7034WAT     H221345   0.741   8.009   4.776
 7035WAT      O21346   5.665   8.151   4.554
 7035WAT     H121347   5.621   8.125   4.468
 7035WAT     H221348   5.741   8.088   4.572
 7036WAT      O21349   2.433   4.590   3.281
 7036WAT     H121350   2.441   4.572   3.378
 7036WAT     H221351   2.391   4.680   3.267
 7037WAT      O21352   7.185   4.591   0.238
 7037WAT     H121353   7.108   4.569   0.179
 7037WAT     H221354   7.227   4.507   0.272
 7038WAT      O21355   6.095   8.994   4.848
 7038WAT     H121356   6.125   8.912   4.897
 7038WAT     H221357   6.155   9.009   4.769
 7039WAT      O21358   8.051   8.981   5.475
 7039WAT     H121359   8.024   8.971   5.380
 7039WAT     H221360   8.067   8.891   5.515
 7040WAT      O21361   1.481   8.183   9.062
 7040WAT     H121362   1.419   8.109   9.034
 7040WAT     H221363   1.563   8.145   9.103
 7041WAT      O21364   3.196   1.104   5.649
 7041WAT     H121365   3.196   1.004   5.636
 7041WAT     H221366   3.131   1.145   5.585
 7042WAT      O21367   5.517   3.355   4.704
 7042WAT     H121368   5.503   3.424   4.632
 7042WAT     H221369   5.598   3.380   4.757
 7043WAT      O21370   0.802   4.578   4.562
 7043WAT     H121371   0.870   4.645   4.590
 7043WAT     H221372   0.712   4.623   4.556
 7044WAT      O21373   4.108   9.556   2.238
 7044WAT     H121374   4.016   9.561   2.277
 7044WAT     H221375   4.155   9.643   2.253
 7045WAT      O21376   1.489   1.720   4.602
 7045WAT     H121377   1.411   1.767   4.641
 7045WAT     H221378   1.554   1.695   4.674
 7046WAT      O21379   8.383   9.102   0.379
 7046WAT     H121380   8.372   9.152   0.464
 7046WAT     H221381   8.478   9.072   0.370
 7047WAT      O21382   5.357   3.075   9.166
 7047WAT     H121383   5.334   2.986   9.128
 7047WAT     H221384   5.292   3.098   9.239
 7048WAT      O21385   7.561   6.725   3.214
 7048WAT     H121386   7.571   6.653   3.283
 7048WAT     H221387   7.626   6.799   3.235
 7049WAT      O21388   9.153   0.523   6.655
 7049WAT     H121389   9.125   0.560   6.567
 7049WAT     H221390   9.232   0.463   6.643
 7050WAT      O21391   7.041   3.843   1.285
 7050WAT     H121392   7.036   3.745   1.265
 7050WAT     H221393   7.124   3.881   1.244
 7051WAT      O21394   7.333   2.609   2.266
 7051WAT     H121395   7.432   2.628   2.267
 7051WAT     H221396   7.295   2.635   2.177
 7052WAT      O21397   4.011   6.829   4.823
 7052WAT     H121398   3.952   6.801   4.747
 7052WAT     H221399   3.968   6.805   4.910
 7053WAT      O21400   7.911   7.763   9.728
 7053WAT     H121401   7.893   7.752   9.630
 7053WAT     H221402   7.969   7.843   9.743
 7054WAT      O21403   7.310   7.746   9.736
 7054WAT     H121404   7.351   7.700   9.815
 7054WAT     H221405   7.311   7.685   9.657
 7055WAT      O21406   2.647   4.859   3.392
 7055WAT     H121407   2.701   4.864   3.476
 7055WAT     H221408   2.611   4.767   3.381
 7056WAT      O21409   1.600   7.997   2.540
 7056WAT     H121410   1.506   8.033   2.542
 7056WAT     H221411   1.606   7.918   2.602
 7057WAT      O21412   9.233   7.013   5.791
 7057WAT     H121413   9.239   6.920   5.754
 7057WAT     H221414   9.202   7.075   5.719
 7058WAT      O21415   0.809   0.191   4.050
 7058WAT     H121416   0.877   0.187   3.977
 7058WAT     H221417   0.806   0.284   4.088
 7059WAT      O21418   8.089   6.875   1.013
 7059WAT     H121419   8.167   6.813   1.004
 7059WAT     H221420   8.028   6.842   1.086
 7060WAT      O21421   5.691   7.358   2.686
 7060WAT     H121422   5.782   7.376   2.722
 7060WAT     H221423   5.622   7.380   2.755
 7061WAT      O21424   3.413   3.267   5.826
 7061WAT     H121425   3.409   3.193   5.758
 7061WAT     H221426   3.506   3.305   5.827
 7062WAT      O21427   8.674   5.114   5.197
 7062WAT     H121428   8.648   5.163   5.114
 7062WAT     H221429   8.648   5.018   5.188
 7063WAT      O21430   4.170   6.804   7.084
 7063WAT     H121431   4.095   6.753   7.041
 7063WAT     H221432   4.168   6.898   7.052
 7064WAT      O21433   6.700   6.939   9.852
 7064WAT     H121434   6.641   6.925   9.772
 7064WAT     H221435   6.768   7.009   9.832
 7065WAT      O21436   2.768   5.842   9.279
 7065WAT     H121437   2.764   5.742   9.276
 7065WAT     H221438   2.811   5.871   9.364
 7066WAT      O21439   2.586   7.201   0.471
 7066WAT     H121440   2.536   7.209   0.385
 7066WAT     H221441   2.630   7.288   0.492
 7067WAT      O21442   1.192   2.540   1.139
 7067WAT     H121443   1.174   2.448   1.104
 7067WAT     H221444   1.173   2.542   1.237
 7068WAT      O21445   8.955   5.510   8.534
 7068WAT     H121446   9.044   5.481   8.567
 7068WAT     H221447   8.900   5.430   8.511
 7069WAT      O21448   9.684   5.184   0.287
 7069WAT     H121449   9.629   5.127   0.226
 7069WAT     H221450   9.712   5.131   0.367
 7070WAT      O21451   3.927   8.338   8.754
 7070WAT     H121452   3.989   8.359   8.829
 7070WAT     H221453   3.835   8.372   8.776
 7071WAT      O21454   1.285   0.799   1.462
 7071WAT     H121455   1.198   0.749   1.467
 7071WAT     H221456   1.345   0.767   1.535
 7072WAT      O21457   4.045   4.989   1.629
 7072WAT     H121458   4.043   5.088   1.615
 7072WAT     H221459   4.108   4.968   1.704
 7073WAT      O21460   1.764   1.513   6.774
 7073WAT     H121461   1.722   1.539   6.861
 7073WAT     H221462   1.764   1.592   6.712
 7074WAT      O21463   0.026   0.377   7.578
 7074WAT     H121464   0.085   0.439   7.526
 7074WAT     H221465  -0.027   0.321   7.514
 7075WAT      O21466   0.357   5.642   6.991
 7075WAT     H121467   0.447   5.603   7.009
 7075WAT     H221468   0.317   5.676   7.076
 7076WAT      O21469   4.923   8.584   1.240
 7076WAT     H121470   4.958   8.540   1.322
 7076WAT     H221471   4.981   8.663   1.217
 7077WAT      O21472   2.912   2.726   2.795
 7077WAT     H121473   2.932   2.628   2.788
 7077WAT     H221474   2.976   2.769   2.858
 7078WAT      O21475   4.769   5.954   2.650
 7078WAT     H121476   4.864   5.929   2.667
 7078WAT     H221477   4.723   5.879   2.601
 7079WAT      O21478   0.610   6.013   6.815
 7079WAT     H121479   0.552   6.048   6.741
 7079WAT     H221480   0.687   5.963   6.775
 7080WAT      O21481   0.618   9.803   4.414
 7080WAT     H121482   0.554   9.879   4.424
 7080WAT     H221483   0.567   9.717   4.410
 7081WAT      O21484   3.156   1.612   1.668
 7081WAT     H121485   3.253   1.590   1.681
 7081WAT     H221486   3.142   1.650   1.577
 7082WAT      O21487   3.068   7.644   4.946
 7082WAT     H121488   3.055   7.715   5.016
 7082WAT     H221489   2.985   7.589   4.938
 7083WAT      O21490   9.511   2.383   6.392
 7083WAT     H121491   9.575   2.309   6.414
 7083WAT     H221492   9.487   2.379   6.295
 7084WAT      O21493   4.765   3.047   2.954
 7084WAT     H121494   4.855   3.056   2.911
 7084WAT     H221495   4.731   3.137   2.978
 7085WAT      O21496   7.490   8.796   5.260
 7085WAT     H121497   7.533   8.716   5.218
 7085WAT     H221498   7.537   8.879   5.229
 7086WAT      O21499   5.804   4.502   9.763
 7086WAT     H121500   5.841   4.409   9.768
 7086WAT     H221501   5.827   4.552   9.846
 7087WAT      O21502   7.758   1.677   2.222
 7087WAT     H121503   7.699   1.749   2.258
 7087WAT     H221504   7.730   1.654   2.129
 7088WAT      O21505   0.067   5.525   5.397
 7088WAT     H121506   0.167   5.526   5.406
 7088WAT     H221507   0.027   5.592   5.459
 7089WAT      O21508   7.623   0.571   7.089
 7089WAT     H121509   7.564   0.603   7.015
 7089WAT     H221510   7.672   0.489   7.060
 7090WAT      O21511   5.013   2.827   6.258
 7090WAT     H121512   5.105   2.807   6.224
 7090WAT     H221513   5.005   2.795   6.352
 7091WAT      O21514   0.977   8.767   3.929
 7091WAT     H121515   0.939   8.791   4.018
 7091WAT     H221516   1.062   8.715   3.941
 7092WAT      O21517   8.587   3.689   5.717
 7092WAT     H121518   8.591   3.776   5.667
 7092WAT     H221519   8.518   3.630   5.675
 7093WAT      O21520   6.713   4.314   2.145
 7093WAT     H121521   6.752   4.401   2.116
 7093WAT     H221522   6.679   4.323   2.239
 7094WAT      O21523   0.823   8.045   2.466
 7094WAT     H121524   0.856   8.008   2.379
 7094WAT     H221525   0.851   7.983   2.540
 7095WAT      O21526   1.338   2.162   8.925
 7095WAT     H121527   1.320   2.063   8.919
 7095WAT     H221528   1.296   2.198   9.008
 7096WAT      O21529   8.665   5.858   0.451
 7096WAT     H121530   8.680   5.950   0.486
 7096WAT     H221531   8.631   5.863   0.357
 7097WAT      O21532   6.253   7.218   6.807
 7097WAT     H121533   6.317   7.242   6.880
 7097WAT     H221534   6.229   7.121   6.814
 7098WAT      O21535   2.797   0.977   8.729
 7098WAT     H121536   2.863   0.963   8.803
 7098WAT     H221537   2.749   1.064   8.744
 7099WAT      O21538   3.427   8.743   3.772
 7099WAT     H121539   3.441   8.837   3.742
 7099WAT     H221540   3.399   8.742   3.868
 7100WAT      O21541   5.668   9.044   4.341
 7100WAT     H121542   5.698   8.977   4.273
 7100WAT     H221543   5.573   9.068   4.324
 7101WAT      O21544   0.443   4.352   4.857
 7101WAT     H121545   0.429   4.253   4.863
 7101WAT     H221546   0.530   4.371   4.811
 7102WAT      O21547   8.872   5.566   4.889
 7102WAT     H121548   8.871   5.603   4.796
 7102WAT     H221549   8.837   5.635   4.952
 7103WAT      O21550   6.012   1.083   3.406
 7103WAT     H121551   6.087   1.119   3.351
 7103WAT     H221552   5.940   1.153   3.415
 7104WAT      O21553   0.039   1.923   0.709
 7104WAT     H121554   0.114   1.988   0.722
 7104WAT     H221555  -0.011   1.912   0.795
 7105WAT      O21556   3.486   3.041   2.887
 7105WAT     H121557   3.573   3.087   2.907
 7105WAT     H221558   3.439   3.089   2.813
 7106WAT      O21559   7.388   9.452   6.609
 7106WAT     H121560   7.372   9.434   6.706
 7106WAT     H221561   7.486   9.456   6.591
 7107WAT      O21562   2.747   3.902   8.714
 7107WAT     H121563   2.819   3.963   8.680
 7107WAT     H221564   2.787   3.812   8.734
 7108WAT      O21565   6.034   6.289   4.848
 7108WAT     H121566   6.060   6.375   4.893
 7108WAT     H221567   5.942   6.263   4.876
 7109WAT      O21568   3.160   2.424   5.650
 7109WAT     H121569   3.118   2.345   5.605
 7109WAT     H221570   3.206   2.480   5.582
 7110WAT      O21571   7.852   3.802   3.615
 7110WAT     H121572   7.782   3.812   3.545
 7110WAT     H221573   7.934   3.852   3.588
 7111WAT      O21574   1.460   8.627   5.771
 7111WAT     H121575   1.446   8.604   5.674
 7111WAT     H221576   1.485   8.724   5.778
 7112WAT      O21577   8.623   1.402   9.176
 7112WAT     H121578   8.723   1.409   9.170
 7112WAT     H221579   8.584   1.400   9.084
 7113WAT      O21580   2.241   5.601   9.672
 7113WAT     H121581   2.270   5.659   9.748
 7113WAT     H221582   2.298   5.621   9.592
 7114WAT      O21583   9.172   2.104   2.757
 7114WAT     H121584   9.262   2.081   2.794
 7114WAT     H221585   9.181   2.132   2.662
 7115WAT      O21586   0.977   1.586   9.606
 7115WAT     H121587   1.056   1.648   9.608
 7115WAT     H221588   0.914   1.614   9.534
 7116WAT      O21589   9.535   6.517   0.680
 7116WAT     H121590   9.497   6.532   0.589
 7116WAT     H221591   9.541   6.419   0.698
 7117WAT      O21592   3.815   4.497   5.253
 7117WAT     H121593   3.758   4.417   5.271
 7117WAT     H221594   3.891   4.470   5.193
 7118WAT      O21595   5.895   5.656   6.732
 7118WAT     H121596   5.881   5.741   6.783
 7118WAT     H221597   5.817   5.595   6.748
 7119WAT      O21598   2.618   1.062   3.847
 7119WAT     H121599   2.546   1.125   3.819
 7119WAT     H221600   2.604   0.973   3.801
 7120WAT      O21601   1.548   5.019   2.424
 7120WAT     H121602   1.479   5.092   2.428
 7120WAT     H221603   1.504   4.932   2.403
 7121WAT      O21604   7.544   6.848   2.498
 7121WAT     H121605   7.582   6.935   2.528
 7121WAT     H221606   7.450   6.839   2.531
 7122WAT      O21607   1.386   6.977   6.526
 7122WAT     H121608   1.362   7.073   6.511
 7122WAT     H221609   1.389   6.959   6.625
 7123WAT      O21610   0.938   8.983   4.875
 7123WAT     H121611   0.947   9.002   4.973
 7123WAT     H221612   1.008   8.918   4.847
 7124WAT      O21613   2.461   9.062   5.174
 7124WAT     H121614   2.552   9.089   5.142
 7124WAT     H221615   2.443   8.968   5.146
 7125WAT      O21616   4.965   8.796   0.227
 7125WAT     H121617   4.992   8.700   0.238
 7125WAT     H221618   4.999   8.830   0.139
 7126WAT      O21619   2.857   0.159   5.889
 7126WAT     H121620   2.795   0.081   5.897
 7126WAT     H221621   2.928   0.152   5.959
 7127WAT      O21622   1.359   4.045   7.327
 7127WAT     H121623   1.284   4.084   7.380
 7127WAT     H221624   1.404   4.118   7.275
 7128WAT      O21625   6.202   5.352   2.604
 7128WAT     H121626   6.163   5.262   2.587
 7128WAT     H221627   6.267   5.375   2.531
 7129WAT      O21628   9.860   2.985   8.172
 7129WAT     H121629   9.761   2.999   8.171
 7129WAT     H221630   9.904   3.051   8.110
 7130WAT      O21631   2.575   7.322   8.767
 7130WAT     H121632   2.651   7.276   8.721
 7130WAT     H221633   2.568   7.289   8.861
 7131WAT      O21634   5.980   1.670   9.096
 7131WAT     H121635   6.027   1.644   9.011
 7131WAT     H221636   5.908   1.737   9.076
 7132WAT      O21637   3.596   4.026   1.034
 7132WAT     H121638   3.536   3.968   1.089
 7132WAT     H221639   3.615   3.981   0.947
 7133WAT      O21640   7.314   6.840   7.840
 7133WAT     H121641   7.312   6.939   7.848
 7133WAT     H221642   7.323   6.815   7.743
 7134WAT      O21643   2.049   7.218   1.184
 7134WAT     H121644   2.046   7.177   1.275
 7134WAT     H221645   1.955   7.237   1.153
 7135WAT      O21646   5.392   2.163   0.060
 7135WAT     H121647   5.369   2.069   0.084
 7135WAT     H221648   5.478   2.188   0.105
 7136WAT      O21649   0.070   7.069   6.128
 7136WAT     H121650   0.041   6.976   6.155
 7136WAT     H221651   0.086   7.124   6.210
 7137WAT      O21652   8.012   6.423   2.376
 7137WAT     H121653   8.007   6.332   2.417
 7137WAT     H221654   8.013   6.492   2.448
 7138WAT      O21655   5.730   5.212   1.532
 7138WAT     H121656   5.798   5.281   1.557
 7138WAT     H221657   5.776   5.132   1.494
 7139WAT      O21658   4.375   3.662   1.353
 7139WAT     H121659   4.418   3.672   1.443
 7139WAT     H221660   4.428   3.598   1.298
 7140WAT      O21661   9.636   3.033   9.168
 7140WAT     H121662   9.679   2.974   9.236
 7140WAT     H221663   9.682   3.021   9.080
 7141WAT      O21664   4.679   2.619   6.854
 7141WAT     H121665   4.625   2.701   6.877
 7141WAT     H221666   4.724   2.585   6.936
 7142WAT      O21667   2.340   2.154   8.669
 7142WAT     H121668   2.319   2.218   8.743
 7142WAT     H221669   2.256   2.112   8.636
 7143WAT      O21670   7.281   2.595   3.517
 7143WAT     H121671   7.202   2.550   3.475
 7143WAT     H221672   7.309   2.673   3.461
 7144WAT      O21673   6.696   2.119   9.615
 7144WAT     H121674   6.679   2.020   9.618
 7144WAT     H221675   6.644   2.164   9.688
 7145WAT      O21676   4.240   1.348   2.284
 7145WAT     H121677   4.153   1.307   2.257
 7145WAT     H221678   4.264   1.422   2.220
 7146WAT      O21679   3.760   7.494   0.451
 7146WAT     H121680   3.776   7.477   0.354
 7146WAT     H221681   3.845   7.477   0.502
 7147WAT      O21682   6.813   0.965   1.381
 7147WAT     H121683   6.769   0.937   1.296
 7147WAT     H221684   6.755   1.030   1.429
 7148WAT      O21685   1.833   2.127   8.544
 7148WAT     H121686   1.815   2.175   8.629
 7148WAT     H221687   1.751   2.077   8.515
 7149WAT      O21688   4.190   3.285   5.065
 7149WAT     H121689   4.153   3.375   5.045
 7149WAT     H221690   4.116   3.223   5.093
 7150WAT      O21691   2.769   3.808   0.618
 7150WAT     H121692   2.731   3.899   0.602
 7150WAT     H221693   2.701   3.752   0.665
 7151WAT      O21694   8.695   1.074   1.061
 7151WAT     H121695   8.608   1.104   1.024
 7151WAT     H221696   8.751   1.036   0.987
 7152WAT      O21697   0.448   3.409   6.313
 7152WAT     H121698   0.543   3.408   6.282
 7152WAT     H221699   0.444   3.391   6.411
 7153WAT      O21700   5.878   2.279   2.220
 7153WAT     H121701   5.968   2.315   2.248
 7153WAT     H221702   5.810   2.302   2.290
 7154WAT      O21703   0.082   3.475   1.315
 7154WAT     H121704   0.142   3.547   1.351
 7154WAT     H221705  -0.004   3.516   1.285
 7155WAT      O21706   5.143   0.996   9.821
 7155WAT     H121707   5.210   1.059   9.857
 7155WAT     H221708   5.054   1.013   9.864
 7156WAT      O21709   4.545   0.246   7.355
 7156WAT     H121710   4.619   0.240   7.288
 7156WAT     H221711   4.564   0.321   7.418
 7157WAT      O21712   5.951   3.813   8.439
 7157WAT     H121713   5.991   3.869   8.511
 7157WAT     H221714   5.931   3.722   8.474
 7158WAT      O21715   1.137   1.181   7.405
 7158WAT     H121716   1.203   1.255   7.392
 7158WAT     H221717   1.058   1.215   7.456
 7159WAT      O21718   0.107   5.544   6.926
 7159WAT     H121719   0.096   5.639   6.898
 7159WAT     H221720   0.202   5.527   6.952
 7160WAT      O21721   2.912   0.533   2.576
 7160WAT     H121722   2.951   0.500   2.490
 7160WAT     H221723   2.832   0.478   2.598
 7161WAT      O21724   9.417   2.167   2.851
 7161WAT     H121725   9.419   2.228   2.930
 7161WAT     H221726   9.440   2.219   2.768
 7162WAT      O21727   9.447   4.460   6.387
 7162WAT     H121728   9.545   4.437   6.387
 7162WAT     H221729   9.404   4.425   6.470
 7163WAT      O21730   1.886   8.081   0.283
 7163WAT     H121731   1.966   8.024   0.266
 7163WAT     H221732   1.905   8.145   0.357
 7164WAT      O21733   4.676   3.271   7.523
 7164WAT     H121734   4.588   3.233   7.552
 7164WAT     H221735   4.682   3.367   7.549
 7165WAT      O21736   3.764   7.588   7.258
 7165WAT     H121737   3.817   7.516   7.212
 7165WAT     H221738   3.827   7.658   7.293
 7166WAT      O21739   1.838   8.709   6.040
 7166WAT     H121740   1.800   8.799   6.017
 7166WAT     H221741   1.791   8.674   6.121
 7167WAT      O21742   5.236   8.311   2.559
 7167WAT     H121743   5.268   8.217   2.545
 7167WAT     H221744   5.259   8.340   2.652
 7168WAT      O21745   1.967   5.544   0.776
 7168WAT     H121746   2.004   5.529   0.684
 7168WAT     H221747   1.930   5.637   0.782
 7169WAT      O21748   1.088   9.115   6.652
 7169WAT     H121749   1.119   9.033   6.701
 7169WAT     H221750   1.038   9.175   6.714
 7170WAT      O21751   2.433   3.796   5.684
 7170WAT     H121752   2.419   3.801   5.585
 7170WAT     H221753   2.372   3.860   5.730
 7171WAT      O21754   8.887   2.209   4.683
 7171WAT     H121755   8.958   2.224   4.614
 7171WAT     H221756   8.900   2.273   4.759
 7172WAT      O21757   5.539   7.596   9.769
 7172WAT     H121758   5.528   7.498   9.790
 7172WAT     H221759   5.566   7.606   9.673
 7173WAT      O21760   0.012   1.082   6.828
 7173WAT     H121761  -0.051   1.132   6.768
 7173WAT     H221762   0.039   1.141   6.904
 7174WAT      O21763   5.628   1.952   5.143
 7174WAT     H121764   5.570   1.874   5.119
 7174WAT     H221765   5.618   1.973   5.240
 7175WAT      O21766   5.874   8.374   8.527
 7175WAT     H121767   5.946   8.343   8.588
 7175WAT     H221768   5.853   8.470   8.545
 7176WAT      O21769   3.235   4.421   8.142
 7176WAT     H121770   3.192   4.427   8.051
 7176WAT     H221771   3.312   4.485   8.146
 7177WAT      O21772   7.574   1.570   5.242
 7177WAT     H121773   7.583   1.567   5.341
 7177WAT     H221774   7.612   1.656   5.208
 7178WAT      O21775   7.386   4.009   3.034
 7178WAT     H121776   7.400   4.076   2.961
 7178WAT     H221777   7.376   4.056   3.122
 7179WAT      O21778   1.909   0.822   4.048
 7179WAT     H121779   1.962   0.906   4.036
 7179WAT     H221780   1.884   0.785   3.959
 7180WAT      O21781   5.049   0.381   9.767
 7180WAT     H121782   4.960   0.394   9.725
 7180WAT     H221783   5.038   0.346   9.860
 7181WAT      O21784   0.785   7.678   0.581
 7181WAT     H121785   0.858   7.703   0.645
 7181WAT     H221786   0.763   7.756   0.523
 7182WAT      O21787   7.463   5.875   3.212
 7182WAT     H121788   7.396   5.812   3.174
 7182WAT     H221789   7.540   5.884   3.148
 7183WAT      O21790   9.300   5.558   0.074
 7183WAT     H121791   9.210   5.598   0.093
 7183WAT     H221792   9.289   5.461   0.051
 7184WAT      O21793   7.604   6.573   5.144
 7184WAT     H121794   7.632   6.631   5.221
 7184WAT     H221795   7.541   6.625   5.085
 7185WAT      O21796   6.545   3.751   8.722
 7185WAT     H121797   6.499   3.825   8.771
 7185WAT     H221798   6.634   3.782   8.690
 7186WAT      O21799   3.491   5.078   1.619
 7186WAT     H121800   3.396   5.102   1.602
 7186WAT     H221801   3.550   5.127   1.555
 7187WAT      O21802   2.533   1.687   6.955
 7187WAT     H121803   2.540   1.614   6.887
 7187WAT     H221804   2.587   1.663   7.035
 7188WAT      O21805   0.514   6.710   2.226
 7188WAT     H121806   0.519   6.809   2.239
 7188WAT     H221807   0.534   6.664   2.313
 7189WAT      O21808   6.580   6.161   1.990
 7189WAT     H121809   6.484   6.134   1.982
 7189WAT     H221810   6.623   6.111   2.064
 7190WAT      O21811   7.684   9.721   9.287
 7190WAT     H121812   7.703   9.813   9.320
 7190WAT     H221813   7.586   9.703   9.293
 7191WAT      O21814   6.406   9.771   8.552
 7191WAT     H121815   6.429   9.853   8.603
 7191WAT     H221816   6.489   9.718   8.535
 7192WAT      O21817   0.585   7.573   0.756
 7192WAT     H121818   0.658   7.599   0.693
 7192WAT     H221819   0.509   7.637   0.747
 7193WAT      O21820   6.356   7.087   4.576
 7193WAT     H121821   6.316   7.157   4.517
 7193WAT     H221822   6.397   7.131   4.657
 7194WAT      O21823   7.383   0.384   3.191
 7194WAT     H121824   7.288   0.386   3.222
 7194WAT     H221825   7.392   0.320   3.114
 7195WAT      O21826   5.113   8.975   5.278
 7195WAT     H121827   5.160   9.037   5.215
 7195WAT     H221828   5.017   9.003   5.285
 7196WAT      O21829   9.615   9.502   6.578
 7196WAT     H121830   9.570   9.414   6.561
 7196WAT     H221831   9.665   9.530   6.496
 7197WAT      O21832   5.270   7.424   4.571
 7197WAT     H121833   5.325   7.396   4.650
 7197WAT     H221834   5.174   7.399   4.586
 7198WAT      O21835   6.510   5.170   4.697
 7198WAT     H121836   6.416   5.159   4.667
 7198WAT     H221837   6.521   5.257   4.745
 7199WAT      O21838   6.036   2.101   6.385
 7199WAT     H121839   5.972   2.101   6.462
 7199WAT     H221840   5.995   2.052   6.308
 7200WAT      O21841   5.522   5.082   5.274
 7200WAT     H121842   5.557   5.078   5.181
 7200WAT     H221843   5.442   5.141   5.277
 7201WAT      O21844   7.561   3.390   7.464
 7201WAT     H121845   7.648   3.367   7.508
 7201WAT     H221846   7.510   3.453   7.522
 7202WAT      O21847   7.986   4.428   5.813
 7202WAT     H121848   8.035   4.466   5.734
 7202WAT     H221849   8.052   4.406   5.885
 7203WAT      O21850   4.273   8.770   6.465
 7203WAT     H121851   4.203   8.841   6.469
 7203WAT     H221852   4.349   8.802   6.409
 7204WAT      O21853   6.969   0.742   3.793
 7204WAT     H121854   6.983   0.835   3.761
 7204WAT     H221855   6.893   0.740   3.858
 7205WAT      O21856   4.081   8.715   5.493
 7205WAT     H121857   4.166   8.714   5.546
 7205WAT     H221858   4.044   8.623   5.487
 7206WAT      O21859   4.590   0.521   0.695
 7206WAT     H121860   4.602   0.467   0.612
 7206WAT     H221861   4.497   0.508   0.730
 7207WAT      O21862   1.996   8.652   6.894
 7207WAT     H121863   2.018   8.746   6.920
 7207WAT     H221864   1.979   8.597   6.976
 7208WAT      O21865   3.407   7.931   8.635
 7208WAT     H121866   3.412   7.957   8.539
 7208WAT     H221867   3.480   7.978   8.686
 7209WAT      O21868   1.620   8.292   4.037
 7209WAT     H121869   1.529   8.321   4.005
 7209WAT     H221870   1.620   8.285   4.136
 7210WAT      O21871   7.173   0.834   7.938
 7210WAT     H121872   7.193   0.923   7.898
 7210WAT     H221873   7.120   0.779   7.874
 7211WAT      O21874   5.708   4.363   4.989
 7211WAT     H121875   5.708   4.446   4.934
 7211WAT     H221876   5.772   4.373   5.065
 7212WAT      O21877   6.143   4.479   5.357
 7212WAT     H121878   6.198   4.445   5.434
 7212WAT     H221879   6.147   4.579   5.355
 7213WAT      O21880   2.215   6.891   5.937
 7213WAT     H121881   2.153   6.935   5.872
 7213WAT     H221882   2.301   6.941   5.940
 7214WAT      O21883   4.566   7.625   8.849
 7214WAT     H121884   4.552   7.722   8.830
 7214WAT     H221885   4.543   7.606   8.944
 7215WAT      O21886   9.465   5.677   9.317
 7215WAT     H121887   9.374   5.666   9.277
 7215WAT     H221888   9.512   5.589   9.318
 7216WAT      O21889   8.695   4.170   3.404
 7216WAT     H121890   8.699   4.070   3.414
 7216WAT     H221891   8.775   4.201   3.353
 7217WAT      O21892   8.644   8.991   0.410
 7217WAT     H121893   8.653   8.925   0.336
 7217WAT     H221894   8.734   9.030   0.430
 7218WAT      O21895   1.682   7.160   7.159
 7218WAT     H121896   1.742   7.084   7.182
 7218WAT     H221897   1.602   7.159   7.219
 7219WAT      O21898   1.037   7.616   0.197
 7219WAT     H121899   1.046   7.575   0.287
 7219WAT     H221900   1.007   7.711   0.206
 7220WAT      O21901   4.833   3.799   1.059
 7220WAT     H121902   4.833   3.700   1.045
 7220WAT     H221903   4.744   3.828   1.093
 7221WAT      O21904   3.402   2.175   6.244
 7221WAT     H121905   3.385   2.271   6.219
 7221WAT     H221906   3.381   2.117   6.166
 7222WAT      O21907   1.032   5.015   0.797
 7222WAT     H121908   0.974   5.092   0.767
 7222WAT     H221909   1.124   5.049   0.816
 7223WAT      O21910   5.661   6.179   7.615
 7223WAT     H121911   5.711   6.201   7.531
 7223WAT     H221912   5.563   6.191   7.599
 7224WAT      O21913   3.338   9.542   5.902
 7224WAT     H121914   3.316   9.458   5.852
 7224WAT     H221915   3.429   9.574   5.874
 7225WAT      O21916   1.430   7.130   7.802
 7225WAT     H121917   1.483   7.177   7.872
 7225WAT     H221918   1.351   7.086   7.843
 7226WAT      O21919   5.981   9.242   1.793
 7226WAT     H121920   6.067   9.229   1.842
 7226WAT     H221921   5.982   9.188   1.709
 7227WAT      O21922   7.484   4.899   1.082
 7227WAT     H121923   7.440   4.810   1.093
 7227WAT     H221924   7.584   4.886   1.081
 7228WAT      O21925   7.368   8.615   8.340
 7228WAT     H121926   7.415   8.642   8.256
 7228WAT     H221927   7.387   8.682   8.412
 7229WAT      O21928   6.329   5.386   3.961
 7229WAT     H121929   6.250   5.410   3.905
 7229WAT     H221930   6.369   5.301   3.927
 7230WAT      O21931   9.271   5.819   0.245
 7230WAT     H121932   9.325   5.761   0.183
 7230WAT     H221933   9.293   5.796   0.340
 7231WAT      O21934   8.202   6.230   9.582
 7231WAT     H121935   8.207   6.329   9.581
 7231WAT     H221936   8.173   6.199   9.673
 7232WAT      O21937   1.014   7.691   0.725
 7232WAT     H121938   1.108   7.725   0.734
 7232WAT     H221939   0.975   7.675   0.816
 7233WAT      O21940   0.211   1.451   2.397
 7233WAT     H121941   0.138   1.456   2.465
 7233WAT     H221942   0.276   1.526   2.413
 7234WAT      O21943   5.723   9.463   0.670
 7234WAT     H121944   5.759   9.555   0.683
 7234WAT     H221945   5.780   9.414   0.604
 7235WAT      O21946   9.871   3.829   6.752
 7235WAT     H121947   9.804   3.822   6.826
 7235WAT     H221948   9.823   3.832   6.664
 7236WAT      O21949   1.665   6.907   8.354
 7236WAT     H121950   1.642   6.979   8.288
 7236WAT     H221951   1.582   6.861   8.384
 7237WAT      O21952   4.433   0.435   7.658
 7237WAT     H121953   4.414   0.484   7.743
 7237WAT     H221954   4.476   0.497   7.593
 7238WAT      O21955   7.583   1.764   0.079
 7238WAT     H121956   7.644   1.838   0.108
 7238WAT     H221957   7.503   1.762   0.140
 7239WAT      O21958   3.434   8.743   5.058
 7239WAT     H121959   3.433   8.673   4.986
 7239WAT     H221960   3.392   8.706   5.141
 7240WAT      O21961   1.415   2.466   2.274
 7240WAT     H121962   1.469   2.385   2.295
 7240WAT     H221963   1.361   2.492   2.353
 7241WAT      O21964   9.624   7.764   4.105
 7241WAT     H121965   9.584   7.676   4.129
 7241WAT     H221966   9.578   7.800   4.023
 7242WAT      O21967   6.860   0.527   6.111
 7242WAT     H121968   6.762   0.536   6.130
 7242WAT     H221969   6.874   0.499   6.016
 7243WAT      O21970   1.652   9.745   5.787
 7243WAT     H121971   1.711   9.798   5.726
 7243WAT     H221972   1.601   9.677   5.733
 7244WAT      O21973   8.449   3.593   7.479
 7244WAT     H121974   8.490   3.618   7.391
 7244WAT     H221975   8.522   3.563   7.541
 7245WAT      O21976   6.688   8.403   5.913
 7245WAT     H121977   6.758   8.343   5.874
 7245WAT     H221978   6.598   8.374   5.882
 7246WAT      O21979   1.500   2.700   2.197
 7246WAT     H121980   1.486   2.607   2.232
 7246WAT     H221981   1.558   2.751   2.261
 7247WAT      O21982   8.310   9.819   7.940
 7247WAT     H121983   8.388   9.859   7.893
 7247WAT     H221984   8.229   9.828   7.882
 7248WAT      O21985   4.594   3.635   3.239
 7248WAT     H121986   4.496   3.631   3.220
 7248WAT     H221987   4.646   3.620   3.155
 7249WAT      O21988   5.185   6.198   9.137
 7249WAT     H121989   5.154   6.204   9.232
 7249WAT     H221990   5.131   6.131   9.088
 7250WAT      O21991   9.693   4.716   1.428
 7250WAT     H121992   9.690   4.815   1.412
 7250WAT     H221993   9.713   4.699   1.525
 7251WAT      O21994   0.008   1.763   3.930
 7251WAT     H121995   0.027   1.665   3.923
 7251WAT     H221996   0.049   1.811   3.852
 7252WAT      O21997   4.474   7.764   1.553
 7252WAT     H121998   4.509   7.812   1.633
 7252WAT     H221999   4.423   7.683   1.583
 7253WAT      O22000   0.505   1.321   8.221
 7253WAT     H122001   0.524   1.256   8.295
 7253WAT     H222002   0.507   1.274   8.133
 7254WAT      O22003   6.803   2.434   4.592
 7254WAT     H122004   6.718   2.385   4.569
 7254WAT     H222005   6.823   2.422   4.689
 7255WAT      O22006   5.634   9.285   2.053
 7255WAT     H122007   5.674   9.200   2.086
 7255WAT     H222008   5.639   9.354   2.125
 7256WAT      O22009   9.018   9.386   3.725
 7256WAT     H122010   9.012   9.485   3.726
 7256WAT     H222011   9.000   9.352   3.633
 7257WAT      O22012   3.491   1.518   3.352
 7257WAT     H122013   3.408   1.496   3.301
 7257WAT     H222014   3.556   1.442   3.344
 7258WAT      O22015   6.543   0.298   3.451
 7258WAT     H122016   6.468   0.336   3.397
 7258WAT     H222017   6.600   0.372   3.487
 7259WAT      O22018   5.434   3.672   5.977
 7259WAT     H122019   5.517   3.659   6.032
 7259WAT     H222020   5.400   3.583   5.947
 7260WAT      O22021   3.473   4.615   4.627
 7260WAT     H122022   3.387   4.653   4.661
 7260WAT     H222023   3.465   4.515   4.623
 7261WAT      O22024   8.756   1.966   4.747
 7261WAT     H122025   8.722   1.929   4.660
 7261WAT     H222026   8.798   2.056   4.730
 7262WAT      O22027   6.107   7.165   5.712
 7262WAT     H122028   6.125   7.162   5.613
 7262WAT     H222029   6.034   7.231   5.730
 7263WAT      O22030   9.523   1.477   2.054
 7263WAT     H122031   9.610   1.521   2.075
 7263WAT     H222032   9.540   1.389   2.009
 7264WAT      O22033   5.216   6.553   7.911
 7264WAT     H122034   5.313   6.558   7.890
 7264WAT     H222035   5.164   6.536   7.827
 7265WAT      O22036   7.215   3.084   3.960
 7265WAT     H122037   7.132   3.121   3.919
 7265WAT     H222038   7.295   3.127   3.918
 7266WAT      O22039   8.982   8.810   0.403
 7266WAT     H122040   8.935   8.797   0.490
 7266WAT     H222041   9.024   8.901   0.401
 7267WAT      O22042   6.485   6.641   3.537
 7267WAT     H122043   6.425   6.666   3.613
 7267WAT     H222044   6.492   6.541   3.531
 7268WAT      O22045   1.081   7.413   9.171
 7268WAT     H122046   1.152   7.473   9.136
 7268WAT     H222047   1.098   7.396   9.269
 7269WAT      O22048   9.309   4.601   3.574
 7269WAT     H122049   9.333   4.524   3.632
 7269WAT     H222050   9.210   4.611   3.570
 7270WAT      O22051   7.954   6.128   7.625
 7270WAT     H122052   8.032   6.154   7.682
 7270WAT     H222053   7.985   6.119   7.530
 7271WAT      O22054   0.983   6.558   7.528
 7271WAT     H122055   0.886   6.534   7.528
 7271WAT     H222056   1.025   6.525   7.612
 7272WAT      O22057   1.242   4.389   7.489
 7272WAT     H122058   1.144   4.381   7.509
 7272WAT     H222059   1.254   4.410   7.392
 7273WAT      O22060   3.213   2.331   5.325
 7273WAT     H122061   3.279   2.386   5.377
 7273WAT     H222062   3.246   2.238   5.316
 7274WAT      O22063   6.311   9.658   3.086
 7274WAT     H122064   6.223   9.687   3.048
 7274WAT     H222065   6.367   9.739   3.105
 7275WAT      O22066   9.703   5.182   1.115
 7275WAT     H122067   9.706   5.178   1.214
 7275WAT     H222068   9.641   5.111   1.080
 7276WAT      O22069   7.560   6.923   1.082
 7276WAT     H122070   7.572   6.871   1.167
 7276WAT     H222071   7.577   7.020   1.100
 7277WAT      O22072   6.454   8.437   9.205
 7277WAT     H122073   6.471   8.495   9.285
 7277WAT     H222074   6.416   8.493   9.131
 7278WAT      O22075   8.406   9.648   0.464
 7278WAT     H122076   8.402   9.569   0.524
 7278WAT     H222077   8.422   9.730   0.519
 7279WAT      O22078   1.187   3.506   2.543
 7279WAT     H122079   1.126   3.432   2.573
 7279WAT     H222080   1.222   3.485   2.451
 7280WAT      O22081   9.206   9.564   4.585
 7280WAT     H122082   9.167   9.565   4.493
 7280WAT     H222083   9.176   9.645   4.636
 7281WAT      O22084   8.046   9.340   2.547
 7281WAT     H122085   8.006   9.339   2.638
 7281WAT     H222086   8.035   9.432   2.507
 7282WAT      O22087   3.209   2.440   3.602
 7282WAT     H122088   3.245   2.505   3.535
 7282WAT     H222089   3.200   2.485   3.691
 7283WAT      O22090   1.551   3.004   9.640
 7283WAT     H122091   1.545   3.087   9.695
 7283WAT     H222092   1.635   3.005   9.586
 7284WAT      O22093   5.813   5.645   7.405
 7284WAT     H122094   5.786   5.549   7.399
 7284WAT     H222095   5.810   5.686   7.313
 7285WAT      O22096   2.521   5.805   2.922
 7285WAT     H122097   2.468   5.724   2.945
 7285WAT     H222098   2.489   5.843   2.835
 7286WAT      O22099   3.931   0.560   9.370
 7286WAT     H122100   3.924   0.571   9.470
 7286WAT     H222101   3.973   0.472   9.350
 7287WAT      O22102   6.173   6.030   0.716
 7287WAT     H122103   6.153   6.007   0.621
 7287WAT     H222104   6.207   6.124   0.720
 7288WAT      O22105   5.932   2.028   1.036
 7288WAT     H122106   5.866   1.953   1.033
 7288WAT     H222107   5.913   2.086   1.116
 7289WAT      O22108   6.775   4.029   7.947
 7289WAT     H122109   6.834   4.010   7.868
 7289WAT     H222110   6.828   4.019   8.031
 7290WAT      O22111   6.546   1.241   7.477
 7290WAT     H122112   6.545   1.218   7.574
 7290WAT     H222113   6.555   1.157   7.423
 7291WAT      O22114   2.292   5.474   6.075
 7291WAT     H122115   2.286   5.501   5.979
 7291WAT     H222116   2.311   5.376   6.081
 7292WAT      O22117   6.799   8.633   6.046
 7292WAT     H122118   6.751   8.555   6.006
 7292WAT     H222119   6.799   8.624   6.146
 7293WAT      O22120   0.134   0.742   7.986
 7293WAT     H122121   0.192   0.712   7.911
 7293WAT     H222122   0.145   0.841   8.000
 7294WAT      O22123   1.956   8.008   7.758
 7294WAT     H122124   1.865   8.030   7.722
 7294WAT     H222125   1.946   7.963   7.847
 7295WAT      O22126   6.061   5.785   3.922
 7295WAT     H122127   6.001   5.708   3.900
 7295WAT     H222128   6.033   5.824   4.010
 7296WAT      O22129   5.341   2.504   8.630
 7296WAT     H122130   5.247   2.509   8.663
 7296WAT     H222131   5.376   2.411   8.644
 7297WAT      O22132   5.842   4.880   1.803
 7297WAT     H122133   5.861   4.910   1.897
 7297WAT     H222134   5.860   4.956   1.740
 7298WAT      O22135   5.725   4.335   7.782
 7298WAT     H122136   5.752   4.417   7.833
 7298WAT     H222137   5.804   4.298   7.734
 7299WAT      O22138   3.426   6.350   5.435
 7299WAT     H122139   3.373   6.399   5.505
 7299WAT     H222140   3.367   6.325   5.359
 7300WAT      O22141   7.673   9.500   6.247
 7300WAT     H122142   7.658   9.416   6.298
 7300WAT     H222143   7.715   9.569   6.306
 7301WAT      O22144   0.142   8.497   0.749
 7301WAT     H122145   0.138   8.491   0.649
 7301WAT     H222146   0.050   8.487   0.787
 7302WAT      O22147   9.701   4.744   1.713
 7302WAT     H122148   9.615   4.794   1.723
 7302WAT     H222149   9.722   4.697   1.799
 7303WAT      O22150   3.686   6.022   6.766
 7303WAT     H122151   3.681   5.925   6.790
 7303WAT     H222152   3.761   6.065   6.816
 7304WAT      O22153   1.756   1.777   4.451
 7304WAT     H122154   1.771   1.817   4.361
 7304WAT     H222155   1.675   1.718   4.449
 7305WAT      O22156   2.755   9.504   9.159
 7305WAT     H122157   2.775   9.408   9.138
 7305WAT     H222158   2.786   9.561   9.083
 7306WAT      O22159   7.865   0.115   0.414
 7306WAT     H122160   7.905   0.117   0.323
 7306WAT     H222161   7.937   0.122   0.483
 7307WAT      O22162   8.955   8.121   9.579
 7307WAT     H122163   8.939   8.163   9.490
 7307WAT     H222164   9.037   8.064   9.575
 7308WAT      O22165   1.776   1.438   5.229
 7308WAT     H122166   1.726   1.356   5.260
 7308WAT     H222167   1.841   1.412   5.158
 7309WAT      O22168   1.438   8.989   2.784
 7309WAT     H122169   1.426   8.890   2.784
 7309WAT     H222170   1.421   9.025   2.876
 7310WAT      O22171   3.278   7.055   1.069
 7310WAT     H122172   3.189   7.010   1.079
 7310WAT     H222173   3.315   7.075   1.160
 7311WAT      O22174   3.929   3.382   1.842
 7311WAT     H122175   3.996   3.341   1.903
 7311WAT     H222176   3.960   3.375   1.747
 7312WAT      O22177   9.794   8.675   1.089
 7312WAT     H122178   9.794   8.653   1.186
 7312WAT     H222179   9.886   8.665   1.052
 7313WAT      O22180   5.333   1.266   4.952
 7313WAT     H122181   5.322   1.269   4.853
 7313WAT     H222182   5.427   1.290   4.977
 7314WAT      O22183   6.694   4.851   6.414
 7314WAT     H122184   6.791   4.874   6.428
 7314WAT     H222185   6.658   4.907   6.339
 7315WAT      O22186   3.842   8.309   4.624
 7315WAT     H122187   3.769   8.241   4.618
 7315WAT     H222188   3.930   8.263   4.633
 7316WAT      O22189   9.547   5.467   0.091
 7316WAT     H122190   9.528   5.370   0.110
 7316WAT     H222191   9.462   5.519   0.091
 7317WAT      O22192   9.490   7.106   1.820
 7317WAT     H122193   9.395   7.124   1.847
 7317WAT     H222194   9.542   7.191   1.827
 7318WAT      O22195   8.707   5.752   2.005
 7318WAT     H122196   8.756   5.669   2.030
 7318WAT     H222197   8.770   5.818   1.965
 7319WAT      O22198   3.808   1.865   3.823
 7319WAT     H122199   3.843   1.941   3.878
 7319WAT     H222200   3.709   1.857   3.837
 7320WAT      O22201   8.361   6.052   2.431
 7320WAT     H122202   8.322   6.115   2.497
 7320WAT     H222203   8.379   6.101   2.345
 7321WAT      O22204   6.542   4.304   6.735
 7321WAT     H122205   6.510   4.399   6.735
 7321WAT     H222206   6.570   4.279   6.642
 7322WAT      O22207   5.085   0.236   6.040
 7322WAT     H122208   5.050   0.143   6.054
 7322WAT     H222209   5.162   0.233   5.976
 7323WAT      O22210   4.700   8.648   8.443
 7323WAT     H122211   4.665   8.635   8.350
 7323WAT     H222212   4.800   8.644   8.441
 7324WAT      O22213   5.263   3.053   0.167
 7324WAT     H122214   5.295   3.048   0.261
 7324WAT     H222215   5.310   2.984   0.112
 7325WAT      O22216   4.076   3.903   7.171
 7325WAT     H122217   4.103   3.818   7.126
 7325WAT     H222218   4.113   3.981   7.120
 7326WAT      O22219   8.935   4.066   2.335
 7326WAT     H122220   8.945   3.973   2.371
 7326WAT     H222221   8.838   4.089   2.328
 7327WAT      O22222   5.308   8.891   6.616
 7327WAT     H122223   5.393   8.846   6.586
 7327WAT     H222224   5.329   8.984   6.645
 7328WAT      O22225   2.724   2.039   0.260
 7328WAT     H122226   2.666   2.004   0.186
 7328WAT     H222227   2.686   2.125   0.294
 7329WAT      O22228   7.565   9.574   1.706
 7329WAT     H122229   7.530   9.505   1.643
 7329WAT     H222230   7.580   9.659   1.656
 7330WAT      O22231   0.154   7.049   8.758
 7330WAT     H122232   0.241   7.010   8.789
 7330WAT     H222233   0.134   7.015   8.666
 7331WAT      O22234   5.181   6.812   1.013
 7331WAT     H122235   5.188   6.743   1.084
 7331WAT     H222236   5.131   6.775   0.934
 7332WAT      O22237   4.993   8.985   0.788
 7332WAT     H122238   4.941   8.997   0.703
 7332WAT     H222239   5.007   8.887   0.804
 7333WAT      O22240   6.513   1.362   6.748
 7333WAT     H122241   6.591   1.420   6.768
 7333WAT     H222242   6.539   1.266   6.757
 7334WAT      O22243   1.582   7.300   5.970
 7334WAT     H122244   1.653   7.345   6.025
 7334WAT     H222245   1.625   7.248   5.896
 7335WAT      O22246   0.989   3.028   9.282
 7335WAT     H122247   1.071   2.985   9.244
 7335WAT     H222248   0.919   3.036   9.212
 7336WAT      O22249   8.267   6.904   9.872
 7336WAT     H122250   8.215   6.950   9.801
 7336WAT     H222251   8.213   6.827   9.908
 7337WAT      O22252   6.181   0.855   4.015
 7337WAT     H122253   6.152   0.812   4.100
 7337WAT     H222254   6.232   0.939   4.035
 7338WAT      O22255   3.418   1.042   8.756
 7338WAT     H122256   3.409   1.134   8.717
 7338WAT     H222257   3.508   1.004   8.732
 7339WAT      O22258   9.715   2.205   0.500
 7339WAT     H122259   9.752   2.218   0.408
 7339WAT     H222260   9.781   2.240   0.567
 7340WAT      O22261   0.340   4.686   8.408
 7340WAT     H122262   0.298   4.740   8.481
 7340WAT     H222263   0.412   4.740   8.364
 7341WAT      O22264   1.236   2.429   7.455
 7341WAT     H122265   1.325   2.455   7.419
 7341WAT     H222266   1.248   2.375   7.538
 7342WAT      O22267   0.496   3.872   3.702
 7342WAT     H122268   0.426   3.802   3.687
 7342WAT     H222269   0.459   3.962   3.677
 7343WAT      O22270   6.824   9.307   9.563
 7343WAT     H122271   6.748   9.274   9.506
 7343WAT     H222272   6.837   9.405   9.547
 7344WAT      O22273   4.749   3.041   9.669
 7344WAT     H122274   4.671   2.979   9.674
 7344WAT     H222275   4.777   3.067   9.762
 7345WAT      O22276   6.200   0.262   7.910
 7345WAT     H122277   6.190   0.339   7.847
 7345WAT     H222278   6.120   0.257   7.969
 7346WAT      O22279   4.073   5.994   7.555
 7346WAT     H122280   4.106   5.901   7.538
 7346WAT     H222281   4.146   6.059   7.534
 7347WAT      O22282   6.630   6.720   4.268
 7347WAT     H122283   6.654   6.817   4.272
 7347WAT     H222284   6.541   6.706   4.312
 7348WAT      O22285   3.195   8.570   9.325
 7348WAT     H122286   3.226   8.518   9.245
 7348WAT     H222287   3.274   8.595   9.380
 7349WAT      O22288   2.688   1.487   6.453
 7349WAT     H122289   2.706   1.578   6.415
 7349WAT     H222290   2.773   1.449   6.490
 7350WAT      O22291   8.565   6.247   9.816
 7350WAT     H122292   8.506   6.318   9.854
 7350WAT     H222293   8.626   6.288   9.748
 7351WAT      O22294   3.986   9.681   1.647
 7351WAT     H122295   3.890   9.700   1.625
 7351WAT     H222296   4.019   9.748   1.713
 7352WAT      O22297   8.458   4.849   5.377
 7352WAT     H122298   8.528   4.829   5.446
 7352WAT     H222299   8.393   4.915   5.414
 7353WAT      O22300   3.210   0.352   3.191
 7353WAT     H122301   3.179   0.300   3.271
 7353WAT     H222302   3.258   0.290   3.129
 7354WAT      O22303   1.137   6.018   3.313
 7354WAT     H122304   1.123   5.928   3.272
 7354WAT     H222305   1.235   6.033   3.330
 7355WAT      O22306   1.127   0.679   6.714
 7355WAT     H122307   1.112   0.693   6.616
 7355WAT     H222308   1.223   0.658   6.731
 7356WAT      O22309   2.164   2.982   0.616
 7356WAT     H122310   2.117   2.914   0.561
 7356WAT     H222311   2.098   3.033   0.671
 7357WAT      O22312   5.829   1.910   0.627
 7357WAT     H122313   5.775   1.955   0.698
 7357WAT     H222314   5.802   1.944   0.538
 7358WAT      O22315   5.478   6.373   9.447
 7358WAT     H122316   5.565   6.420   9.454
 7358WAT     H222317   5.470   6.328   9.358
 7359WAT      O22318   3.132   1.866   6.508
 7359WAT     H122319   3.161   1.865   6.412
 7359WAT     H222320   3.201   1.822   6.564
 7360WAT      O22321   9.026   3.181   9.369
 7360WAT     H122322   9.078   3.239   9.431
 7360WAT     H222323   8.968   3.120   9.423
 7361WAT      O22324   3.218   9.664   8.418
 7361WAT     H122325   3.233   9.705   8.509
 7361WAT     H222326   3.133   9.613   8.418
 7362WAT      O22327   2.182   5.362   0.645
 7362WAT     H122328   2.109   5.343   0.580
 7362WAT     H222329   2.249   5.423   0.604
 7363WAT      O22330   4.837   1.003   9.702
 7363WAT     H122331   4.863   1.098   9.684
 7363WAT     H222332   4.838   0.951   9.617
 7364WAT      O22333   3.653   5.389   7.728
 7364WAT     H122334   3.590   5.432   7.663
 7364WAT     H222335   3.604   5.369   7.813
 7365WAT      O22336   9.662   2.444   0.046
 7365WAT     H122337   9.667   2.414  -0.049
 7365WAT     H222338   9.570   2.428   0.082
 7366WAT      O22339   8.969   0.861   9.742
 7366WAT     H122340   8.903   0.889   9.811
 7366WAT     H222341   8.920   0.827   9.661
 7367WAT      O22342   8.533   0.101   7.086
 7367WAT     H122343   8.626   0.115   7.052
 7367WAT     H222344   8.536   0.056   7.175
 7368WAT      O22345   9.701   3.697   6.156
 7368WAT     H122346   9.765   3.742   6.093
 7368WAT     H222347   9.744   3.615   6.194
 7369WAT      O22348   1.518   5.787   5.301
 7369WAT     H122349   1.574   5.716   5.257
 7369WAT     H222350   1.524   5.872   5.247
 7370WAT      O22351   0.961   6.653   2.160
 7370WAT     H122352   1.023   6.726   2.130
 7370WAT     H222353   0.900   6.628   2.085
 7371WAT      O22354   5.718   5.209   6.173
 7371WAT     H122355   5.627   5.185   6.208
 7371WAT     H222356   5.709   5.285   6.108
 7372WAT      O22357   0.373   9.724   0.040
 7372WAT     H122358   0.396   9.655  -0.029
 7372WAT     H222359   0.331   9.680   0.119
 7373WAT      O22360   2.207   4.516   0.101
 7373WAT     H122361   2.297   4.528   0.061
 7373WAT     H222362   2.137   4.536   0.033
 7374WAT      O22363   7.384   0.555   0.475
 7374WAT     H122364   7.301   0.519   0.431
 7374WAT     H222365   7.365   0.646   0.512
 7375WAT      O22366   2.806   2.850   2.281
 7375WAT     H122367   2.859   2.928   2.317
 7375WAT     H222368   2.813   2.774   2.345
 7376WAT      O22369   5.262   3.493   9.106
 7376WAT     H122370   5.198   3.444   9.165
 7376WAT     H222371   5.237   3.590   9.103
 7377WAT      O22372   7.177   7.590   8.866
 7377WAT     H122373   7.271   7.582   8.901
 7377WAT     H222374   7.128   7.660   8.918
 7378WAT      O22375   6.285   7.388   3.697
 7378WAT     H122376   6.349   7.399   3.773
 7378WAT     H222377   6.195   7.421   3.724
 7379WAT      O22378   9.046   5.904   7.257
 7379WAT     H122379   8.984   5.890   7.181
 7379WAT     H222380   9.002   5.875   7.342
 7380WAT      O22381   3.329   5.942   9.797
 7380WAT     H122382   3.428   5.951   9.783
 7380WAT     H222383   3.304   5.982   9.885
 7381WAT      O22384   5.668   1.991   0.856
 7381WAT     H122385   5.686   1.963   0.951
 7381WAT     H222386   5.633   2.085   0.854
 7382WAT      O22387   2.387   2.709   6.621
 7382WAT     H122388   2.478   2.697   6.660
 7382WAT     H222389   2.379   2.799   6.580
 7383WAT      O22390   3.723   9.735   1.608
 7383WAT     H122391   3.716   9.640   1.639
 7383WAT     H222392   3.653   9.790   1.654
 7384WAT      O22393   8.855   0.213   8.085
 7384WAT     H122394   8.762   0.202   8.048
 7384WAT     H222395   8.856   0.291   8.148
 7385WAT      O22396   1.081   5.377   0.949
 7385WAT     H122397   1.128   5.429   1.020
 7385WAT     H222398   1.143   5.364   0.871
 7386WAT      O22399   5.268   4.220   1.314
 7386WAT     H122400   5.291   4.198   1.219
 7386WAT     H222401   5.186   4.277   1.316
 7387WAT      O22402   7.806   5.483   6.236
 7387WAT     H122403   7.753   5.431   6.303
 7387WAT     H222404   7.749   5.500   6.155
 7388WAT      O22405   1.638   2.773   9.372
 7388WAT     H122406   1.657   2.858   9.421
 7388WAT     H222407   1.550   2.737   9.401
 7389WAT      O22408   5.546   0.244   5.401
 7389WAT     H122409   5.481   0.215   5.331
 7389WAT     H222410   5.523   0.335   5.433
 7390WAT      O22411   0.111   7.413   4.964
 7390WAT     H122412   0.128   7.463   4.880
 7390WAT     H222413   0.193   7.416   5.022
 7391WAT      O22414   0.847   7.476   0.070
 7391WAT     H122415   0.916   7.496   0.140
 7391WAT     H222416   0.834   7.377   0.065
 7392WAT      O22417   0.128   2.629   7.015
 7392WAT     H122418   0.094   2.562   7.082
 7392WAT     H222419   0.189   2.584   6.951
 7393WAT      O22420   0.973   6.275   8.217
 7393WAT     H122421   1.019   6.350   8.265
 7393WAT     H222422   1.039   6.228   8.158
 7394WAT      O22423   2.549   2.924   4.586
 7394WAT     H122424   2.575   2.987   4.659
 7394WAT     H222425   2.533   2.833   4.624
 7395WAT      O22426   4.182   4.157   0.248
 7395WAT     H122427   4.203   4.181   0.154
 7395WAT     H222428   4.105   4.093   0.250
 7396WAT      O22429   5.073   1.224   9.404
 7396WAT     H122430   5.102   1.134   9.435
 7396WAT     H222431   5.020   1.214   9.319
 7397WAT      O22432   8.077   4.325   8.845
 7397WAT     H122433   8.012   4.339   8.920
 7397WAT     H222434   8.161   4.283   8.881
 7398WAT      O22435   6.351   3.687   9.009
 7398WAT     H122436   6.383   3.747   8.936
 7398WAT     H222437   6.251   3.693   9.016
 7399WAT      O22438   6.400   2.676   1.635
 7399WAT     H122439   6.319   2.620   1.648
 7399WAT     H222440   6.392   2.760   1.690
 7400WAT      O22441   1.055   8.827   0.357
 7400WAT     H122442   1.093   8.792   0.272
 7400WAT     H222443   1.115   8.898   0.394
 7401WAT      O22444   6.251   3.487   0.345
 7401WAT     H122445   6.271   3.426   0.422
 7401WAT     H222446   6.336   3.517   0.303
 7402WAT      O22447   2.080   9.270   0.802
 7402WAT     H122448   2.114   9.179   0.778
 7402WAT     H222449   2.121   9.338   0.741
 7403WAT      O22450   0.066   9.502   9.013
 7403WAT     H122451   0.119   9.464   8.937
 7403WAT     H222452   0.114   9.484   9.099
 7404WAT      O22453   3.129   7.382   2.593
 7404WAT     H122454   3.166   7.377   2.686
 7404WAT     H222455   3.144   7.295   2.546
 7405WAT      O22456   9.285   8.821   9.288
 7405WAT     H122457   9.244   8.734   9.315
 7405WAT     H222458   9.379   8.825   9.321
 7406WAT      O22459   6.972   5.518   5.829
 7406WAT     H122460   6.877   5.526   5.858
 7406WAT     H222461   7.018   5.448   5.884
 7407WAT      O22462   8.987   0.328   5.945
 7407WAT     H122463   8.946   0.365   5.862
 7407WAT     H222464   8.929   0.349   6.024
 7408WAT      O22465   0.504   7.885   4.634
 7408WAT     H122466   0.560   7.829   4.695
 7408WAT     H222467   0.432   7.829   4.592
 7409WAT      O22468   2.711   8.540   6.805
 7409WAT     H122469   2.642   8.467   6.805
 7409WAT     H222470   2.754   8.545   6.715
 7410WAT      O22471   1.704   9.230   1.672
 7410WAT     H122472   1.736   9.322   1.696
 7410WAT     H222473   1.691   9.176   1.755
 7411WAT      O22474   9.397   9.137   9.612
 7411WAT     H122475   9.356   9.089   9.534
 7411WAT     H222476   9.387   9.236   9.599
 7412WAT      O22477   2.034   0.599   9.632
 7412WAT     H122478   2.088   0.677   9.599
 7412WAT     H222479   2.036   0.598   9.732
 7413WAT      O22480   3.601   8.360   7.721
 7413WAT     H122481   3.629   8.357   7.625
 7413WAT     H222482   3.680   8.380   7.778
 7414WAT      O22483   5.873   2.129   4.445
 7414WAT     H122484   5.802   2.068   4.482
 7414WAT     H222485   5.873   2.214   4.498
 7415WAT      O22486   8.503   1.154   7.565
 7415WAT     H122487   8.451   1.099   7.500
 7415WAT     H222488   8.601   1.134   7.555
 7416WAT      O22489   0.802   8.318   5.943
 7416WAT     H122490   0.818   8.223   5.969
 7416WAT     H222491   0.852   8.338   5.859
 7417WAT      O22492   8.563   7.371   6.440
 7417WAT     H122493   8.613   7.352   6.356
 7417WAT     H222494   8.548   7.470   6.447
 7418WAT      O22495   5.046   5.489   2.559
 7418WAT     H122496   5.015   5.568   2.505
 7418WAT     H222497   5.031   5.507   2.656
 7419WAT      O22498   8.524   0.862   0.519
 7419WAT     H122499   8.591   0.843   0.591
 7419WAT     H222500   8.478   0.777   0.493
 7420WAT      O22501   1.192   7.205   2.498
 7420WAT     H122502   1.233   7.123   2.457
 7420WAT     H222503   1.228   7.217   2.590
 7421WAT      O22504   6.933   1.742   1.071
 7421WAT     H122505   6.873   1.822   1.058
 7421WAT     H222506   6.886   1.661   1.037
 7422WAT      O22507   8.740   3.637   1.493
 7422WAT     H122508   8.725   3.700   1.417
 7422WAT     H222509   8.827   3.589   1.480
 7423WAT      O22510   8.282   0.630   8.748
 7423WAT     H122511   8.341   0.581   8.812
 7423WAT     H222512   8.329   0.713   8.717
 7424WAT      O22513   1.122   6.866   2.059
 7424WAT     H122514   1.164   6.948   2.098
 7424WAT     H222515   1.069   6.892   1.978
 7425WAT      O22516   0.129   9.075   2.084
 7425WAT     H122517   0.215   9.078   2.136
 7425WAT     H222518   0.118   8.984   2.044
 7426WAT      O22519   8.543   6.114   3.442
 7426WAT     H122520   8.612   6.052   3.479
 7426WAT     H222521   8.452   6.078   3.462
 7427WAT      O22522   0.042   8.534   1.782
 7427WAT     H122523   0.086   8.541   1.871
 7427WAT     H222524  -0.057   8.525   1.794
 7428WAT      O22525   2.150   0.539   5.283
 7428WAT     H122526   2.159   0.535   5.184
 7428WAT     H222527   2.190   0.625   5.316
 7429WAT      O22528   2.015   4.307   1.563
 7429WAT     H122529   2.109   4.342   1.568
 7429WAT     H222530   1.954   4.379   1.532
 7430WAT      O22531   7.938   3.874   9.295
 7430WAT     H122532   8.014   3.809   9.302
 7430WAT     H222533   7.854   3.825   9.273
 7431WAT      O22534   8.406   7.787   6.894
 7431WAT     H122535   8.485   7.832   6.936
 7431WAT     H222536   8.342   7.760   6.966
 7432WAT      O22537   0.095   8.411   2.607
 7432WAT     H122538   0.100   8.502   2.648
 7432WAT     H222539   0.186   8.370   2.608
 7433WAT      O22540   3.167   6.445   1.213
 7433WAT     H122541   3.232   6.496   1.157
 7433WAT     H222542   3.090   6.415   1.156
 7434WAT      O22543   6.890   0.885   1.992
 7434WAT     H122544   6.821   0.897   1.921
 7434WAT     H222545   6.881   0.958   2.060
 7435WAT      O22546   7.959   5.511   1.101
 7435WAT     H122547   8.000   5.602   1.106
 7435WAT     H222548   7.993   5.464   1.019
 7436WAT      O22549   9.644   2.911   4.601
 7436WAT     H122550   9.713   2.958   4.657
 7436WAT     H222551   9.566   2.885   4.658
 7437WAT      O22552   5.836   0.080   2.087
 7437WAT     H122553   5.855   0.042   1.997
 7437WAT     H222554   5.740   0.066   2.110
 7438WAT      O22555   4.777   5.269   9.657
 7438WAT     H122556   4.854   5.237   9.712
 7438WAT     H222557   4.803   5.268   9.560
 7439WAT      O22558   2.301   8.268   2.108
 7439WAT     H122559   2.236   8.243   2.180
 7439WAT     H222560   2.252   8.290   2.024
 7440WAT      O22561   8.513   3.367   6.347
 7440WAT     H122562   8.522   3.370   6.447
 7440WAT     H222563   8.602   3.349   6.306
 7441WAT      O22564   8.527   2.784   3.116
 7441WAT     H122565   8.571   2.800   3.204
 7441WAT     H222566   8.439   2.739   3.129
 7442WAT      O22567   3.736   4.584   4.061
 7442WAT     H122568   3.660   4.584   3.996
 7442WAT     H222569   3.822   4.590   4.012
 7443WAT      O22570   8.325  -0.001   4.337
 7443WAT     H122571   8.400   0.011   4.402
 7443WAT     H222572   8.357   0.023   4.245
 7444WAT      O22573   2.371   3.673   1.809
 7444WAT     H122574   2.295   3.635   1.863
 7444WAT     H222575   2.449   3.690   1.869
 7445WAT      O22576   5.665   5.512   6.784
 7445WAT     H122577   5.567   5.533   6.775
 7445WAT     H222578   5.682   5.474   6.875
 7446WAT      O22579   3.815   5.088   2.303
 7446WAT     H122580   3.879   5.096   2.380
 7446WAT     H222581   3.792   5.179   2.269
 7447WAT      O22582   8.312   2.422   1.699
 7447WAT     H122583   8.366   2.416   1.783
 7447WAT     H222584   8.343   2.351   1.635
 7448WAT      O22585   8.654   4.239   3.668
 7448WAT     H122586   8.664   4.239   3.568
 7448WAT     H222587   8.742   4.262   3.710
 7449WAT      O22588   0.465   6.660   0.522
 7449WAT     H122589   0.561   6.673   0.547
 7449WAT     H222590   0.412   6.740   0.549
 7450WAT      O22591   3.002   7.204   5.514
 7450WAT     H122592   3.015   7.188   5.611
 7450WAT     H222593   2.904   7.212   5.494
 7451WAT      O22594   6.929   1.605   0.411
 7451WAT     H122595   6.900   1.511   0.394
 7451WAT     H222596   6.945   1.651   0.324
 7452WAT      O22597   5.800   7.090   6.326
 7452WAT     H122598   5.820   7.036   6.245
 7452WAT     H222599   5.728   7.156   6.306
 7453WAT      O22600   2.873   3.631   3.065
 7453WAT     H122601   2.847   3.567   3.136
 7453WAT     H222602   2.805   3.630   2.992
 7454WAT      O22603   5.514   7.079   7.589
 7454WAT     H122604   5.511   7.179   7.586
 7454WAT     H222605   5.516   7.043   7.495
 7455WAT      O22606   9.572   7.451   7.871
 7455WAT     H122607   9.544   7.375   7.812
 7455WAT     H222608   9.512   7.456   7.951
 7456WAT      O22609   8.384   4.572   1.544
 7456WAT     H122610   8.333   4.486   1.547
 7456WAT     H222611   8.332   4.640   1.491
 7457WAT      O22612   2.375   0.047   3.712
 7457WAT     H122613   2.421   0.113   3.772
 7457WAT     H222614   2.335  -0.026   3.767
 7458WAT      O22615   3.213   7.614   5.615
 7458WAT     H122616   3.117   7.586   5.616
 7458WAT     H222617   3.230   7.669   5.533
 7459WAT      O22618   9.224   2.177   1.183
 7459WAT     H122619   9.180   2.098   1.227
 7459WAT     H222620   9.177   2.199   1.098
 7460WAT      O22621   6.124   2.179   2.631
 7460WAT     H122622   6.215   2.145   2.655
 7460WAT     H222623   6.077   2.111   2.575
 7461WAT      O22624   5.168   5.814   1.574
 7461WAT     H122625   5.247   5.872   1.558
 7461WAT     H222626   5.198   5.719   1.587
 7462WAT      O22627   8.322   0.605   3.831
 7462WAT     H122628   8.308   0.551   3.748
 7462WAT     H222629   8.384   0.557   3.893
 7463WAT      O22630   3.951   3.048   3.672
 7463WAT     H122631   3.953   3.074   3.576
 7463WAT     H222632   3.964   3.130   3.729
 7464WAT      O22633   0.495   0.684   5.877
 7464WAT     H122634   0.433   0.606   5.868
 7464WAT     H222635   0.449   0.758   5.927
 7465WAT      O22636   0.796   1.847   0.182
 7465WAT     H122637   0.822   1.800   0.098
 7465WAT     H222638   0.868   1.834   0.251
 7466WAT      O22639   1.234   6.334   3.886
 7466WAT     H122640   1.234   6.280   3.970
 7466WAT     H222641   1.327   6.364   3.865
 7467WAT      O22642   7.752   7.187   3.159
 7467WAT     H122643   7.712   7.267   3.114
 7467WAT     H222644   7.768   7.116   3.092
 7468WAT      O22645   0.713   1.005   1.720
 7468WAT     H122646   0.621   0.968   1.707
 7468WAT     H222647   0.707   1.093   1.766
 7469WAT      O22648   7.182   8.766   2.557
 7469WAT     H122649   7.252   8.695   2.552
 7469WAT     H222650   7.125   8.763   2.475
 7470WAT      O22651   7.791   4.011   1.544
 7470WAT     H122652   7.780   3.912   1.534
 7470WAT     H222653   7.744   4.058   1.470
 7471WAT      O22654   2.894   3.218   1.799
 7471WAT     H122655   2.982   3.254   1.768
 7471WAT     H222656   2.875   3.252   1.892
 7472WAT      O22657   9.176   7.203   6.703
 7472WAT     H122658   9.201   7.110   6.729
 7472WAT     H222659   9.254   7.248   6.659
 7473WAT      O22660   4.356   9.391   8.601
 7473WAT     H122661   4.348   9.380   8.502
 7473WAT     H222662   4.373   9.302   8.643
 7474WAT      O22663   4.015   1.012   4.598
 7474WAT     H122664   4.028   1.103   4.638
 7474WAT     H222665   4.088   0.951   4.629
 7475WAT      O22666   2.708   5.121   4.859
 7475WAT     H122667   2.767   5.174   4.799
 7475WAT     H222668   2.707   5.163   4.950
 7476WAT      O22669   7.126   1.460   7.116
 7476WAT     H122670   7.157   1.365   7.126
 7476WAT     H222671   7.206   1.520   7.116
 7477WAT      O22672   2.700   0.678   1.426
 7477WAT     H122673   2.792   0.654   1.395
 7477WAT     H222674   2.640   0.691   1.346
 7478WAT      O22675   7.976   4.427   1.458
 7478WAT     H122676   7.879   4.423   1.437
 7478WAT     H222677   7.994   4.379   1.544
 7479WAT      O22678   4.407   7.080   1.725
 7479WAT     H122679   4.506   7.073   1.713
 7479WAT     H222680   4.361   7.015   1.665
 7480WAT      O22681   2.399   0.077   1.870
 7480WAT     H122682   2.318   0.038   1.914
 7480WAT     H222683   2.395   0.177   1.876
 7481WAT      O22684   2.977   6.625   2.930
 7481WAT     H122685   2.908   6.605   2.861
 7481WAT     H222686   3.052   6.676   2.888
 7482WAT      O22687   3.034   8.627   6.345
 7482WAT     H122688   3.023   8.700   6.413
 7482WAT     H222689   3.005   8.540   6.384
 7483WAT      O22690   6.107   1.982   6.920
 7483WAT     H122691   6.156   1.900   6.891
 7483WAT     H222692   6.033   1.956   6.982
 7484WAT      O22693   9.271   2.836   9.316
 7484WAT     H122694   9.277   2.771   9.240
 7484WAT     H222695   9.280   2.929   9.281
 7485WAT      O22696   9.779   8.515   2.161
 7485WAT     H122697   9.797   8.479   2.252
 7485WAT     H222698   9.769   8.439   2.096
 7486WAT      O22699   6.708   4.564   8.882
 7486WAT     H122700   6.783   4.574   8.947
 7486WAT     H222701   6.692   4.651   8.835
 7487WAT      O22702   7.711   2.419   8.902
 7487WAT     H122703   7.755   2.491   8.956
 7487WAT     H222704   7.746   2.330   8.932
 7488WAT      O22705   3.377   8.455   6.237
 7488WAT     H122706   3.374   8.554   6.223
 7488WAT     H222707   3.337   8.409   6.158
 7489WAT      O22708   0.028   2.998   7.662
 7489WAT     H122709   0.004   3.095   7.672
 7489WAT     H222710   0.110   2.978   7.715
 7490WAT      O22711   4.246   2.256   6.501
 7490WAT     H122712   4.278   2.210   6.418
 7490WAT     H222713   4.245   2.191   6.577
 7491WAT      O22714   5.295   1.523   8.182
 7491WAT     H122715   5.275   1.563   8.093
 7491WAT     H222716   5.224   1.457   8.206
 7492WAT      O22717   2.096   0.129   2.587
 7492WAT     H122718   2.040   0.133   2.504
 7492WAT     H222719   2.046   0.080   2.658
 7493WAT      O22720   4.914   0.456   2.319
 7493WAT     H122721   4.936   0.479   2.225
 7493WAT     H222722   4.818   0.480   2.338
 7494WAT      O22723   4.815   6.365   9.559
 7494WAT     H122724   4.775   6.430   9.493
 7494WAT     H222725   4.887   6.312   9.514
 7495WAT      O22726   6.850   3.223   9.665
 7495WAT     H122727   6.908   3.210   9.746
 7495WAT     H222728   6.777   3.288   9.687
 7496WAT      O22729   8.527   0.236   4.066
 7496WAT     H122730   8.559   0.170   4.133
 7496WAT     H222731   8.570   0.218   3.978
 7497WAT      O22732   9.497   5.430   1.068
 7497WAT     H122733   9.520   5.365   1.141
 7497WAT     H222734   9.407   5.471   1.087
 7498WAT      O22735   4.625   5.712   7.631
 7498WAT     H122736   4.694   5.695   7.560
 7498WAT     H222737   4.558   5.777   7.597
 7499WAT      O22738   0.163   2.048   0.072
 7499WAT     H122739   0.149   1.954   0.041
 7499WAT     H222740   0.109   2.065   0.154
 7500WAT      O22741   9.592   3.091   1.456
 7500WAT     H122742   9.623   3.004   1.419
 7500WAT     H222743   9.655   3.122   1.527
 7501WAT      O22744   6.198   8.575   1.567
 7501WAT     H122745   6.175   8.664   1.606
 7501WAT     H222746   6.120   8.541   1.513
 7502WAT      O22747   8.084   8.416   5.643
 7502WAT     H122748   8.130   8.466   5.570
 7502WAT     H222749   8.001   8.374   5.607
 7503WAT      O22750   9.771   0.651   4.173
 7503WAT     H122751   9.842   0.671   4.106
 7503WAT     H222752   9.785   0.706   4.255
 7504WAT      O22753   4.374   1.485   2.843
 7504WAT     H122754   4.331   1.410   2.793
 7504WAT     H222755   4.393   1.561   2.781
 7505WAT      O22756   4.583   7.904   8.386
 7505WAT     H122757   4.609   7.929   8.479
 7505WAT     H222758   4.602   7.981   8.325
 7506WAT      O22759   4.353   7.297   4.455
 7506WAT     H122760   4.299   7.312   4.372
 7506WAT     H222761   4.411   7.216   4.443
 7507WAT      O22762   4.654   0.983   4.055
 7507WAT     H122763   4.732   0.937   4.098
 7507WAT     H222764   4.593   1.018   4.126
 7508WAT      O22765   5.829   8.350   4.965
 7508WAT     H122766   5.918   8.359   4.921
 7508WAT     H222767   5.828   8.269   5.024
 7509WAT      O22768   6.803   7.509   0.938
 7509WAT     H122769   6.831   7.417   0.908
 7509WAT     H222770   6.716   7.502   0.987
 7510WAT      O22771   1.163   8.137   7.681
 7510WAT     H122772   1.073   8.167   7.651
 7510WAT     H222773   1.172   8.153   7.780
 7511WAT      O22774   0.797   6.905   2.144
 7511WAT     H122775   0.869   6.942   2.203
 7511WAT     H222776   0.815   6.808   2.128
 7512WAT      O22777   1.435   8.727   2.803
 7512WAT     H122778   1.387   8.647   2.767
 7512WAT     H222779   1.514   8.698   2.857
 7513WAT      O22780   4.475   3.059   4.287
 7513WAT     H122781   4.524   2.976   4.314
 7513WAT     H222782   4.377   3.041   4.286
 7514WAT      O22783   3.857   2.055   3.997
 7514WAT     H122784   3.782   2.083   4.057
 7514WAT     H222785   3.943   2.092   4.033
 7515WAT      O22786   1.491   8.441   9.182
 7515WAT     H122787   1.510   8.351   9.141
 7515WAT     H222788   1.565   8.504   9.159
 7516WAT      O22789   6.250   6.925   7.443
 7516WAT     H122790   6.182   6.856   7.468
 7516WAT     H222791   6.327   6.920   7.506
 7517WAT      O22792   4.089   0.535   3.912
 7517WAT     H122793   4.013   0.575   3.963
 7517WAT     H222794   4.166   0.600   3.909
 7518WAT      O22795   4.127   1.082   9.480
 7518WAT     H122796   4.173   1.050   9.398
 7518WAT     H222797   4.170   1.167   9.511
 7519WAT      O22798   0.360   8.197   7.435
 7519WAT     H122799   0.385   8.109   7.476
 7519WAT     H222800   0.261   8.202   7.424
 7520WAT      O22801   8.637   7.681   0.478
 7520WAT     H122802   8.711   7.708   0.540
 7520WAT     H222803   8.567   7.631   0.530
 7521WAT      O22804   7.785   7.191   0.863
 7521WAT     H122805   7.856   7.121   0.871
 7521WAT     H222806   7.745   7.208   0.953
 7522WAT      O22807   7.192   4.522   2.818
 7522WAT     H122808   7.209   4.601   2.759
 7522WAT     H222809   7.228   4.542   2.910
 7523WAT      O22810   8.822   3.655   0.757
 7523WAT     H122811   8.911   3.612   0.746
 7523WAT     H222812   8.823   3.746   0.714
 7524WAT      O22813   4.441   7.391   7.057
 7524WAT     H122814   4.470   7.485   7.079
 7524WAT     H222815   4.356   7.393   7.005
 7525WAT      O22816   1.545   8.267   1.851
 7525WAT     H122817   1.476   8.270   1.923
 7525WAT     H222818   1.535   8.347   1.792
 7526WAT      O22819   2.750   0.838   2.907
 7526WAT     H122820   2.731   0.933   2.934
 7526WAT     H222821   2.815   0.839   2.831
 7527WAT      O22822   7.836   0.453   3.994
 7527WAT     H122823   7.930   0.426   3.972
 7527WAT     H222824   7.775   0.426   3.919
 7528WAT      O22825   1.349   1.972   9.618
 7528WAT     H122826   1.440   1.957   9.657
 7528WAT     H222827   1.287   2.006   9.689
 7529WAT      O22828   7.951   8.079   8.303
 7529WAT     H122829   8.008   8.037   8.373
 7529WAT     H222830   7.859   8.040   8.308
 7530WAT      O22831   3.968   2.529   1.310
 7530WAT     H122832   4.030   2.459   1.344
 7530WAT     H222833   3.883   2.528   1.364
 7531WAT      O22834   0.095   2.687   2.346
 7531WAT     H122835   0.103   2.776   2.390
 7531WAT     H222836  -0.001   2.668   2.325
 7532WAT      O22837   7.862   6.998   5.465
 7532WAT     H122838   7.839   7.021   5.559
 7532WAT     H222839   7.849   6.900   5.451
 7533WAT      O22840   6.464   6.015   7.012
 7533WAT     H122841   6.539   5.949   7.020
 7533WAT     H222842   6.481   6.092   7.073
 7534WAT      O22843   1.386   7.261   8.610
 7534WAT     H122844   1.338   7.246   8.697
 7534WAT     H222845   1.375   7.181   8.552
 7535WAT      O22846   6.447   2.512   3.971
 7535WAT     H122847   6.524   2.478   3.917
 7535WAT     H222848   6.476   2.591   4.025
 7536WAT      O22849   4.730   5.417   3.208
 7536WAT     H122850   4.638   5.431   3.244
 7536WAT     H222851   4.796   5.466   3.265
 7537WAT      O22852   1.207   5.512   2.931
 7537WAT     H122853   1.267   5.585   2.897
 7537WAT     H222854   1.228   5.427   2.883
 7538WAT      O22855   0.666   0.985   5.442
 7538WAT     H122856   0.581   1.009   5.396
 7538WAT     H222857   0.658   0.893   5.480
 7539WAT      O22858   0.761   3.298   9.719
 7539WAT     H122859   0.828   3.343   9.659
 7539WAT     H222860   0.690   3.363   9.745
 7540WAT      O22861   9.674   0.660   1.232
 7540WAT     H122862   9.683   0.748   1.278
 7540WAT     H222863   9.597   0.662   1.169
 7541WAT      O22864   3.884   6.687   4.171
 7541WAT     H122865   3.965   6.628   4.169
 7541WAT     H222866   3.876   6.730   4.261
 7542WAT      O22867   2.146   5.649   3.338
 7542WAT     H122868   2.169   5.702   3.420
 7542WAT     H222869   2.228   5.636   3.283
 7543WAT      O22870   8.522   8.662   6.916
 7543WAT     H122871   8.442   8.681   6.860
 7543WAT     H222872   8.494   8.619   7.002
 7544WAT      O22873   7.480   3.854   0.076
 7544WAT     H122874   7.460   3.847   0.174
 7544WAT     H222875   7.397   3.882   0.027
 7545WAT      O22876   0.995   6.538   6.982
 7545WAT     H122877   0.969   6.448   6.946
 7545WAT     H222878   1.093   6.551   6.970
 7546WAT      O22879   1.623   1.537   2.502
 7546WAT     H122880   1.693   1.521   2.572
 7546WAT     H222881   1.657   1.503   2.414
 7547WAT      O22882   5.512   0.535   7.354
 7547WAT     H122883   5.576   0.505   7.283
 7547WAT     H222884   5.459   0.456   7.385
 7548WAT      O22885   2.465   5.535   8.205
 7548WAT     H122886   2.407   5.552   8.125
 7548WAT     H222887   2.428   5.458   8.257
 7549WAT      O22888   4.825   5.933   0.752
 7549WAT     H122889   4.889   5.856   0.747
 7549WAT     H222890   4.781   5.935   0.842
 7550WAT      O22891   3.138   7.750   8.927
 7550WAT     H122892   3.152   7.842   8.965
 7550WAT     H222893   3.224   7.698   8.932
 7551WAT      O22894   4.162   0.171   2.065
 7551WAT     H122895   4.078   0.219   2.091
 7551WAT     H222896   4.214   0.227   2.001
 7552WAT      O22897   2.497   9.628   4.740
 7552WAT     H122898   2.584   9.643   4.692
 7552WAT     H222899   2.516   9.603   4.835
 7553WAT      O22900   2.743   6.491   8.434
 7553WAT     H122901   2.663   6.496   8.494
 7553WAT     H222902   2.788   6.402   8.446
 7554WAT      O22903   3.012   4.416   5.223
 7554WAT     H122904   2.961   4.497   5.254
 7554WAT     H222905   3.094   4.445   5.174
 7555WAT      O22906   4.449   6.486   7.863
 7555WAT     H122907   4.394   6.406   7.840
 7555WAT     H222908   4.496   6.470   7.949
 7556WAT      O22909   6.323   4.894   0.443
 7556WAT     H122910   6.333   4.978   0.497
 7556WAT     H222911   6.395   4.830   0.468
 7557WAT      O22912   7.252   5.919   6.350
 7557WAT     H122913   7.346   5.920   6.314
 7557WAT     H222914   7.196   5.858   6.294
 7558WAT      O22915   9.714   4.959   9.409
 7558WAT     H122916   9.692   4.989   9.317
 7558WAT     H222917   9.690   4.862   9.420
 7559WAT      O22918   9.701   8.961   8.930
 7559WAT     H122919   9.623   9.019   8.908
 7559WAT     H222920   9.753   9.001   9.006
 7560WAT      O22921   3.682   7.881   9.519
 7560WAT     H122922   3.740   7.908   9.442
 7560WAT     H222923   3.677   7.956   9.585
 7561WAT      O22924   8.523   5.376   9.756
 7561WAT     H122925   8.533   5.374   9.656
 7561WAT     H222926   8.455   5.445   9.780
 7562WAT      O22927   9.626   4.296   2.637
 7562WAT     H122928   9.700   4.229   2.624
 7562WAT     H222929   9.548   4.250   2.679
 7563WAT      O22930   1.945   6.839   5.274
 7563WAT     H122931   1.950   6.740   5.290
 7563WAT     H222932   2.035   6.872   5.244
 7564WAT      O22933   2.737   2.287   5.432
 7564WAT     H122934   2.737   2.301   5.531
 7564WAT     H222935   2.700   2.196   5.411
 7565WAT      O22936   6.348   4.794   9.648
 7565WAT     H122937   6.368   4.848   9.567
 7565WAT     H222938   6.280   4.841   9.704
 7566WAT      O22939   2.066   9.001   4.855
 7566WAT     H122940   2.060   8.945   4.773
 7566WAT     H222941   2.046   8.945   4.935
 7567WAT      O22942   6.626   0.755   6.713
 7567WAT     H122943   6.624   0.855   6.723
 7567WAT     H222944   6.540   0.716   6.747
 7568WAT      O22945   8.303   0.995   2.165
 7568WAT     H122946   8.240   0.932   2.210
 7568WAT     H222947   8.259   1.031   2.082
 7569WAT      O22948   1.454   1.093   3.323
 7569WAT     H122949   1.433   1.126   3.231
 7569WAT     H222950   1.369   1.089   3.376
 7570WAT      O22951   3.775   2.173   1.849
 7570WAT     H122952   3.820   2.103   1.905
 7570WAT     H222953   3.679   2.149   1.836
 7571WAT      O22954   2.016   5.934   2.874
 7571WAT     H122955   1.932   5.907   2.827
 7571WAT     H222956   2.085   5.863   2.861
 7572WAT      O22957   1.588   6.571   3.010
 7572WAT     H122958   1.567   6.525   3.097
 7572WAT     H222959   1.679   6.611   3.015
 7573WAT      O22960   4.734   2.874   3.985
 7573WAT     H122961   4.682   2.959   3.996
 7573WAT     H222962   4.749   2.858   3.888
 7574WAT      O22963   6.088   9.248   4.874
 7574WAT     H122964   6.071   9.149   4.870
 7574WAT     H222965   6.015   9.296   4.826
 7575WAT      O22966   0.729   7.324   8.374
 7575WAT     H122967   0.735   7.229   8.405
 7575WAT     H222968   0.686   7.327   8.284
 7576WAT      O22969   7.686   7.860   0.760
 7576WAT     H122970   7.639   7.852   0.848
 7576WAT     H222971   7.688   7.956   0.732
 7577WAT      O22972   6.816   7.391   4.409
 7577WAT     H122973   6.729   7.367   4.452
 7577WAT     H222974   6.844   7.482   4.441
 7578WAT      O22975   3.218   7.934   0.227
 7578WAT     H122976   3.210   7.859   0.162
 7578WAT     H222977   3.187   8.019   0.184
 7579WAT      O22978   3.021   3.966   5.287
 7579WAT     H122979   3.096   3.904   5.307
 7579WAT     H222980   3.034   4.052   5.337
 7580WAT      O22981   6.269   0.325   8.493
 7580WAT     H122982   6.317   0.292   8.574
 7580WAT     H222983   6.276   0.257   8.420
 7581WAT      O22984   3.212   9.431   3.805
 7581WAT     H122985   3.117   9.444   3.774
 7581WAT     H222986   3.241   9.512   3.855
 7582WAT      O22987   9.193   2.449   7.856
 7582WAT     H122988   9.139   2.449   7.940
 7582WAT     H222989   9.168   2.528   7.801
 7583WAT      O22990   8.466   9.760   3.375
 7583WAT     H122991   8.483   9.825   3.449
 7583WAT     H222992   8.521   9.678   3.389
 7584WAT      O22993   8.284   6.068   3.462
 7584WAT     H122994   8.276   6.150   3.519
 7584WAT     H222995   8.203   6.011   3.474
 7585WAT      O22996   1.648   7.733   7.630
 7585WAT     H122997   1.553   7.728   7.659
 7585WAT     H222998   1.706   7.752   7.710
 7586WAT      O22999   5.992   5.455   1.920
 7586WAT     H123000   5.893   5.472   1.915
 7586WAT     H223001   6.016   5.381   1.858
 7587WAT      O23002   5.105   4.309   0.348
 7587WAT     H123003   5.202   4.289   0.330
 7587WAT     H223004   5.095   4.340   0.443
 7588WAT      O23005   6.560   7.705   5.350
 7588WAT     H123006   6.493   7.677   5.419
 7588WAT     H223007   6.534   7.666   5.262
 7589WAT      O23008   9.555   4.520   2.801
 7589WAT     H123009   9.554   4.478   2.710
 7589WAT     H223010   9.473   4.491   2.852
 7590WAT      O23011   0.935   3.130   2.698
 7590WAT     H123012   0.959   3.227   2.705
 7590WAT     H223013   0.836   3.120   2.689
 7591WAT      O23014   2.603   5.911   1.120
 7591WAT     H123015   2.581   5.902   1.023
 7591WAT     H223016   2.681   5.852   1.142
 7592WAT      O23017   5.803   6.601   2.355
 7592WAT     H123018   5.742   6.643   2.287
 7592WAT     H223019   5.888   6.653   2.360
 7593WAT      O23020   6.187   6.610   7.201
 7593WAT     H123021   6.169   6.533   7.263
 7593WAT     H223022   6.247   6.676   7.247
 7594WAT      O23023   3.303   1.482   5.724
 7594WAT     H123024   3.235   1.483   5.798
 7594WAT     H223025   3.264   1.525   5.643
 7595WAT      O23026   5.814   7.185   0.198
 7595WAT     H123027   5.792   7.104   0.252
 7595WAT     H223028   5.780   7.267   0.245
 7596WAT      O23029   5.866   8.805   1.689
 7596WAT     H123030   5.852   8.838   1.596
 7596WAT     H223031   5.963   8.782   1.703
 7597WAT      O23032   5.306   6.920   2.291
 7597WAT     H123033   5.225   6.896   2.237
 7597WAT     H223034   5.305   6.868   2.377
 7598WAT      O23035   5.406   4.251   8.483
 7598WAT     H123036   5.469   4.319   8.522
 7598WAT     H223037   5.457   4.190   8.423
 7599WAT      O23038   7.153   1.652   2.754
 7599WAT     H123039   7.251   1.642   2.736
 7599WAT     H223040   7.117   1.566   2.790
 7600WAT      O23041   8.565   7.174   9.332
 7600WAT     H123042   8.507   7.134   9.261
 7600WAT     H223043   8.629   7.105   9.366
 7601WAT      O23044   5.180   7.489   1.537
 7601WAT     H123045   5.278   7.494   1.552
 7601WAT     H223046   5.155   7.550   1.462
 7602WAT      O23047   9.043   1.257   8.410
 7602WAT     H123048   8.990   1.326   8.360
 7602WAT     H223049   9.026   1.167   8.370
 7603WAT      O23050   4.604   2.743   3.013
 7603WAT     H123051   4.521   2.777   2.968
 7603WAT     H223052   4.676   2.812   3.008
 7604WAT      O23053   5.559   3.883   8.674
 7604WAT     H123054   5.482   3.944   8.691
 7604WAT     H223055   5.552   3.844   8.582
 7605WAT      O23056   7.930   3.209   8.785
 7605WAT     H123057   7.927   3.148   8.863
 7605WAT     H223058   7.995   3.174   8.718
 7606WAT      O23059   8.589   4.645   0.350
 7606WAT     H123060   8.501   4.691   0.343
 7606WAT     H223061   8.600   4.609   0.442
 7607WAT      O23062   9.715   7.737   2.928
 7607WAT     H123063   9.732   7.832   2.902
 7607WAT     H223064   9.677   7.688   2.850
 7608WAT      O23065   7.511   2.425   6.447
 7608WAT     H123066   7.596   2.384   6.415
 7608WAT     H223067   7.488   2.503   6.389
 7609WAT      O23068   5.102   4.158   4.178
 7609WAT     H123069   5.162   4.238   4.175
 7609WAT     H223070   5.127   4.095   4.105
 7610WAT      O23071   8.420   3.067   0.327
 7610WAT     H123072   8.404   3.056   0.425
 7610WAT     H223073   8.431   3.165   0.306
 7611WAT      O23074   3.827   3.569   5.145
 7611WAT     H123075   3.893   3.549   5.218
 7611WAT     H223076   3.868   3.549   5.056
 7612WAT      O23077   2.251   1.317   2.744
 7612WAT     H123078   2.265   1.346   2.838
 7612WAT     H223079   2.324   1.255   2.716
 7613WAT      O23080   9.611   1.745   6.795
 7613WAT     H123081   9.652   1.815   6.852
 7613WAT     H223082   9.612   1.775   6.699
 7614WAT      O23083   0.865   8.432   9.196
 7614WAT     H123084   0.888   8.529   9.193
 7614WAT     H223085   0.777   8.417   9.151
 7615WAT      O23086   0.160   4.236   4.252
 7615WAT     H123087   0.248   4.220   4.207
 7615WAT     H223088   0.087   4.219   4.186
 7616WAT      O23089   2.935   9.230   5.209
 7616WAT     H123090   2.958   9.262   5.301
 7616WAT     H223091   3.018   9.227   5.153
 7617WAT      O23092   8.265   4.316   1.603
 7617WAT     H123093   8.180   4.330   1.653
 7617WAT     H223094   8.250   4.254   1.527
 7618WAT      O23095   9.831   4.307   3.534
 7618WAT     H123096   9.803   4.228   3.479
 7618WAT     H223097   9.931   4.314   3.535
 7619WAT      O23098   7.781   5.991   6.521
 7619WAT     H123099   7.735   5.905   6.498
 7619WAT     H223100   7.720   6.045   6.580
 7620WAT      O23101   5.178   8.819   7.430
 7620WAT     H123102   5.086   8.810   7.470
 7620WAT     H223103   5.239   8.751   7.471
 7621WAT      O23104   3.032   9.777   7.881
 7621WAT     H123105   3.084   9.725   7.814
 7621WAT     H223106   2.960   9.828   7.836
 7622WAT      O23107   7.424   8.854   7.774
 7622WAT     H123108   7.444   8.762   7.808
 7622WAT     H223109   7.347   8.850   7.711
 7623WAT      O23110   9.111   2.547   2.405
 7623WAT     H123111   9.205   2.573   2.383
 7623WAT     H223112   9.112   2.468   2.466
 7624WAT      O23113   2.246   5.606   2.562
 7624WAT     H123114   2.167   5.607   2.501
 7624WAT     H223115   2.319   5.663   2.524
 7625WAT      O23116   3.253   8.305   8.706
 7625WAT     H123117   3.315   8.274   8.634
 7625WAT     H223118   3.172   8.346   8.665
 7626WAT      O23119   1.295   0.219   3.946
 7626WAT     H123120   1.290   0.180   4.038
 7626WAT     H223121   1.238   0.301   3.942
 7627WAT      O23122   7.006   5.616   6.747
 7627WAT     H123123   6.923   5.658   6.709
 7627WAT     H223124   7.085   5.645   6.692
 7628WAT      O23125   7.554   1.510   4.726
 7628WAT     H123126   7.464   1.468   4.738
 7628WAT     H223127   7.625   1.441   4.743
 7629WAT      O23128   7.620   7.423   8.558
 7629WAT     H123129   7.554   7.477   8.610
 7629WAT     H223130   7.692   7.389   8.619
 7630WAT      O23131   6.355   0.035   2.480
 7630WAT     H123132   6.296   0.085   2.416
 7630WAT     H223133   6.442   0.016   2.436
 7631WAT      O23134   7.520   7.658   3.206
 7631WAT     H123135   7.475   7.595   3.270
 7631WAT     H223136   7.479   7.647   3.116
 7632WAT      O23137   0.556   3.335   4.074
 7632WAT     H123138   0.525   3.305   4.164
 7632WAT     H223139   0.624   3.271   4.038
 7633WAT      O23140   0.887   3.650   3.118
 7633WAT     H123141   0.894   3.663   3.019
 7633WAT     H223142   0.802   3.602   3.140
 7634WAT      O23143   7.624   2.317   1.294
 7634WAT     H123144   7.599   2.363   1.379
 7634WAT     H223145   7.709   2.356   1.259
 7635WAT      O23146   4.169   2.813   6.950
 7635WAT     H123147   4.198   2.900   6.909
 7635WAT     H223148   4.190   2.738   6.887
 7636WAT      O23149   0.223   1.092   2.352
 7636WAT     H123150   0.259   1.010   2.397
 7636WAT     H223151   0.295   1.161   2.348
 7637WAT      O23152   0.021   5.894   1.834
 7637WAT     H123153   0.090   5.944   1.782
 7637WAT     H223154  -0.070   5.911   1.795
 7638WAT      O23155   3.695   3.546   6.993
 7638WAT     H123156   3.752   3.615   6.950
 7638WAT     H223157   3.715   3.542   7.091
 7639WAT      O23158   6.944   3.427   6.886
 7639WAT     H123159   6.875   3.458   6.952
 7639WAT     H223160   6.899   3.386   6.807
 7640WAT      O23161   4.125   3.929   3.115
 7640WAT     H123162   4.112   3.852   3.178
 7640WAT     H223163   4.216   3.967   3.127
 7641WAT      O23164   3.791   6.786   3.581
 7641WAT     H123165   3.836   6.850   3.519
 7641WAT     H223166   3.717   6.739   3.532
 7642WAT      O23167   2.863   5.953   7.256
 7642WAT     H123168   2.947   5.965   7.204
 7642WAT     H223169   2.799   5.896   7.204
 7643WAT      O23170   5.555   6.254   8.933
 7643WAT     H123171   5.591   6.337   8.892
 7643WAT     H223172   5.524   6.273   9.026
 7644WAT      O23173   1.023   6.423   9.005
 7644WAT     H123174   1.064   6.340   8.967
 7644WAT     H223175   0.923   6.415   8.999
 7645WAT      O23176   3.386   4.774   4.336
 7645WAT     H123177   3.421   4.681   4.349
 7645WAT     H223178   3.384   4.795   4.238
 7646WAT      O23179   2.800   9.072   9.262
 7646WAT     H123180   2.720   9.080   9.321
 7646WAT     H223181   2.805   8.980   9.224
 7647WAT      O23182   3.437   1.090   9.774
 7647WAT     H123183   3.377   1.040   9.836
 7647WAT     H223184   3.532   1.063   9.790
 7648WAT      O23185   1.066   8.503   1.164
 7648WAT     H123186   0.969   8.507   1.137
 7648WAT     H223187   1.114   8.581   1.124
 7649WAT      O23188   9.407   7.499   2.621
 7649WAT     H123189   9.396   7.433   2.546
 7649WAT     H223190   9.336   7.483   2.689
 7650WAT      O23191   9.549   5.307   2.706
 7650WAT     H123192   9.538   5.369   2.783
 7650WAT     H223193   9.584   5.219   2.739
 7651WAT      O23194   5.462   7.843   8.082
 7651WAT     H123195   5.546   7.895   8.091
 7651WAT     H223196   5.451   7.783   8.161
 7652WAT      O23197   6.675   8.801   8.490
 7652WAT     H123198   6.668   8.701   8.485
 7652WAT     H223199   6.608   8.842   8.429
 7653WAT      O23200   3.288   1.234   4.900
 7653WAT     H123201   3.243   1.222   4.989
 7653WAT     H223202   3.362   1.300   4.910
 7654WAT      O23203   8.654   9.251   6.298
 7654WAT     H123204   8.678   9.308   6.377
 7654WAT     H223205   8.735   9.201   6.268
 7655WAT      O23206   6.524   9.125   0.199
 7655WAT     H123207   6.471   9.199   0.240
 7655WAT     H223208   6.549   9.150   0.106
 7656WAT      O23209   8.542   0.708   8.487
 7656WAT     H123210   8.494   0.742   8.407
 7656WAT     H223211   8.502   0.749   8.570
 7657WAT      O23212   9.558   6.888   1.682
 7657WAT     H123213   9.615   6.911   1.602
 7657WAT     H223214   9.529   6.973   1.726
 7658WAT      O23215   7.684   8.141   6.130
 7658WAT     H123216   7.710   8.175   6.040
 7658WAT     H223217   7.617   8.203   6.171
 7659WAT      O23218   8.095   2.791   6.348
 7659WAT     H123219   8.030   2.866   6.339
 7659WAT     H223220   8.103   2.765   6.444
 7660WAT      O23221   8.809   8.597   5.306
 7660WAT     H123222   8.904   8.593   5.336
 7660WAT     H223223   8.749   8.587   5.386
 7661WAT      O23224   8.662   9.333   2.811
 7661WAT     H123225   8.622   9.354   2.722
 7661WAT     H223226   8.594   9.288   2.869
 7662WAT      O23227   6.168   7.535   1.273
 7662WAT     H123228   6.167   7.635   1.276
 7662WAT     H223229   6.227   7.500   1.346
 7663WAT      O23230   3.104   5.328   6.945
 7663WAT     H123231   3.104   5.234   6.909
 7663WAT     H223232   3.138   5.390   6.874
 7664WAT      O23233   6.042   9.662   0.029
 7664WAT     H123234   5.996   9.703  -0.049
 7664WAT     H223235   6.063   9.567   0.010
 7665WAT      O23236   8.157   1.639   7.463
 7665WAT     H123237   8.132   1.704   7.535
 7665WAT     H223238   8.202   1.560   7.503
 7666WAT      O23239   0.712   8.360   1.443
 7666WAT     H123240   0.751   8.275   1.407
 7666WAT     H223241   0.618   8.343   1.472
 7667WAT      O23242   5.760   1.738   1.902
 7667WAT     H123243   5.701   1.696   1.833
 7667WAT     H223244   5.710   1.810   1.950
 7668WAT      O23245   0.229   0.437   1.225
 7668WAT     H123246   0.176   0.505   1.174
 7668WAT     H223247   0.165   0.376   1.274
 7669WAT      O23248   8.871   6.121   7.595
 7669WAT     H123249   8.796   6.147   7.534
 7669WAT     H223250   8.957   6.159   7.561
 7670WAT      O23251   6.293   2.573   0.493
 7670WAT     H123252   6.246   2.651   0.535
 7670WAT     H223253   6.245   2.489   0.516
 7671WAT      O23254   4.366   4.446   0.051
 7671WAT     H123255   4.329   4.493   0.132
 7671WAT     H223256   4.461   4.421   0.067
 7672WAT      O23257   3.932   3.907   6.870
 7672WAT     H123258   3.942   3.810   6.891
 7672WAT     H223259   3.855   3.919   6.807
 7673WAT      O23260   7.882   6.197   8.291
 7673WAT     H123261   7.838   6.262   8.354
 7673WAT     H223262   7.832   6.195   8.205
 7674WAT      O23263   3.106   3.196   0.206
 7674WAT     H123264   3.190   3.246   0.184
 7674WAT     H223265   3.130   3.108   0.246
 7675WAT      O23266   6.430   0.556   4.464
 7675WAT     H123267   6.415   0.651   4.439
 7675WAT     H223268   6.528   0.539   4.476
 7676WAT      O23269   3.700   3.713   3.469
 7676WAT     H123270   3.694   3.801   3.516
 7676WAT     H223271   3.700   3.727   3.371
 7677WAT      O23272   4.494   1.864   0.276
 7677WAT     H123273   4.459   1.821   0.359
 7677WAT     H223274   4.593   1.850   0.270
 7678WAT      O23275   8.094   0.709   7.200
 7678WAT     H123276   8.039   0.631   7.230
 7678WAT     H223277   8.060   0.743   7.113
 7679WAT      O23278   8.929   0.412   0.554
 7679WAT     H123279   9.024   0.396   0.526
 7679WAT     H223280   8.913   0.510   0.566
 7680WAT      O23281   9.598   8.016   8.322
 7680WAT     H123282   9.691   7.983   8.338
 7680WAT     H223283   9.601   8.092   8.256
 7681WAT      O23284   9.859   8.713   5.409
 7681WAT     H123285   9.838   8.642   5.342
 7681WAT     H223286   9.777   8.735   5.462
 7682WAT      O23287   4.380   6.127   0.008
 7682WAT     H123288   4.427   6.212  -0.017
 7682WAT     H223289   4.372   6.121   0.107
 7683WAT      O23290   1.964   6.617   6.477
 7683WAT     H123291   2.060   6.643   6.465
 7683WAT     H223292   1.905   6.681   6.428
 7684WAT      O23293   6.997   0.189   7.815
 7684WAT     H123294   7.070   0.212   7.751
 7684WAT     H223295   6.970   0.271   7.865
 7685WAT      O23296   7.982   4.080   8.460
 7685WAT     H123297   8.020   4.152   8.519
 7685WAT     H223298   8.023   3.992   8.484
 7686WAT      O23299   2.289   6.515   6.826
 7686WAT     H123300   2.285   6.595   6.766
 7686WAT     H223301   2.331   6.439   6.777
 7687WAT      O23302   2.917   0.602   0.098
 7687WAT     H123303   2.957   0.648   0.019
 7687WAT     H223304   2.821   0.579   0.078
 7688WAT      O23305   2.297   2.508   5.389
 7688WAT     H123306   2.241   2.440   5.437
 7688WAT     H223307   2.298   2.593   5.442
 7689WAT      O23308   6.439   9.433   2.406
 7689WAT     H123309   6.376   9.432   2.329
 7689WAT     H223310   6.515   9.372   2.388
 7690WAT      O23311   9.057   6.323   7.983
 7690WAT     H123312   9.019   6.409   7.949
 7690WAT     H223313   9.128   6.341   8.051
 7691WAT      O23314   0.531   1.996   2.248
 7691WAT     H123315   0.505   1.900   2.238
 7691WAT     H223316   0.602   2.018   2.181
 7692WAT      O23317   7.262   0.918   5.272
 7692WAT     H123318   7.186   0.882   5.326
 7692WAT     H223319   7.348   0.884   5.310
 7693WAT      O23320   8.747   8.255   2.272
 7693WAT     H123321   8.796   8.240   2.186
 7693WAT     H223322   8.812   8.276   2.344
 7694WAT      O23323   9.505   5.217   1.614
 7694WAT     H123324   9.413   5.227   1.576
 7694WAT     H223325   9.516   5.280   1.691
 7695WAT      O23326   5.311   5.428   2.506
 7695WAT     H123327   5.341   5.353   2.565
 7695WAT     H223328   5.222   5.462   2.538
 7696WAT      O23329   8.775   7.805   9.475
 7696WAT     H123330   8.723   7.750   9.410
 7696WAT     H223331   8.755   7.774   9.568
 7697WAT      O23332   8.340   7.174   9.503
 7697WAT     H123333   8.314   7.246   9.439
 7697WAT     H223334   8.436   7.186   9.529
 7698WAT      O23335   6.219   8.859   5.235
 7698WAT     H123336   6.211   8.943   5.288
 7698WAT     H223337   6.197   8.781   5.294
 7699WAT      O23338   5.250   5.002   0.279
 7699WAT     H123339   5.201   5.088   0.268
 7699WAT     H223340   5.185   4.928   0.294
 7700WAT      O23341   9.476   1.084   7.556
 7700WAT     H123342   9.523   1.062   7.642
 7700WAT     H223343   9.484   1.182   7.538
 7701WAT      O23344   6.970   1.635   5.675
 7701WAT     H123345   6.985   1.536   5.680
 7701WAT     H223346   6.949   1.661   5.581
 7702WAT      O23347   1.445   7.765   9.017
 7702WAT     H123348   1.466   7.794   9.110
 7702WAT     H223349   1.522   7.787   8.957
 7703WAT      O23350   5.133   2.361   7.297
 7703WAT     H123351   5.034   2.363   7.310
 7703WAT     H223352   5.179   2.392   7.381
 7704WAT      O23353   3.713   0.504   1.467
 7704WAT     H123354   3.809   0.509   1.492
 7704WAT     H223355   3.705   0.489   1.368
 7705WAT      O23356   8.644   4.859   8.139
 7705WAT     H123357   8.715   4.789   8.133
 7705WAT     H223358   8.596   4.865   8.051
 7706WAT      O23359   3.858   5.085   0.867
 7706WAT     H123360   3.818   5.064   0.778
 7706WAT     H223361   3.935   5.022   0.884
 7707WAT      O23362   1.378   8.513   3.132
 7707WAT     H123363   1.337   8.505   3.041
 7707WAT     H223364   1.439   8.592   3.134
 7708WAT      O23365   6.467   6.005   8.434
 7708WAT     H123366   6.409   6.001   8.515
 7708WAT     H223367   6.416   6.047   8.359
 7709WAT      O23368   3.560   8.255   6.491
 7709WAT     H123369   3.625   8.196   6.540
 7709WAT     H223370   3.596   8.276   6.400
 7710WAT      O23371   0.368   0.190   4.011
 7710WAT     H123372   0.278   0.145   4.016
 7710WAT     H223373   0.363   0.279   4.055
 7711WAT      O23374   6.616   9.069   5.107
 7711WAT     H123375   6.702   9.027   5.078
 7711WAT     H223376   6.544   9.000   5.110
 7712WAT      O23377   5.724   3.719   7.823
 7712WAT     H123378   5.700   3.788   7.890
 7712WAT     H223379   5.796   3.660   7.859
 7713WAT      O23380   7.209   2.031   3.304
 7713WAT     H123381   7.195   2.062   3.210
 7713WAT     H223382   7.305   2.037   3.328
 7714WAT      O23383   4.851   0.380   3.427
 7714WAT     H123384   4.868   0.367   3.329
 7714WAT     H223385   4.819   0.473   3.444
 7715WAT      O23386   2.677   7.225   7.959
 7715WAT     H123387   2.709   7.306   8.007
 7715WAT     H223388   2.579   7.212   7.977
 7716WAT      O23389   9.752   8.694   6.152
 7716WAT     H123390   9.657   8.665   6.165
 7716WAT     H223391   9.773   8.699   6.054
 7717WAT      O23392   1.371   9.254   9.237
 7717WAT     H123393   1.352   9.345   9.272
 7717WAT     H223394   1.300   9.191   9.267
 7718WAT      O23395   3.988   9.519   4.027
 7718WAT     H123396   4.040   9.528   4.112
 7718WAT     H223397   3.913   9.454   4.041
 7719WAT      O23398   4.078   5.650   4.682
 7719WAT     H123399   4.078   5.554   4.654
 7719WAT     H223400   3.985   5.686   4.679
 7720WAT      O23401   5.661   4.239   6.157
 7720WAT     H123402   5.637   4.318   6.212
 7720WAT     H223403   5.585   4.175   6.155
 7721WAT      O23404   2.883   7.909   2.342
 7721WAT     H123405   2.801   7.964   2.331
 7721WAT     H223406   2.944   7.953   2.408
 7722WAT      O23407   6.627   4.270   7.457
 7722WAT     H123408   6.725   4.287   7.445
 7722WAT     H223409   6.583   4.352   7.494
 7723WAT      O23410   2.103   6.717   3.129
 7723WAT     H123411   2.186   6.757   3.089
 7723WAT     H223412   2.128   6.642   3.190
 7724WAT      O23413   4.724   5.447   7.216
 7724WAT     H123414   4.795   5.397   7.266
 7724WAT     H223415   4.634   5.415   7.246
 7725WAT      O23416   7.633   1.643   9.352
 7725WAT     H123417   7.557   1.637   9.417
 7725WAT     H223418   7.715   1.606   9.394
 7726WAT      O23419   2.772   8.402   1.235
 7726WAT     H123420   2.738   8.326   1.290
 7726WAT     H223421   2.713   8.413   1.154
 7727WAT      O23422   4.850   6.848   6.201
 7727WAT     H123423   4.774   6.907   6.228
 7727WAT     H223424   4.823   6.791   6.123
 7728WAT      O23425   9.688   8.350   4.008
 7728WAT     H123426   9.603   8.379   3.963
 7728WAT     H223427   9.667   8.316   4.100
 7729WAT      O23428   2.150   2.023   9.694
 7729WAT     H123429   2.179   2.014   9.789
 7729WAT     H223430   2.069   2.083   9.689
 7730WAT      O23431   5.495   3.820   7.206
 7730WAT     H123432   5.456   3.783   7.122
 7730WAT     H223433   5.517   3.745   7.269
 7731WAT      O23434   7.071   1.096   3.978
 7731WAT     H123435   7.143   1.067   4.041
 7731WAT     H223436   7.075   1.196   3.967
 7732WAT      O23437   6.545   0.645   7.082
 7732WAT     H123438   6.584   0.737   7.077
 7732WAT     H223439   6.610   0.584   7.127
 7733WAT      O23440   8.647   4.244   0.267
 7733WAT     H123441   8.705   4.230   0.348
 7733WAT     H223442   8.684   4.319   0.213
 7734WAT      O23443   9.839   5.066   6.055
 7734WAT     H123444   9.795   5.046   6.143
 7734WAT     H223445   9.806   5.001   5.986
 7735WAT      O23446   3.502   3.571   4.153
 7735WAT     H123447   3.436   3.646   4.156
 7735WAT     H223448   3.585   3.598   4.201
 7736WAT      O23449   5.251   4.428   8.347
 7736WAT     H123450   5.298   4.346   8.379
 7736WAT     H223451   5.160   4.432   8.387
 7737WAT      O23452   2.866   7.187   4.203
 7737WAT     H123453   2.924   7.266   4.220
 7737WAT     H223454   2.924   7.108   4.182
 7738WAT      O23455   0.783   5.724   3.014
 7738WAT     H123456   0.809   5.712   2.919
 7738WAT     H223457   0.683   5.732   3.021
 7739WAT      O23458   7.059   4.013   6.176
 7739WAT     H123459   6.995   4.090   6.177
 7739WAT     H223460   7.057   3.968   6.087
 7740WAT      O23461   9.128   3.708   3.752
 7740WAT     H123462   9.057   3.678   3.815
 7740WAT     H223463   9.098   3.791   3.706
 7741WAT      O23464   8.330   9.680   1.889
 7741WAT     H123465   8.377   9.707   1.973
 7741WAT     H223466   8.240   9.642   1.912
 7742WAT      O23467   2.001   8.046   1.069
 7742WAT     H123468   2.037   7.972   1.126
 7742WAT     H223469   1.910   8.022   1.037
 7743WAT      O23470   7.096   7.968   3.654
 7743WAT     H123471   7.140   8.008   3.735
 7743WAT     H223472   7.045   8.039   3.605
 7744WAT      O23473   6.395   2.966   0.046
 7744WAT     H123474   6.476   3.023   0.060
 7744WAT     H223475   6.367   2.972  -0.050
 7745WAT      O23476   7.517   1.566   7.351
 7745WAT     H123477   7.444   1.582   7.418
 7745WAT     H223478   7.584   1.503   7.389
 7746WAT      O23479   1.448   8.063   8.234
 7746WAT     H123480   1.516   8.043   8.163
 7746WAT     H223481   1.384   7.987   8.241
 7747WAT      O23482   0.189   8.186   9.358
 7747WAT     H123483   0.129   8.118   9.316
 7747WAT     H223484   0.201   8.165   9.455
 7748WAT      O23485   7.362   1.769   1.621
 7748WAT     H123486   7.342   1.781   1.718
 7748WAT     H223487   7.319   1.842   1.568
 7749WAT      O23488   5.498   0.281   3.169
 7749WAT     H123489   5.492   0.378   3.190
 7749WAT     H223490   5.443   0.260   3.089
 7750WAT      O23491   8.721   1.287   8.684
 7750WAT     H123492   8.640   1.280   8.627
 7750WAT     H223493   8.741   1.199   8.726
 7751WAT      O23494   0.782   9.036   3.766
 7751WAT     H123495   0.818   8.946   3.791
 7751WAT     H223496   0.747   9.082   3.847
 7752WAT      O23497   8.272   9.568   9.606
 7752WAT     H123498   8.369   9.579   9.625
 7752WAT     H223499   8.219   9.628   9.665
 7753WAT      O23500   6.636   3.858   2.691
 7753WAT     H123501   6.657   3.900   2.779
 7753WAT     H223502   6.543   3.822   2.692
 7754WAT      O23503   7.606   6.067   0.747
 7754WAT     H123504   7.570   6.051   0.655
 7754WAT     H223505   7.702   6.039   0.751
 7755WAT      O23506   6.227   5.252   6.108
 7755WAT     H123507   6.273   5.193   6.174
 7755WAT     H223508   6.138   5.280   6.144
 7756WAT      O23509   3.045   7.914   1.299
 7756WAT     H123510   3.102   7.995   1.286
 7756WAT     H223511   2.973   7.934   1.365
 7757WAT      O23512   0.108   8.712   6.699
 7757WAT     H123513   0.147   8.741   6.786
 7757WAT     H223514   0.014   8.681   6.713
 7758WAT      O23515   8.793   8.673   5.063
 7758WAT     H123516   8.786   8.638   5.156
 7758WAT     H223517   8.705   8.665   5.016
 7759WAT      O23518   6.198   6.411   8.955
 7759WAT     H123519   6.126   6.354   8.994
 7759WAT     H223520   6.167   6.450   8.868
 7760WAT      O23521   6.767   2.757   8.994
 7760WAT     H123522   6.725   2.812   9.067
 7760WAT     H223523   6.724   2.779   8.907
 7761WAT      O23524   2.288   0.872   1.163
 7761WAT     H123525   2.247   0.920   1.240
 7761WAT     H223526   2.304   0.776   1.188
 7762WAT      O23527   7.089   1.414   6.198
 7762WAT     H123528   6.998   1.383   6.227
 7762WAT     H223529   7.091   1.421   6.099
 7763WAT      O23530   6.876   9.512   0.201
 7763WAT     H123531   6.919   9.421   0.200
 7763WAT     H223532   6.830   9.528   0.114
 7764WAT      O23533   4.243   5.084   7.211
 7764WAT     H123534   4.238   5.106   7.309
 7764WAT     H223535   4.311   5.143   7.167
 7765WAT      O23536   2.715   6.607   0.562
 7765WAT     H123537   2.763   6.694   0.557
 7765WAT     H223538   2.758   6.549   0.631
 7766WAT      O23539   9.283   5.593   1.822
 7766WAT     H123540   9.240   5.505   1.805
 7766WAT     H223541   9.241   5.636   1.902
 7767WAT      O23542   3.835   6.146   3.697
 7767WAT     H123543   3.822   6.055   3.735
 7767WAT     H223544   3.745   6.186   3.674
 7768WAT      O23545   2.738   7.204   5.477
 7768WAT     H123546   2.706   7.299   5.475
 7768WAT     H223547   2.694   7.155   5.552
 7769WAT      O23548   6.580   4.375   0.654
 7769WAT     H123549   6.558   4.303   0.588
 7769WAT     H223550   6.679   4.390   0.654
 7770WAT      O23551   1.458   8.548   8.668
 7770WAT     H123552   1.471   8.471   8.730
 7770WAT     H223553   1.545   8.596   8.656
 7771WAT      O23554   1.379   7.413   2.438
 7771WAT     H123555   1.400   7.485   2.372
 7771WAT     H223556   1.284   7.382   2.425
 7772WAT      O23557   3.331   0.181   5.106
 7772WAT     H123558   3.402   0.159   5.039
 7772WAT     H223559   3.271   0.252   5.069
 7773WAT      O23560   9.525   3.180   1.777
 7773WAT     H123561   9.501   3.085   1.760
 7773WAT     H223562   9.565   3.189   1.868
 7774WAT      O23563   0.169   1.723   3.160
 7774WAT     H123564   0.237   1.786   3.199
 7774WAT     H223565   0.083   1.731   3.211
 7775WAT      O23566   3.955   1.800   7.148
 7775WAT     H123567   3.876   1.772   7.203
 7775WAT     H223568   4.038   1.764   7.190
 7776WAT      O23569   6.718   3.619   9.401
 7776WAT     H123570   6.659   3.605   9.480
 7776WAT     H223571   6.741   3.716   9.393
 7777WAT      O23572   9.296   0.457   7.445
 7777WAT     H123573   9.341   0.535   7.489
 7777WAT     H223574   9.209   0.488   7.404
 7778WAT      O23575   1.542   7.151   2.961
 7778WAT     H123576   1.557   7.229   3.022
 7778WAT     H223577   1.481   7.086   3.005
 7779WAT      O23578   6.807   7.762   1.062
 7779WAT     H123579   6.819   7.669   1.027
 7779WAT     H223580   6.876   7.821   1.021
 7780WAT      O23581   6.515   5.500   1.416
 7780WAT     H123582   6.442   5.569   1.422
 7780WAT     H223583   6.528   5.473   1.321
 7781WAT      O23584   2.414   8.826   3.535
 7781WAT     H123585   2.441   8.873   3.619
 7781WAT     H223586   2.485   8.760   3.509
 7782WAT      O23587   0.287   5.911   6.522
 7782WAT     H123588   0.362   5.872   6.469
 7782WAT     H223589   0.273   5.857   6.605
 7783WAT      O23590   8.777   9.521   0.786
 7783WAT     H123591   8.683   9.506   0.757
 7783WAT     H223592   8.796   9.466   0.867
 7784WAT      O23593   3.879   8.093   8.835
 7784WAT     H123594   3.913   8.178   8.793
 7784WAT     H223595   3.796   8.112   8.887
 7785WAT      O23596   2.281   2.356   5.667
 7785WAT     H123597   2.204   2.412   5.699
 7785WAT     H223598   2.245   2.273   5.623
 7786WAT      O23599   5.716   2.618   8.949
 7786WAT     H123600   5.789   2.657   8.893
 7786WAT     H223601   5.628   2.632   8.904
 7787WAT      O23602   8.501   4.842   2.636
 7787WAT     H123603   8.524   4.785   2.558
 7787WAT     H223604   8.519   4.792   2.721
 7788WAT      O23605   5.309   5.867   3.407
 7788WAT     H123606   5.244   5.927   3.454
 7788WAT     H223607   5.357   5.811   3.474
 7789WAT      O23608   9.320   4.298   2.282
 7789WAT     H123609   9.361   4.239   2.351
 7789WAT     H223610   9.342   4.262   2.191
 7790WAT      O23611   8.606   9.416   8.595
 7790WAT     H123612   8.592   9.321   8.565
 7790WAT     H223613   8.595   9.421   8.695
 7791WAT      O23614   7.617   6.376   9.569
 7791WAT     H123615   7.607   6.468   9.531
 7791WAT     H223616   7.536   6.321   9.549
 7792WAT      O23617   0.408   2.503   3.847
 7792WAT     H123618   0.440   2.455   3.928
 7792WAT     H223619   0.315   2.535   3.860
 7793WAT      O23620   4.429   0.190   1.905
 7793WAT     H123621   4.389   0.227   1.822
 7793WAT     H223622   4.489   0.113   1.882
 7794WAT      O23623   6.565   9.598   7.648
 7794WAT     H123624   6.571   9.688   7.690
 7794WAT     H223625   6.636   9.588   7.578
 7795WAT      O23626   6.160   0.357   2.746
 7795WAT     H123627   6.111   0.431   2.700
 7795WAT     H223628   6.136   0.269   2.704
 7796WAT      O23629   9.531   7.421   2.232
 7796WAT     H123630   9.557   7.454   2.141
 7796WAT     H223631   9.611   7.425   2.292
 7797WAT      O23632   8.333   6.334   7.150
 7797WAT     H123633   8.417   6.366   7.194
 7797WAT     H223634   8.304   6.402   7.083
 7798WAT      O23635   7.727   8.762   6.710
 7798WAT     H123636   7.701   8.783   6.616
 7798WAT     H223637   7.762   8.669   6.716
 7799WAT      O23638   4.736   3.806   2.037
 7799WAT     H123639   4.740   3.839   1.943
 7799WAT     H223640   4.766   3.711   2.040
 7800WAT      O23641   2.802   4.923   0.255
 7800WAT     H123642   2.796   5.007   0.310
 7800WAT     H223643   2.862   4.939   0.177
 7801WAT      O23644   7.992   8.110   6.859
 7801WAT     H123645   7.912   8.149   6.905
 7801WAT     H223646   8.027   8.033   6.912
 7802WAT      O23647   6.852   9.225   6.031
 7802WAT     H123648   6.888   9.314   6.001
 7802WAT     H223649   6.783   9.240   6.102
 7803WAT      O23650   4.999   7.850   4.781
 7803WAT     H123651   5.074   7.787   4.760
 7803WAT     H223652   5.037   7.936   4.816
 7804WAT      O23653   9.698   2.855   5.164
 7804WAT     H123654   9.643   2.849   5.247
 7804WAT     H223655   9.673   2.780   5.103
 7805WAT      O23656   2.493   6.602   9.255
 7805WAT     H123657   2.475   6.660   9.334
 7805WAT     H223658   2.588   6.571   9.257
 7806WAT      O23659   5.351   7.451   6.046
 7806WAT     H123660   5.367   7.536   6.095
 7806WAT     H223661   5.339   7.376   6.112
 7807WAT      O23662   0.570   4.895   4.038
 7807WAT     H123663   0.597   4.805   4.003
 7807WAT     H223664   0.635   4.924   4.108
 7808WAT      O23665   6.908   7.897   0.563
 7808WAT     H123666   6.927   7.898   0.465
 7808WAT     H223667   6.897   7.803   0.594
 7809WAT      O23668   1.447   2.862   5.455
 7809WAT     H123669   1.489   2.944   5.415
 7809WAT     H223670   1.518   2.794   5.471
 7810WAT      O23671   0.251   2.311   0.546
 7810WAT     H123672   0.303   2.395   0.562
 7810WAT     H223673   0.174   2.306   0.609
 7811WAT      O23674   3.750   7.308   2.191
 7811WAT     H123675   3.693   7.249   2.133
 7811WAT     H223676   3.825   7.345   2.136
 7812WAT      O23677   9.457   8.025   3.332
 7812WAT     H123678   9.437   8.068   3.244
 7812WAT     H223679   9.556   8.008   3.339
 7813WAT      O23680   0.407   0.885   1.719
 7813WAT     H123681   0.412   0.798   1.670
 7813WAT     H223682   0.439   0.872   1.813
 7814WAT      O23683   7.393   5.701   6.772
 7814WAT     H123684   7.488   5.682   6.750
 7814WAT     H223685   7.367   5.654   6.856
 7815WAT      O23686   4.682   4.647   9.385
 7815WAT     H123687   4.669   4.628   9.483
 7815WAT     H223688   4.730   4.734   9.374
 7816WAT      O23689   5.926   0.458   5.432
 7816WAT     H123690   5.993   0.402   5.381
 7816WAT     H223691   5.918   0.423   5.525
 7817WAT      O23692   1.575   1.364   3.305
 7817WAT     H123693   1.475   1.369   3.297
 7817WAT     H223694   1.604   1.411   3.389
 7818WAT      O23695   2.746   3.737   5.085
 7818WAT     H123696   2.771   3.831   5.061
 7818WAT     H223697   2.647   3.727   5.081
 7819WAT      O23698   7.985   9.262   6.426
 7819WAT     H123699   8.029   9.196   6.364
 7819WAT     H223700   8.038   9.347   6.427
 7820WAT      O23701   0.463   2.103   9.018
 7820WAT     H123702   0.419   2.113   9.107
 7820WAT     H223703   0.436   2.016   8.977
 7821WAT      O23704   7.188   6.189   4.925
 7821WAT     H123705   7.121   6.199   4.852
 7821WAT     H223706   7.170   6.257   4.997
 7822WAT      O23707   6.725   8.289   3.025
 7822WAT     H123708   6.653   8.280   2.955
 7822WAT     H223709   6.723   8.209   3.085
 7823WAT      O23710   5.937   2.490   0.341
 7823WAT     H123711   5.838   2.490   0.324
 7823WAT     H223712   5.973   2.582   0.327
 7824WAT      O23713   5.150   3.849   1.915
 7824WAT     H123714   5.136   3.948   1.915
 7824WAT     H223715   5.225   3.826   1.978
 7825WAT      O23716   3.947   9.308   8.167
 7825WAT     H123717   3.988   9.307   8.076
 7825WAT     H223718   3.850   9.283   8.160
 7826WAT      O23719   1.486   7.963   5.443
 7826WAT     H123720   1.562   7.899   5.438
 7826WAT     H223721   1.474   8.009   5.355
 7827WAT      O23722   5.535   1.889   4.343
 7827WAT     H123723   5.577   1.948   4.412
 7827WAT     H223724   5.487   1.814   4.389
 7828WAT      O23725   8.402   2.202   0.247
 7828WAT     H123726   8.466   2.127   0.263
 7828WAT     H223727   8.316   2.165   0.211
 7829WAT      O23728   6.469   2.174   3.713
 7829WAT     H123729   6.475   2.214   3.621
 7829WAT     H223730   6.402   2.100   3.713
 7830WAT      O23731   6.475   7.118   6.220
 7830WAT     H123732   6.472   7.021   6.245
 7830WAT     H223733   6.388   7.161   6.243
 7831WAT      O23734   4.585   9.512   5.979
 7831WAT     H123735   4.677   9.490   6.010
 7831WAT     H223736   4.520   9.445   6.015
 7832WAT      O23737   0.192   7.918   8.195
 7832WAT     H123738   0.094   7.936   8.196
 7832WAT     H223739   0.218   7.871   8.280
 7833WAT      O23740   0.859   5.265   9.575
 7833WAT     H123741   0.844   5.302   9.484
 7833WAT     H223742   0.942   5.304   9.614
 7834WAT      O23743   2.460   1.118   4.516
 7834WAT     H123744   2.467   1.218   4.508
 7834WAT     H223745   2.480   1.076   4.428
 7835WAT      O23746   3.274   1.123   9.558
 7835WAT     H123747   3.274   1.057   9.483
 7835WAT     H223748   3.313   1.080   9.640
 7836WAT      O23749   1.380   1.601   9.573
 7836WAT     H123750   1.309   1.544   9.614
 7836WAT     H223751   1.400   1.569   9.481
 7837WAT      O23752   9.783   3.008   6.930
 7837WAT     H123753   9.788   3.104   6.957
 7837WAT     H223754   9.874   2.968   6.931
 7838WAT      O23755   2.335   2.375   0.683
 7838WAT     H123756   2.271   2.425   0.624
 7838WAT     H223757   2.336   2.418   0.774
 7839WAT      O23758   2.829   0.848   6.095
 7839WAT     H123759   2.772   0.816   6.020
 7839WAT     H223760   2.861   0.941   6.076
 7840WAT      O23761   0.160   9.275   6.147
 7840WAT     H123762   0.192   9.303   6.237
 7840WAT     H223763   0.238   9.262   6.086
 7841WAT      O23764   3.277   5.108   0.651
 7841WAT     H123765   3.184   5.088   0.682
 7841WAT     H223766   3.284   5.089   0.553
 7842WAT      O23767   2.890   4.255   2.284
 7842WAT     H123768   2.894   4.171   2.338
 7842WAT     H223769   2.948   4.325   2.327
 7843WAT      O23770   2.555   1.751   9.726
 7843WAT     H123771   2.498   1.697   9.788
 7843WAT     H223772   2.541   1.719   9.632
 7844WAT      O23773   1.793   1.599   9.743
 7844WAT     H123774   1.779   1.623   9.647
 7844WAT     H223775   1.713   1.548   9.777
 7845WAT      O23776   3.420   4.378   9.729
 7845WAT     H123777   3.410   4.279   9.717
 7845WAT     H223778   3.455   4.418   9.644
 7846WAT      O23779   5.629   9.344   5.615
 7846WAT     H123780   5.555   9.287   5.650
 7846WAT     H223781   5.645   9.321   5.519
 7847WAT      O23782   8.230   4.137   6.918
 7847WAT     H123783   8.136   4.104   6.925
 7847WAT     H223784   8.288   4.064   6.881
 7848WAT      O23785   6.166   8.512   9.477
 7848WAT     H123786   6.187   8.595   9.426
 7848WAT     H223787   6.068   8.508   9.496
 7849WAT      O23788   7.539   3.128   3.395
 7849WAT     H123789   7.521   3.059   3.464
 7849WAT     H223790   7.637   3.149   3.393
 7850WAT      O23791   3.061   5.581   6.535
 7850WAT     H123792   3.037   5.671   6.571
 7850WAT     H223793   3.098   5.525   6.608
 7851WAT      O23794   9.346   3.397   0.796
 7851WAT     H123795   9.336   3.493   0.819
 7851WAT     H223796   9.318   3.383   0.701
 7852WAT      O23797   0.801   4.561   9.537
 7852WAT     H123798   0.861   4.579   9.615
 7852WAT     H223799   0.719   4.513   9.568
 7853WAT      O23800   6.664   7.421   1.423
 7853WAT     H123801   6.735   7.482   1.390
 7853WAT     H223802   6.675   7.330   1.382
 7854WAT      O23803   0.196   1.412   0.098
 7854WAT     H123804   0.288   1.384   0.127
 7854WAT     H223805   0.128   1.354   0.142
 7855WAT      O23806   7.277   8.196   6.514
 7855WAT     H123807   7.300   8.280   6.465
 7855WAT     H223808   7.241   8.128   6.450
 7856WAT      O23809   1.602   2.166   2.146
 7856WAT     H123810   1.559   2.202   2.229
 7856WAT     H223811   1.701   2.163   2.158
 7857WAT      O23812   3.378   1.991   3.621
 7857WAT     H123813   3.432   2.074   3.608
 7857WAT     H223814   3.431   1.911   3.594
 7858WAT      O23815   0.328   8.047   6.517
 7858WAT     H123816   0.313   8.057   6.615
 7858WAT     H223817   0.252   8.087   6.467
 7859WAT      O23818   9.018   4.978   6.989
 7859WAT     H123819   8.972   4.996   7.076
 7859WAT     H223820   9.085   4.905   7.001
 7860WAT      O23821   7.855   3.354   5.912
 7860WAT     H123822   7.824   3.445   5.884
 7860WAT     H223823   7.845   3.290   5.836
 7861WAT      O23824   7.006   9.334   6.912
 7861WAT     H123825   7.033   9.355   7.006
 7861WAT     H223826   6.906   9.339   6.904
 7862WAT      O23827   7.607   5.626   4.621
 7862WAT     H123828   7.557   5.639   4.536
 7862WAT     H223829   7.706   5.630   4.603
 7863WAT      O23830   0.184   1.146   9.848
 7863WAT     H123831   0.167   1.132   9.945
 7863WAT     H223832   0.282   1.156   9.832
 7864WAT      O23833   6.567   1.223   7.779
 7864WAT     H123834   6.550   1.137   7.829
 7864WAT     H223835   6.665   1.244   7.782
 7865WAT      O23836   2.318   8.807   4.891
 7865WAT     H123837   2.234   8.755   4.878
 7865WAT     H223838   2.393   8.762   4.842
 7866WAT      O23839   8.586   0.605   5.709
 7866WAT     H123840   8.505   0.657   5.685
 7866WAT     H223841   8.563   0.508   5.720
 7867WAT      O23842   0.064   8.260   4.540
 7867WAT     H123843   0.088   8.265   4.443
 7867WAT     H223844   0.056   8.164   4.567
 7868WAT      O23845   9.561   4.883   7.368
 7868WAT     H123846   9.629   4.833   7.420
 7868WAT     H223847   9.588   4.979   7.360
 7869WAT      O23848   7.500   6.948   6.006
 7869WAT     H123849   7.569   7.013   6.037
 7869WAT     H223850   7.462   6.978   5.919
 7870WAT      O23851   6.255   8.197   6.273
 7870WAT     H123852   6.274   8.100   6.285
 7870WAT     H223853   6.233   8.238   6.362
 7871WAT      O23854   4.279   8.263   2.878
 7871WAT     H123855   4.326   8.350   2.892
 7871WAT     H223856   4.254   8.253   2.782
 7872WAT      O23857   7.859   4.977   5.940
 7872WAT     H123858   7.935   4.944   5.883
 7872WAT     H223859   7.813   5.053   5.894
 7873WAT      O23860   0.558   6.235   7.271
 7873WAT     H123861   0.554   6.193   7.181
 7873WAT     H223862   0.625   6.187   7.328
 7874WAT      O23863   7.152   2.166   7.478
 7874WAT     H123864   7.157   2.149   7.380
 7874WAT     H223865   7.132   2.263   7.494
 7875WAT      O23866   9.607   6.982   3.379
 7875WAT     H123867   9.605   6.943   3.470
 7875WAT     H223868   9.536   6.940   3.322
 7876WAT      O23869   5.978   1.605   4.091
 7876WAT     H123870   5.964   1.694   4.134
 7876WAT     H223871   6.064   1.566   4.124
 7877WAT      O23872   3.416   0.586   8.610
 7877WAT     H123873   3.362   0.506   8.635
 7877WAT     H223874   3.358   0.667   8.614
 7878WAT      O23875   7.105   7.031   9.886
 7878WAT     H123876   7.119   6.934   9.869
 7878WAT     H223877   7.027   7.064   9.832
 7879WAT      O23878   1.305   0.013   6.425
 7879WAT     H123879   1.347  -0.073   6.450
 7879WAT     H223880   1.211  -0.003   6.396
 7880WAT      O23881   8.939   5.910   0.370
 7880WAT     H123882   9.000   5.953   0.437
 7880WAT     H223883   8.849   5.896   0.411
 7881WAT      O23884   4.709   6.895   5.751
 7881WAT     H123885   4.687   6.946   5.668
 7881WAT     H223886   4.627   6.849   5.786
 7882WAT      O23887   1.092   9.735   4.617
 7882WAT     H123888   1.005   9.763   4.658
 7882WAT     H223889   1.160   9.721   4.689
 7883WAT      O23890   0.943   1.922   9.695
 7883WAT     H123891   0.892   1.860   9.754
 7883WAT     H223892   0.881   1.969   9.632
 7884WAT      O23893   8.524   6.260   9.341
 7884WAT     H123894   8.501   6.162   9.348
 7884WAT     H223895   8.443   6.314   9.365
 7885WAT      O23896   8.544   4.364   6.298
 7885WAT     H123897   8.618   4.365   6.366
 7885WAT     H223898   8.501   4.274   6.297
 7886WAT      O23899   2.186   6.621   8.455
 7886WAT     H123900   2.158   6.684   8.383
 7886WAT     H223901   2.263   6.565   8.423
 7887WAT      O23902   4.608   0.116   1.356
 7887WAT     H123903   4.511   0.135   1.342
 7887WAT     H223904   4.620   0.019   1.376
 7888WAT      O23905   7.688   5.139   0.140
 7888WAT     H123906   7.736   5.221   0.108
 7888WAT     H223907   7.751   5.079   0.188
 7889WAT      O23908   6.663   3.985   8.569
 7889WAT     H123909   6.639   4.068   8.620
 7889WAT     H223910   6.602   3.974   8.491
 7890WAT      O23911   0.351   3.319   4.560
 7890WAT     H123912   0.401   3.243   4.602
 7890WAT     H223913   0.258   3.322   4.596
 7891WAT      O23914   0.696   5.500   1.406
 7891WAT     H123915   0.678   5.451   1.491
 7891WAT     H223916   0.610   5.517   1.358
 7892WAT      O23917   2.196   0.091   6.216
 7892WAT     H123918   2.154   0.061   6.302
 7892WAT     H223919   2.269   0.026   6.192
 7893WAT      O23920   3.647   6.073   1.310
 7893WAT     H123921   3.600   6.088   1.223
 7893WAT     H223922   3.580   6.076   1.384
 7894WAT      O23923   3.067   6.673   2.300
 7894WAT     H123924   3.043   6.639   2.209
 7894WAT     H223925   3.164   6.659   2.317
 7895WAT      O23926   6.451   8.859   0.259
 7895WAT     H123927   6.488   8.939   0.212
 7895WAT     H223928   6.505   8.841   0.342
 7896WAT      O23929   6.184   3.550   3.634
 7896WAT     H123930   6.120   3.539   3.710
 7896WAT     H223931   6.239   3.467   3.624
 7897WAT      O23932   1.445   4.445   3.649
 7897WAT     H123933   1.416   4.496   3.730
 7897WAT     H223934   1.492   4.507   3.586
 7898WAT      O23935   2.471   6.176   3.846
 7898WAT     H123936   2.443   6.176   3.750
 7898WAT     H223937   2.567   6.202   3.853
 7899WAT      O23938   2.840   5.705   7.775
 7899WAT     H123939   2.800   5.660   7.855
 7899WAT     H223940   2.926   5.660   7.751
 7900WAT      O23941   1.004   8.374   3.479
 7900WAT     H123942   1.021   8.435   3.557
 7900WAT     H223943   1.052   8.409   3.398
 7901WAT      O23944   2.699   3.258   4.322
 7901WAT     H123945   2.758   3.336   4.345
 7901WAT     H223946   2.738   3.174   4.361
 7902WAT      O23947   8.149   8.082   8.109
 7902WAT     H123948   8.087   8.098   8.186
 7902WAT     H223949   8.111   8.010   8.050
 7903WAT      O23950   5.878   6.269   1.715
 7903WAT     H123951   5.914   6.269   1.622
 7903WAT     H223952   5.939   6.320   1.775
 7904WAT      O23953   2.966   3.830   4.709
 7904WAT     H123954   3.064   3.814   4.722
 7904WAT     H223955   2.916   3.745   4.727
 7905WAT      O23956   2.140   4.679   9.149
 7905WAT     H123957   2.204   4.678   9.072
 7905WAT     H223958   2.053   4.638   9.120
 7906WAT      O23959   9.021   9.253   2.603
 7906WAT     H123960   8.980   9.313   2.534
 7906WAT     H223961   8.949   9.215   2.662
 7907WAT      O23962   9.537   3.581   5.116
 7907WAT     H123963   9.555   3.490   5.080
 7907WAT     H223964   9.536   3.647   5.042
 7908WAT      O23965   6.522   8.971   6.708
 7908WAT     H123966   6.542   8.875   6.686
 7908WAT     H223967   6.569   8.996   6.793
 7909WAT      O23968   1.361   1.912   5.493
 7909WAT     H123969   1.403   2.002   5.478
 7909WAT     H223970   1.325   1.908   5.586
 7910WAT      O23971   8.554   4.250   8.193
 7910WAT     H123972   8.502   4.225   8.275
 7910WAT     H223973   8.534   4.185   8.120
 7911WAT      O23974   6.932   0.396   5.880
 7911WAT     H123975   6.942   0.297   5.895
 7911WAT     H223976   6.853   0.412   5.820
 7912WAT      O23977   3.515   3.363   7.892
 7912WAT     H123978   3.528   3.401   7.800
 7912WAT     H223979   3.432   3.401   7.932
 7913WAT      O23980   7.760   2.608   0.020
 7913WAT     H123981   7.703   2.554   0.082
 7913WAT     H223982   7.702   2.672  -0.031
 7914WAT      O23983   8.115   3.575   6.222
 7914WAT     H123984   8.110   3.546   6.318
 7914WAT     H223985   8.152   3.501   6.166
 7915WAT      O23986   5.821   3.814   8.721
 7915WAT     H123987   5.722   3.820   8.709
 7915WAT     H223988   5.856   3.737   8.668
 7916WAT      O23989   1.815   8.487   8.490
 7916WAT     H123990   1.755   8.460   8.415
 7916WAT     H223991   1.785   8.576   8.525
 7917WAT      O23992   4.484   7.326   9.456
 7917WAT     H123993   4.445   7.382   9.382
 7917WAT     H223994   4.471   7.229   9.434
 7918WAT      O23995   2.684   2.699   0.646
 7918WAT     H123996   2.635   2.750   0.576
 7918WAT     H223997   2.708   2.608   0.610
 7919WAT      O23998   6.296   2.993   1.503
 7919WAT     H123999   6.253   2.919   1.452
 7919WAT     H224000   6.235   3.023   1.576
 7920WAT      O24001   2.709   2.694   5.206
 7920WAT     H124002   2.729   2.642   5.123
 7920WAT     H224003   2.692   2.630   5.282
 7921WAT      O24004   6.182   4.383   1.229
 7921WAT     H124005   6.214   4.458   1.171
 7921WAT     H224006   6.131   4.421   1.306
 7922WAT      O24007   7.225   5.871   8.321
 7922WAT     H124008   7.287   5.950   8.325
 7922WAT     H224009   7.136   5.899   8.287
 7923WAT      O24010   0.430   7.833   3.542
 7923WAT     H124011   0.460   7.745   3.578
 7923WAT     H224012   0.472   7.907   3.594
 7924WAT      O24013   5.306   2.969   7.638
 7924WAT     H124014   5.258   3.033   7.579
 7924WAT     H224015   5.403   2.991   7.641
 7925WAT      O24016   8.860   5.701   9.440
 7925WAT     H124017   8.940   5.651   9.407
 7925WAT     H224018   8.806   5.642   9.500
 7926WAT      O24019   5.596   5.272   0.344
 7926WAT     H124020   5.619   5.351   0.401
 7926WAT     H224021   5.652   5.194   0.371
 7927WAT      O24022   9.196   6.359   6.982
 7927WAT     H124023   9.181   6.273   7.031
 7927WAT     H224024   9.141   6.361   6.899
 7928WAT      O24025   4.204   8.524   8.603
 7928WAT     H124026   4.219   8.464   8.682
 7928WAT     H224027   4.253   8.610   8.616
 7929WAT      O24028   3.516   8.893   0.848
 7929WAT     H124029   3.574   8.812   0.838
 7929WAT     H224030   3.421   8.864   0.860
 7930WAT      O24031   5.167   5.701   5.748
 7930WAT     H124032   5.070   5.687   5.727
 7930WAT     H224033   5.202   5.778   5.696
 7931WAT      O24034   6.764   3.957   1.236
 7931WAT     H124035   6.702   3.971   1.314
 7931WAT     H224036   6.848   3.914   1.269
 7932WAT      O24037   8.555   7.860   1.063
 7932WAT     H124038   8.587   7.893   1.152
 7932WAT     H224039   8.469   7.810   1.075
 7933WAT      O24040   4.772   0.313   3.849
 7933WAT     H124041   4.734   0.265   3.771
 7933WAT     H224042   4.862   0.350   3.826
 7934WAT      O24043   2.756   6.823   9.262
 7934WAT     H124044   2.791   6.778   9.179
 7934WAT     H224045   2.720   6.913   9.239
 7935WAT      O24046   9.175   5.682   2.057
 7935WAT     H124047   9.199   5.777   2.080
 7935WAT     H224048   9.142   5.635   2.139
 7936WAT      O24049   4.880   4.216   6.071
 7936WAT     H124050   4.861   4.297   6.017
 7936WAT     H224051   4.855   4.134   6.019
 7937WAT      O24052   0.488   2.331   8.642
 7937WAT     H124053   0.485   2.261   8.571
 7937WAT     H224054   0.430   2.303   8.718
 7938WAT      O24055   0.600   4.516   2.492
 7938WAT     H124056   0.586   4.595   2.431
 7938WAT     H224057   0.692   4.479   2.478
 7939WAT      O24058   8.889   8.855   6.962
 7939WAT     H124059   8.909   8.862   6.864
 7939WAT     H224060   8.814   8.790   6.976
 7940WAT      O24061   6.729   2.204   5.071
 7940WAT     H124062   6.800   2.204   5.141
 7940WAT     H224063   6.723   2.112   5.031
 7941WAT      O24064   2.099   4.302   6.023
 7941WAT     H124065   2.130   4.393   5.994
 7941WAT     H224066   2.178   4.243   6.036
 7942WAT      O24067   8.160   5.865   2.393
 7942WAT     H124068   8.177   5.786   2.452
 7942WAT     H224069   8.244   5.919   2.384
 7943WAT      O24070   2.543   6.193   9.296
 7943WAT     H124071   2.643   6.186   9.296
 7943WAT     H224072   2.515   6.268   9.356
 7944WAT      O24073   8.869   4.926   2.936
 7944WAT     H124074   8.861   4.943   3.034
 7944WAT     H224075   8.841   5.008   2.885
 7945WAT      O24076   3.259   5.055   7.645
 7945WAT     H124077   3.245   5.146   7.606
 7945WAT     H224078   3.328   5.059   7.718
 7946WAT      O24079   9.034   8.246   7.500
 7946WAT     H124080   9.123   8.288   7.515
 7946WAT     H224081   8.963   8.315   7.505
 7947WAT      O24082   6.140   3.063   7.995
 7947WAT     H124083   6.142   3.030   7.901
 7947WAT     H224084   6.231   3.094   8.022
 7948WAT      O24085   6.684   5.436   2.959
 7948WAT     H124086   6.768   5.407   3.005
 7948WAT     H224087   6.605   5.401   3.010
 7949WAT      O24088   4.456   5.505   7.840
 7949WAT     H124089   4.453   5.589   7.787
 7949WAT     H224090   4.513   5.518   7.921
 7950WAT      O24091   9.747   6.533   7.477
 7950WAT     H124092   9.770   6.590   7.398
 7950WAT     H224093   9.662   6.565   7.517
 7951WAT      O24094   3.875   3.184   4.869
 7951WAT     H124095   3.801   3.196   4.936
 7951WAT     H224096   3.924   3.100   4.888
 7952WAT      O24097   4.448   7.438   0.080
 7952WAT     H124098   4.447   7.500   0.001
 7952WAT     H224099   4.418   7.347   0.051
 7953WAT      O24100   2.311   9.522   3.595
 7953WAT     H124101   2.391   9.521   3.656
 7953WAT     H224102   2.340   9.496   3.503
 7954WAT      O24103   0.525   0.790   2.375
 7954WAT     H124104   0.533   0.723   2.301
 7954WAT     H224105   0.608   0.789   2.430
 7955WAT      O24106   0.877   1.481   2.904
 7955WAT     H124107   0.833   1.445   2.986
 7955WAT     H224108   0.807   1.523   2.845
 7956WAT      O24109   3.271   3.816   5.921
 7956WAT     H124110   3.209   3.740   5.898
 7956WAT     H224111   3.247   3.895   5.865
 7957WAT      O24112   7.063   2.489   2.454
 7957WAT     H124113   7.015   2.438   2.525
 7957WAT     H224114   7.162   2.481   2.468
 7958WAT      O24115   3.049   7.660   1.391
 7958WAT     H124116   3.051   7.754   1.356
 7958WAT     H224117   3.114   7.604   1.340
 7959WAT      O24118   4.854   0.642   5.955
 7959WAT     H124119   4.920   0.679   5.890
 7959WAT     H224120   4.766   0.626   5.909
 7960WAT      O24121   3.041   0.078   1.243
 7960WAT     H124122   3.057  -0.018   1.221
 7960WAT     H224123   3.116   0.113   1.298
 7961WAT      O24124   2.475   0.609   8.332
 7961WAT     H124125   2.557   0.641   8.378
 7961WAT     H224126   2.468   0.653   8.242
 7962WAT      O24127   5.553   1.426   4.751
 7962WAT     H124128   5.492   1.442   4.674
 7962WAT     H224129   5.643   1.398   4.717
 7963WAT      O24130   9.675   2.922   1.866
 7963WAT     H124131   9.597   2.899   1.808
 7963WAT     H224132   9.736   2.843   1.873
 7964WAT      O24133   8.255   5.270   1.404
 7964WAT     H124134   8.271   5.270   1.503
 7964WAT     H224135   8.311   5.199   1.362
 7965WAT      O24136   8.240   5.597   3.806
 7965WAT     H124137   8.324   5.542   3.803
 7965WAT     H224138   8.261   5.691   3.779
 7966WAT      O24139   7.226   2.041   2.513
 7966WAT     H124140   7.234   2.089   2.426
 7966WAT     H224141   7.130   2.030   2.536
 7967WAT      O24142   4.390   8.808   9.797
 7967WAT     H124143   4.488   8.803   9.778
 7967WAT     H224144   4.339   8.782   9.715
 7968WAT      O24145   1.331   8.430   1.552
 7968WAT     H124146   1.256   8.459   1.493
 7968WAT     H224147   1.343   8.331   1.545
 7969WAT      O24148   1.812   2.021   2.787
 7969WAT     H124149   1.739   1.962   2.822
 7969WAT     H224150   1.777   2.076   2.711
 7970WAT      O24151   8.720   5.055   8.274
 7970WAT     H124152   8.666   4.986   8.225
 7970WAT     H224153   8.666   5.092   8.350
 7971WAT      O24154   3.020   6.703   9.047
 7971WAT     H124155   3.087   6.630   9.048
 7971WAT     H224156   2.928   6.664   9.055
 7972WAT      O24157   3.390   6.240   6.474
 7972WAT     H124158   3.320   6.291   6.424
 7972WAT     H224159   3.429   6.298   6.546
 7973WAT      O24160   9.491   5.175   5.120
 7973WAT     H124161   9.413   5.227   5.155
 7973WAT     H224162   9.518   5.212   5.032
 7974WAT      O24163   4.586   4.227   2.434
 7974WAT     H124164   4.519   4.298   2.454
 7974WAT     H224165   4.544   4.137   2.446
 7975WAT      O24166   3.818   8.404   7.853
 7975WAT     H124167   3.800   8.479   7.917
 7975WAT     H224168   3.902   8.425   7.802
 7976WAT      O24169   7.460   8.649   4.780
 7976WAT     H124170   7.463   8.565   4.833
 7976WAT     H224171   7.514   8.637   4.696
 7977WAT      O24172   0.489   3.143   1.185
 7977WAT     H124173   0.427   3.219   1.199
 7977WAT     H224174   0.444   3.057   1.210
 7978WAT      O24175   1.794   2.445   9.874
 7978WAT     H124176   1.860   2.520   9.878
 7978WAT     H224177   1.759   2.427   9.966
 7979WAT      O24178   9.813   7.918   9.608
 7979WAT     H124179   9.791   8.016   9.607
 7979WAT     H224180   9.860   7.896   9.693
 7980WAT      O24181   3.592   7.136   2.020
 7980WAT     H124182   3.643   7.133   1.935
 7980WAT     H224183   3.599   7.047   2.066
 7981WAT      O24184   2.581   0.282   3.463
 7981WAT     H124185   2.565   0.367   3.414
 7981WAT     H224186   2.532   0.207   3.418
 7982WAT      O24187   3.725   4.488   7.613
 7982WAT     H124188   3.638   4.460   7.573
 7982WAT     H224189   3.786   4.410   7.618
 7983WAT      O24190   3.279   5.988   6.472
 7983WAT     H124191   3.301   6.082   6.444
 7983WAT     H224192   3.272   5.985   6.571
 7984WAT      O24193   5.539   3.978   4.213
 7984WAT     H124194   5.539   4.064   4.163
 7984WAT     H224195   5.457   3.925   4.189
 7985WAT      O24196   0.750   6.894   8.825
 7985WAT     H124197   0.794   6.812   8.862
 7985WAT     H224198   0.813   6.971   8.833
 7986WAT      O24199   0.615   1.657   8.367
 7986WAT     H124200   0.626   1.575   8.424
 7986WAT     H224201   0.540   1.643   8.303
 7987WAT      O24202   3.072   1.335   1.956
 7987WAT     H124203   3.019   1.363   1.876
 7987WAT     H224204   3.014   1.340   2.037
 7988WAT      O24205   5.289   2.992   8.147
 7988WAT     H124206   5.219   3.058   8.174
 7988WAT     H224207   5.343   3.030   8.072
 7989WAT      O24208   0.430   6.707   5.628
 7989WAT     H124209   0.455   6.803   5.614
 7989WAT     H224210   0.376   6.698   5.712
 7990WAT      O24211   3.352   4.280   8.861
 7990WAT     H124212   3.446   4.287   8.895
 7990WAT     H224213   3.302   4.213   8.916
 7991WAT      O24214   8.359   7.770   1.550
 7991WAT     H124215   8.322   7.680   1.526
 7991WAT     H224216   8.372   7.776   1.649
 7992WAT      O24217   4.029   6.942   2.886
 7992WAT     H124218   4.007   6.897   2.799
 7992WAT     H224219   4.056   6.874   2.953
 7993WAT      O24220   0.655   1.596   6.357
 7993WAT     H124221   0.586   1.546   6.306
 7993WAT     H224222   0.687   1.541   6.434
 7994WAT      O24223   4.660   7.798   9.596
 7994WAT     H124224   4.735   7.797   9.662
 7994WAT     H224225   4.670   7.720   9.534
 7995WAT      O24226   1.264   5.855   0.253
 7995WAT     H124227   1.341   5.878   0.193
 7995WAT     H224228   1.187   5.824   0.198
 7996WAT      O24229   0.607   8.244   0.266
 7996WAT     H124230   0.542   8.174   0.296
 7996WAT     H224231   0.644   8.292   0.346
 7997WAT      O24232   4.557   1.583   8.689
 7997WAT     H124233   4.642   1.626   8.719
 7997WAT     H224234   4.576   1.526   8.609
 7998WAT      O24235   0.800   6.949   9.641
 7998WAT     H124236   0.874   6.945   9.574
 7998WAT     H224237   0.839   6.948   9.734
 7999WAT      O24238   0.110   4.945   9.360
 7999WAT     H124239   0.010   4.943   9.364
 7999WAT     H224240   0.139   4.960   9.265
 8000WAT      O24241   9.708   1.060   5.828
 8000WAT     H124242   9.799   1.031   5.798
 8000WAT     H224243   9.684   1.011   5.912
 8001WAT      O24244   6.865   9.840   2.610
 8001WAT     H124245   6.865   9.740   2.612
 8001WAT     H224246   6.882   9.871   2.516
 8002WAT      O24247   8.871   8.790   5.889
 8002WAT     H124248   8.895   8.728   5.815
 8002WAT     H224249   8.772   8.793   5.899
 8003WAT      O24250   4.131   2.627   3.953
 8003WAT     H124251   4.132   2.709   4.012
 8003WAT     H224252   4.154   2.654   3.859
 8004WAT      O24253   8.209   0.214   5.672
 8004WAT     H124254   8.220   0.199   5.574
 8004WAT     H224255   8.172   0.306   5.688
 8005WAT      O24256   5.480   2.194   1.751
 8005WAT     H124257   5.495   2.211   1.654
 8005WAT     H224258   5.446   2.277   1.795
 8006WAT      O24259   9.612   9.056   2.945
 8006WAT     H124260   9.640   9.074   3.039
 8006WAT     H224261   9.630   8.960   2.923
 8007WAT      O24262   2.787   6.730   2.164
 8007WAT     H124263   2.861   6.689   2.110
 8007WAT     H224264   2.718   6.769   2.103
 8008WAT      O24265   6.032   5.791   9.712
 8008WAT     H124266   5.944   5.798   9.665
 8008WAT     H224267   6.023   5.729   9.790
 8009WAT      O24268   5.947   6.419   1.032
 8009WAT     H124269   5.885   6.380   0.963
 8009WAT     H224270   6.018   6.473   0.986
 8010WAT      O24271   4.084   2.717   8.132
 8010WAT     H124272   4.042   2.655   8.066
 8010WAT     H224273   4.032   2.716   8.217
 8011WAT      O24274   5.759   9.077   2.150
 8011WAT     H124275   5.707   9.018   2.212
 8011WAT     H224276   5.781   9.027   2.067
 8012WAT      O24277   4.625   6.996   8.357
 8012WAT     H124278   4.530   6.992   8.328
 8012WAT     H224279   4.683   7.018   8.279
 8013WAT      O24280   1.224   1.066   3.482
 8013WAT     H124281   1.148   1.045   3.420
 8013WAT     H224282   1.226   0.998   3.556
 8014WAT      O24283   2.780   7.150   8.948
 8014WAT     H124284   2.841   7.157   9.026
 8014WAT     H224285   2.687   7.175   8.975
 8015WAT      O24286   3.611   9.674   8.554
 8015WAT     H124287   3.593   9.695   8.650
 8015WAT     H224288   3.691   9.725   8.524
 8016WAT      O24289   9.701   7.263   5.634
 8016WAT     H124290   9.783   7.309   5.668
 8016WAT     H224291   9.620   7.311   5.669
 8017WAT      O24292   7.957   3.452   3.311
 8017WAT     H124293   7.931   3.548   3.301
 8017WAT     H224294   8.022   3.442   3.386
 8018WAT      O24295   0.630   2.288   0.353
 8018WAT     H124296   0.703   2.270   0.287
 8018WAT     H224297   0.550   2.232   0.331
 8019WAT      O24298   8.077   7.201   5.782
 8019WAT     H124299   8.046   7.136   5.851
 8019WAT     H224300   8.148   7.159   5.725
 8020WAT      O24301   7.506   5.328   4.105
 8020WAT     H124302   7.458   5.371   4.181
 8020WAT     H224303   7.593   5.291   4.138
 8021WAT      O24304   5.087   3.674   7.710
 8021WAT     H124305   5.113   3.693   7.615
 8021WAT     H224306   5.070   3.760   7.758
 8022WAT      O24307   8.957   1.560   5.809
 8022WAT     H124308   8.957   1.484   5.743
 8022WAT     H224309   8.902   1.535   5.888
 8023WAT      O24310   6.603   0.871   3.442
 8023WAT     H124311   6.612   0.831   3.533
 8023WAT     H224312   6.643   0.809   3.374
 8024WAT      O24313   3.653   2.720   6.578
 8024WAT     H124314   3.719   2.726   6.503
 8024WAT     H224315   3.560   2.721   6.541
 8025WAT      O24316   7.732   3.636   2.977
 8025WAT     H124317   7.826   3.667   2.989
 8025WAT     H224318   7.724   3.541   3.007
 8026WAT      O24319   1.183   6.845   8.866
 8026WAT     H124320   1.141   6.931   8.836
 8026WAT     H224321   1.180   6.839   8.965
 8027WAT      O24322   3.745   9.028   8.537
 8027WAT     H124323   3.683   9.072   8.602
 8027WAT     H224324   3.731   8.929   8.540
 8028WAT      O24325   6.063   4.034   5.804
 8028WAT     H124326   6.049   4.128   5.775
 8028WAT     H224327   5.977   3.983   5.796
 8029WAT      O24328   7.357   6.079   7.596
 8029WAT     H124329   7.400   6.162   7.630
 8029WAT     H224330   7.259   6.081   7.618
 8030WAT      O24331   5.695   5.316   8.714
 8030WAT     H124332   5.620   5.337   8.776
 8030WAT     H224333   5.699   5.385   8.642
 8031WAT      O24334   4.028   1.561   4.010
 8031WAT     H124335   4.094   1.491   4.039
 8031WAT     H224336   4.026   1.635   4.076
 8032WAT      O24337   0.255   0.950   5.035
 8032WAT     H124338   0.215   0.866   5.071
 8032WAT     H224339   0.182   1.015   5.016
 8033WAT      O24340   8.694   2.326   4.544
 8033WAT     H124341   8.684   2.425   4.544
 8033WAT     H224342   8.770   2.300   4.603
 8034WAT      O24343   9.838   3.634   7.998
 8034WAT     H124344   9.774   3.686   7.942
 8034WAT     H224345   9.870   3.690   8.074
 8035WAT      O24346   2.129   6.653   2.651
 8035WAT     H124347   2.168   6.667   2.560
 8035WAT     H224348   2.203   6.640   2.717
 8036WAT      O24349   3.836   3.343   3.259
 8036WAT     H124350   3.891   3.426   3.270
 8036WAT     H224351   3.739   3.366   3.270
 8037WAT      O24352   5.083   7.338   5.259
 8037WAT     H124353   5.098   7.399   5.181
 8037WAT     H224354   5.040   7.253   5.227
 8038WAT      O24355   3.814   6.051   0.177
 8038WAT     H124356   3.743   6.121   0.163
 8038WAT     H224357   3.898   6.095   0.208
 8039WAT      O24358   3.332   0.791   3.164
 8039WAT     H124359   3.260   0.722   3.174
 8039WAT     H224360   3.292   0.877   3.132
 8040WAT      O24361   0.264   4.272   9.617
 8040WAT     H124362   0.306   4.362   9.602
 8040WAT     H224363   0.332   4.201   9.598
 8041WAT      O24364   9.005   6.024   6.939
 8041WAT     H124365   9.053   5.980   6.863
 8041WAT     H224366   9.070   6.074   6.995
 8042WAT      O24367   2.110   8.062   4.962
 8042WAT     H124368   2.196   8.109   4.944
 8042WAT     H224369   2.096   7.990   4.894
 8043WAT      O24370   1.195   3.748   4.407
 8043WAT     H124371   1.176   3.712   4.498
 8043WAT     H224372   1.285   3.793   4.407
 8044WAT      O24373   7.114   1.216   0.476
 8044WAT     H124374   7.148   1.163   0.398
 8044WAT     H224375   7.135   1.167   0.561
 8045WAT      O24376   6.302   3.976   4.389
 8045WAT     H124377   6.210   3.994   4.425
 8045WAT     H224378   6.321   3.878   4.395
 8046WAT      O24379   6.570   8.700   7.168
 8046WAT     H124380   6.603   8.731   7.257
 8046WAT     H224381   6.474   8.673   7.175
 8047WAT      O24382   2.585   5.416   6.530
 8047WAT     H124383   2.679   5.399   6.559
 8047WAT     H224384   2.575   5.512   6.503
 8048WAT      O24385   0.343   6.263   8.345
 8048WAT     H124386   0.266   6.248   8.407
 8048WAT     H224387   0.330   6.351   8.298
 8049WAT      O24388   8.975   3.894   9.686
 8049WAT     H124389   8.893   3.951   9.687
 8049WAT     H224390   9.024   3.908   9.600
 8050WAT      O24391   3.325   9.243   0.884
 8050WAT     H124392   3.421   9.215   0.879
 8050WAT     H224393   3.310   9.296   0.968
 8051WAT      O24394   4.406   2.269   1.214
 8051WAT     H124395   4.425   2.367   1.211
 8051WAT     H224396   4.490   2.220   1.240
 8052WAT      O24397   8.726   7.025   0.080
 8052WAT     H124398   8.811   7.025   0.133
 8052WAT     H224399   8.744   7.059  -0.012
 8053WAT      O24400   7.154   8.833   7.599
 8053WAT     H124401   7.122   8.911   7.652
 8053WAT     H224402   7.168   8.755   7.660
 8054WAT      O24403   5.607   0.146   2.288
 8054WAT     H124404   5.546   0.187   2.356
 8054WAT     H224405   5.643   0.217   2.228
 8055WAT      O24406   1.601   7.761   5.101
 8055WAT     H124407   1.651   7.792   5.182
 8055WAT     H224408   1.616   7.825   5.026
 8056WAT      O24409   6.593   4.227   8.710
 8056WAT     H124410   6.618   4.291   8.638
 8056WAT     H224411   6.604   4.271   8.800
 8057WAT      O24412   9.311   1.687   3.760
 8057WAT     H124413   9.245   1.643   3.820
 8057WAT     H224414   9.317   1.636   3.674
 8058WAT      O24415   1.969   1.120   8.174
 8058WAT     H124416   1.919   1.072   8.246
 8058WAT     H224417   1.949   1.078   8.085
 8059WAT      O24418   7.396   6.697   2.125
 8059WAT     H124419   7.321   6.656   2.176
 8059WAT     H224420   7.361   6.743   2.044
 8060WAT      O24421   3.356   9.641   1.035
 8060WAT     H124422   3.374   9.704   1.110
 8060WAT     H224423   3.284   9.679   0.976
 8061WAT      O24424   3.159   2.389   2.510
 8061WAT     H124425   3.204   2.301   2.523
 8061WAT     H224426   3.226   2.455   2.475
 8062WAT      O24427   2.160   1.343   7.318
 8062WAT     H124428   2.189   1.378   7.229
 8062WAT     H224429   2.100   1.410   7.362
 8063WAT      O24430   4.887   7.579   6.239
 8063WAT     H124431   4.818   7.629   6.187
 8063WAT     H224432   4.972   7.632   6.240
 8064WAT      O24433   1.332   6.442   8.164
 8064WAT     H124434   1.368   6.352   8.189
 8064WAT     H224435   1.238   6.451   8.196
 8065WAT      O24436   3.572   8.525   2.205
 8065WAT     H124437   3.502   8.490   2.267
 8065WAT     H224438   3.609   8.451   2.150
 8066WAT      O24439   0.603   2.197   3.943
 8066WAT     H124440   0.550   2.113   3.936
 8066WAT     H224441   0.701   2.175   3.945
 8067WAT      O24442   8.356   3.135   5.980
 8067WAT     H124443   8.296   3.090   5.914
 8067WAT     H224444   8.417   3.067   6.021
 8068WAT      O24445   8.789   1.240   5.898
 8068WAT     H124446   8.883   1.230   5.866
 8068WAT     H224447   8.785   1.312   5.967
 8069WAT      O24448   8.995   9.598   5.086
 8069WAT     H124449   9.046   9.565   5.006
 8069WAT     H224450   8.996   9.527   5.156
 8070WAT      O24451   9.488   7.821   6.400
 8070WAT     H124452   9.540   7.742   6.366
 8070WAT     H224453   9.551   7.887   6.441
 8071WAT      O24454   9.207   1.768   4.608
 8071WAT     H124455   9.193   1.867   4.606
 8071WAT     H224456   9.305   1.749   4.611
 8072WAT      O24457   3.526   5.936   4.819
 8072WAT     H124458   3.548   5.924   4.915
 8072WAT     H224459   3.541   6.032   4.793
 8073WAT      O24460   9.171   6.064   3.747
 8073WAT     H124461   9.214   6.069   3.656
 8073WAT     H224462   9.145   5.970   3.766
 8074WAT      O24463   7.631   7.177   1.097
 8074WAT     H124464   7.666   7.210   1.185
 8074WAT     H224465   7.542   7.220   1.078
 8075WAT      O24466   5.516   6.484   6.067
 8075WAT     H124467   5.481   6.406   6.119
 8075WAT     H224468   5.442   6.523   6.012
 8076WAT      O24469   5.055   3.153   7.264
 8076WAT     H124470   5.011   3.071   7.228
 8076WAT     H224471   5.150   3.157   7.234
 8077WAT      O24472   8.375   4.124   6.568
 8077WAT     H124473   8.316   4.050   6.600
 8077WAT     H224474   8.375   4.198   6.635
 8078WAT      O24475   6.191   1.325   8.285
 8078WAT     H124476   6.148   1.410   8.254
 8078WAT     H224477   6.122   1.268   8.330
 8079WAT      O24478   1.813   4.236   8.032
 8079WAT     H124479   1.860   4.166   7.978
 8079WAT     H224480   1.778   4.195   8.117
 8080WAT      O24481   0.559   1.293   1.644
 8080WAT     H124482   0.506   1.327   1.722
 8080WAT     H224483   0.499   1.288   1.563
 8081WAT      O24484   8.934   6.578   9.894
 8081WAT     H124485   8.959   6.615   9.805
 8081WAT     H224486   8.925   6.653   9.960
 8082WAT      O24487   1.907   3.682   2.845
 8082WAT     H124488   1.973   3.700   2.917
 8082WAT     H224489   1.861   3.595   2.862
 8083WAT      O24490   7.648   7.340   3.986
 8083WAT     H124491   7.657   7.438   4.005
 8083WAT     H224492   7.626   7.326   3.890
 8084WAT      O24493   8.241   7.319   2.129
 8084WAT     H124494   8.176   7.380   2.174
 8084WAT     H224495   8.198   7.277   2.049
 8085WAT      O24496   8.574   1.406   2.284
 8085WAT     H124497   8.582   1.372   2.191
 8085WAT     H224498   8.540   1.333   2.344
 8086WAT      O24499   5.034   6.132   2.486
 8086WAT     H124500   5.128   6.116   2.457
 8086WAT     H224501   4.972   6.110   2.410
 8087WAT      O24502   2.198   2.309   2.161
 8087WAT     H124503   2.184   2.363   2.245
 8087WAT     H224504   2.164   2.360   2.083
 8088WAT      O24505   9.412   7.417   5.436
 8088WAT     H124506   9.340   7.443   5.500
 8088WAT     H224507   9.468   7.498   5.414
 8089WAT      O24508   7.059   2.127   9.427
 8089WAT     H124509   6.974   2.137   9.374
 8089WAT     H224510   7.072   2.031   9.451
 8090WAT      O24511   5.102   8.754   8.072
 8090WAT     H124512   5.160   8.707   8.005
 8090WAT     H224513   5.160   8.793   8.144
 8091WAT      O24514   2.171   9.419   0.425
 8091WAT     H124515   2.204   9.403   0.518
 8091WAT     H224516   2.134   9.512   0.418
 8092WAT      O24517   2.988   7.233   8.741
 8092WAT     H124518   2.897   7.220   8.780
 8092WAT     H224519   2.996   7.180   8.657
 8093WAT      O24520   4.139   5.665   3.318
 8093WAT     H124521   4.160   5.751   3.365
 8093WAT     H224522   4.048   5.671   3.277
 8094WAT      O24523   5.338   1.739   9.688
 8094WAT     H124524   5.296   1.677   9.754
 8094WAT     H224525   5.266   1.783   9.634
 8095WAT      O24526   3.019   7.407   9.339
 8095WAT     H124527   3.110   7.388   9.301
 8095WAT     H224528   2.967   7.463   9.274
 8096WAT      O24529   4.052   0.279   0.365
 8096WAT     H124530   4.095   0.228   0.291
 8096WAT     H224531   3.978   0.223   0.405
 8097WAT      O24532   2.567   1.553   6.080
 8097WAT     H124533   2.583   1.489   6.005
 8097WAT     H224534   2.509   1.511   6.149
 8098WAT      O24535   2.864   5.447   6.068
 8098WAT     H124536   2.773   5.446   6.109
 8098WAT     H224537   2.926   5.393   6.125
 8099WAT      O24538   4.841   3.462   9.522
 8099WAT     H124539   4.881   3.370   9.514
 8099WAT     H224540   4.807   3.476   9.615
 8100WAT      O24541   2.071   5.446   6.720
 8100WAT     H124542   2.021   5.503   6.655
 8100WAT     H224543   2.042   5.351   6.710
 8101WAT      O24544   2.940   0.612   8.032
 8101WAT     H124545   2.887   0.609   7.947
 8101WAT     H224546   3.002   0.690   8.031
 8102WAT      O24547   9.280   2.721   9.724
 8102WAT     H124548   9.346   2.716   9.650
 8102WAT     H224549   9.247   2.815   9.734
 8103WAT      O24550   5.968   9.061   8.992
 8103WAT     H124551   5.951   9.137   8.929
 8103WAT     H224552   5.929   9.083   9.082
 8104WAT      O24553   6.831   5.609   1.961
 8104WAT     H124554   6.753   5.658   1.998
 8104WAT     H224555   6.907   5.612   2.026
 8105WAT      O24556   7.909   3.052   8.431
 8105WAT     H124557   7.824   3.099   8.455
 8105WAT     H224558   7.982   3.083   8.492
 8106WAT      O24559   5.646   6.149   1.755
 8106WAT     H124560   5.733   6.199   1.742
 8106WAT     H224561   5.666   6.054   1.779
 8107WAT      O24562   5.241   3.180   6.986
 8107WAT     H124563   5.299   3.171   6.905
 8107WAT     H224564   5.163   3.118   6.977
 8108WAT      O24565   0.628   7.283   9.772
 8108WAT     H124566   0.622   7.379   9.744
 8108WAT     H224567   0.720   7.249   9.755
 8109WAT      O24568   7.432   4.370   5.298
 8109WAT     H124569   7.350   4.424   5.280
 8109WAT     H224570   7.463   4.385   5.392
 8110WAT      O24571   5.847   0.662   2.175
 8110WAT     H124572   5.869   0.654   2.077
 8110WAT     H224573   5.911   0.724   2.219
 8111WAT      O24574   0.797   5.468   0.408
 8111WAT     H124575   0.764   5.476   0.502
 8111WAT     H224576   0.884   5.516   0.399
 8112WAT      O24577   2.486   7.216   5.183
 8112WAT     H124578   2.469   7.179   5.274
 8112WAT     H224579   2.584   7.212   5.162
 8113WAT      O24580   6.616   2.913   9.169
 8113WAT     H124581   6.621   3.002   9.214
 8113WAT     H224582   6.565   2.849   9.226
 8114WAT      O24583   9.135   0.591   2.938
 8114WAT     H124584   9.109   0.677   2.981
 8114WAT     H224585   9.085   0.580   2.852
 8115WAT      O24586   6.379   1.882   8.483
 8115WAT     H124587   6.363   1.785   8.502
 8115WAT     H224588   6.477   1.896   8.469
 8116WAT      O24589   2.401   2.947   4.366
 8116WAT     H124590   2.466   2.957   4.441
 8116WAT     H224591   2.448   2.915   4.284
 8117WAT      O24592   2.078   4.059   8.499
 8117WAT     H124593   2.167   4.052   8.455
 8117WAT     H224594   2.024   4.131   8.455
 8118WAT      O24595   1.964   2.270   7.848
 8118WAT     H124596   2.035   2.200   7.855
 8118WAT     H224597   1.959   2.303   7.754
 8119WAT      O24598   3.651   0.926   8.649
 8119WAT     H124599   3.739   0.974   8.654
 8119WAT     H224600   3.628   0.911   8.553
 8120WAT      O24601   8.255   4.798   1.780
 8120WAT     H124602   8.216   4.709   1.759
 8120WAT     H224603   8.192   4.849   1.838
 8121WAT      O24604   8.739   8.332   5.455
 8121WAT     H124605   8.829   8.353   5.495
 8121WAT     H224606   8.740   8.354   5.358
 8122WAT      O24607   2.139   9.199   9.040
 8122WAT     H124608   2.050   9.236   9.066
 8122WAT     H224609   2.146   9.195   8.940
 8123WAT      O24610   8.903   4.411   4.101
 8123WAT     H124611   8.849   4.343   4.151
 8123WAT     H224612   8.899   4.498   4.149
 8124WAT      O24613   1.772   1.619   1.212
 8124WAT     H124614   1.785   1.548   1.282
 8124WAT     H224615   1.802   1.584   1.123
 8125WAT      O24616   7.984   1.492   1.399
 8125WAT     H124617   8.002   1.580   1.444
 8125WAT     H224618   7.904   1.449   1.442
 8126WAT      O24619   7.030   0.504   1.478
 8126WAT     H124620   7.038   0.409   1.510
 8126WAT     H224621   7.065   0.565   1.548
 8127WAT      O24622   3.556   2.084   1.308
 8127WAT     H124623   3.540   2.050   1.401
 8127WAT     H224624   3.648   2.121   1.301
 8128WAT      O24625   8.824   1.694   5.451
 8128WAT     H124626   8.801   1.712   5.355
 8128WAT     H224627   8.757   1.630   5.489
 8129WAT      O24628   7.133   6.123   1.696
 8129WAT     H124629   7.107   6.207   1.649
 8129WAT     H224630   7.067   6.103   1.768
 8130WAT      O24631   1.443   6.850   4.318
 8130WAT     H124632   1.410   6.945   4.316
 8130WAT     H224633   1.534   6.845   4.278
 8131WAT      O24634   7.276   0.401   2.858
 8131WAT     H124635   7.216   0.478   2.877
 8131WAT     H224636   7.227   0.316   2.877
 8132WAT      O24637   5.856   3.579   0.649
 8132WAT     H124638   5.795   3.515   0.602
 8132WAT     H224639   5.920   3.619   0.583
 8133WAT      O24640   9.586   0.600   7.307
 8133WAT     H124641   9.519   0.626   7.375
 8133WAT     H224642   9.574   0.657   7.225
 8134WAT      O24643   5.965   6.665   3.000
 8134WAT     H124644   5.996   6.576   2.965
 8134WAT     H224645   6.034   6.700   3.064
 8135WAT      O24646   8.712   9.344   7.760
 8135WAT     H124647   8.624   9.365   7.802
 8135WAT     H224648   8.723   9.398   7.677
 8136WAT      O24649   3.883   9.080   9.264
 8136WAT     H124650   3.826   9.040   9.337
 8136WAT     H224651   3.971   9.032   9.260
 8137WAT      O24652   0.273   3.748   1.356
 8137WAT     H124653   0.202   3.785   1.416
 8137WAT     H224654   0.360   3.747   1.405
 8138WAT      O24655   5.147   3.155   4.660
 8138WAT     H124656   5.094   3.071   4.644
 8138WAT     H224657   5.218   3.163   4.590
 8139WAT      O24658   2.556   5.331   7.354
 8139WAT     H124659   2.631   5.271   7.326
 8139WAT     H224660   2.586   5.426   7.351
 8140WAT      O24661   4.582   8.655   9.358
 8140WAT     H124662   4.619   8.611   9.276
 8140WAT     H224663   4.626   8.745   9.370
 8141WAT      O24664   2.249   5.614   1.551
 8141WAT     H124665   2.276   5.708   1.575
 8141WAT     H224666   2.302   5.549   1.606
 8142WAT      O24667   4.163   8.965   7.413
 8142WAT     H124668   4.116   8.962   7.325
 8142WAT     H224669   4.258   8.993   7.399
 8143WAT      O24670   9.046   5.761   8.802
 8143WAT     H124671   9.077   5.748   8.707
 8143WAT     H224672   9.116   5.813   8.852
 8144WAT      O24673   2.997   1.272   3.486
 8144WAT     H124674   2.983   1.296   3.582
 8144WAT     H224675   2.975   1.351   3.429
 8145WAT      O24676   8.511   1.505   6.647
 8145WAT     H124677   8.486   1.581   6.706
 8145WAT     H224678   8.430   1.474   6.596
 8146WAT      O24679   4.619   6.457   4.709
 8146WAT     H124680   4.636   6.527   4.640
 8146WAT     H224681   4.607   6.500   4.798
 8147WAT      O24682   7.961   1.055   3.467
 8147WAT     H124683   7.994   0.981   3.525
 8147WAT     H224684   8.001   1.142   3.497
 8148WAT      O24685   3.799   7.382   5.977
 8148WAT     H124686   3.820   7.322   6.053
 8148WAT     H224687   3.875   7.444   5.960
 8149WAT      O24688   1.819   6.735   0.728
 8149WAT     H124689   1.813   6.820   0.676
 8149WAT     H224690   1.900   6.738   0.787
 8150WAT      O24691   9.133   7.208   9.170
 8150WAT     H124692   9.219   7.247   9.205
 8150WAT     H224693   9.152   7.120   9.127
 8151WAT      O24694   4.263   0.754   0.415
 8151WAT     H124695   4.212   0.683   0.366
 8151WAT     H224696   4.234   0.844   0.383
 8152WAT      O24697   9.514   8.565   9.238
 8152WAT     H124698   9.418   8.594   9.236
 8152WAT     H224699   9.569   8.628   9.181
 8153WAT      O24700   8.634   9.393   8.883
 8153WAT     H124701   8.597   9.457   8.950
 8153WAT     H224702   8.650   9.304   8.926
 8154WAT      O24703   2.621   7.394   1.026
 8154WAT     H124704   2.611   7.381   0.928
 8154WAT     H224705   2.717   7.382   1.052
 8155WAT      O24706   3.432   1.261   0.866
 8155WAT     H124707   3.414   1.332   0.797
 8155WAT     H224708   3.451   1.174   0.821
 8156WAT      O24709   0.807   7.798   0.898
 8156WAT     H124710   0.751   7.736   0.953
 8156WAT     H224711   0.853   7.863   0.959
 8157WAT      O24712   1.914   8.703   8.014
 8157WAT     H124713   1.902   8.736   7.921
 8157WAT     H224714   1.883   8.772   8.079
 8158WAT      O24715   3.082   8.874   4.699
 8158WAT     H124716   3.123   8.960   4.668
 8158WAT     H224717   3.037   8.889   4.788
 8159WAT      O24718   3.058   1.779   7.084
 8159WAT     H124719   3.045   1.684   7.056
 8159WAT     H224720   3.028   1.791   7.179
 8160WAT      O24721   3.948   9.449   4.847
 8160WAT     H124722   3.937   9.494   4.935
 8160WAT     H224723   3.982   9.514   4.780
 8161WAT      O24724   8.395   3.987   8.800
 8161WAT     H124725   8.463   3.945   8.739
 8161WAT     H224726   8.305   3.947   8.782
 8162WAT      O24727   8.775   5.212   1.242
 8162WAT     H124728   8.780   5.113   1.230
 8162WAT     H224729   8.770   5.256   1.153
 8163WAT      O24730   3.929   1.253   1.160
 8163WAT     H124731   3.855   1.320   1.160
 8163WAT     H224732   3.903   1.174   1.214
 8164WAT      O24733   7.902   0.430   3.408
 8164WAT     H124734   7.969   0.441   3.334
 8164WAT     H224735   7.890   0.332   3.427
 8165WAT      O24736   3.708   0.136   1.130
 8165WAT     H124737   3.666   0.136   1.039
 8165WAT     H224738   3.792   0.190   1.129
 8166WAT      O24739   7.143   1.294   3.372
 8166WAT     H124740   7.152   1.275   3.470
 8166WAT     H224741   7.114   1.389   3.359
 8167WAT      O24742   2.044   9.487   4.684
 8167WAT     H124743   1.985   9.468   4.606
 8167WAT     H224744   2.008   9.441   4.766
 8168WAT      O24745   2.092   0.305   8.839
 8168WAT     H124746   2.113   0.397   8.806
 8168WAT     H224747   2.026   0.310   8.914
 8169WAT      O24748   4.186   2.913   7.702
 8169WAT     H124749   4.159   2.918   7.799
 8169WAT     H224750   4.286   2.919   7.695
 8170WAT      O24751   3.629   1.959   7.171
 8170WAT     H124752   3.673   2.040   7.207
 8170WAT     H224753   3.534   1.981   7.147
 8171WAT      O24754   8.478   9.642   6.973
 8171WAT     H124755   8.530   9.558   6.993
 8171WAT     H224756   8.382   9.619   6.959
 8172WAT      O24757   4.257   5.267   3.353
 8172WAT     H124758   4.189   5.246   3.283
 8172WAT     H224759   4.228   5.347   3.405
 8173WAT      O24760   6.625   2.881   5.237
 8173WAT     H124761   6.566   2.946   5.286
 8173WAT     H224762   6.719   2.914   5.241
 8174WAT      O24763   5.249   5.837   8.147
 8174WAT     H124764   5.304   5.899   8.204
 8174WAT     H224765   5.233   5.752   8.197
 8175WAT      O24766   9.514   6.217   0.587
 8175WAT     H124767   9.562   6.196   0.502
 8175WAT     H224768   9.581   6.241   0.658
 8176WAT      O24769   9.000   5.016   9.122
 8176WAT     H124770   8.949   5.067   9.053
 8176WAT     H224771   8.944   5.009   9.205
 8177WAT      O24772   5.961   9.499   1.592
 8177WAT     H124773   5.971   9.429   1.663
 8177WAT     H224774   6.028   9.482   1.519
 8178WAT      O24775   4.920   5.953   1.549
 8178WAT     H124776   4.917   5.986   1.455
 8178WAT     H224777   5.007   5.907   1.566
 8179WAT      O24778   5.186   7.817   1.655
 8179WAT     H124779   5.180   7.738   1.594
 8179WAT     H224780   5.280   7.851   1.656
 8180WAT      O24781   7.425   3.135   4.595
 8180WAT     H124782   7.402   3.124   4.498
 8180WAT     H224783   7.484   3.215   4.605
 8181WAT      O24784   6.715   7.599   3.322
 8181WAT     H124785   6.683   7.632   3.411
 8181WAT     H224786   6.645   7.618   3.253
 8182WAT      O24787   1.190   6.821   1.589
 8182WAT     H124788   1.176   6.909   1.544
 8182WAT     H224789   1.211   6.751   1.521
 8183WAT      O24790   7.157   4.750   7.078
 8183WAT     H124791   7.153   4.847   7.100
 8183WAT     H224792   7.248   4.715   7.097
 8184WAT      O24793   5.398   8.442   1.956
 8184WAT     H124794   5.396   8.535   1.993
 8184WAT     H224795   5.443   8.443   1.867
 8185WAT      O24796   4.834   3.133   0.043
 8185WAT     H124797   4.877   3.064   0.101
 8185WAT     H224798   4.876   3.222   0.061
 8186WAT      O24799   8.825   7.819   0.676
 8186WAT     H124800   8.887   7.748   0.710
 8186WAT     H224801   8.877   7.902   0.655
 8187WAT      O24802   4.969   8.707   3.990
 8187WAT     H124803   5.020   8.679   3.909
 8187WAT     H224804   4.884   8.751   3.962
 8188WAT      O24805   3.647   8.235   0.438
 8188WAT     H124806   3.667   8.309   0.373
 8188WAT     H224807   3.672   8.147   0.398
 8189WAT      O24808   2.363   7.386   7.583
 8189WAT     H124809   2.322   7.474   7.605
 8189WAT     H224810   2.293   7.322   7.551
 8190WAT      O24811   1.627   8.362   0.277
 8190WAT     H124812   1.584   8.438   0.228
 8190WAT     H224813   1.626   8.280   0.220
 8191WAT      O24814   2.932   2.509   8.643
 8191WAT     H124815   2.952   2.446   8.718
 8191WAT     H224816   2.872   2.583   8.677
 8192WAT      O24817   2.451   7.017   5.932
 8192WAT     H124818   2.538   6.976   5.907
 8192WAT     H224819   2.466   7.106   5.975
 8193WAT      O24820   9.423   0.477   0.435
 8193WAT     H124821   9.483   0.547   0.397
 8193WAT     H224822   9.441   0.468   0.533
 8194WAT      O24823   0.648   2.651   9.791
 8194WAT     H124824   0.633   2.554   9.812
 8194WAT     H224825   0.560   2.696   9.780
 8195WAT      O24826   5.647   2.286   3.958
 8195WAT     H124827   5.628   2.242   3.870
 8195WAT     H224828   5.727   2.242   4.000
 8196WAT      O24829   1.096   5.087   2.488
 8196WAT     H124830   1.029   5.039   2.544
 8196WAT     H224831   1.056   5.171   2.452
 8197WAT      O24832   5.027   1.556   1.876
 8197WAT     H124833   5.031   1.484   1.946
 8197WAT     H224834   4.974   1.633   1.911
 8198WAT      O24835   2.020   8.970   5.554
 8198WAT     H124836   1.987   9.035   5.485
 8198WAT     H224837   2.060   9.019   5.631
 8199WAT      O24838   5.051   1.453   8.859
 8199WAT     H124839   4.985   1.496   8.796
 8199WAT     H224840   5.036   1.354   8.859
 8200WAT      O24841   6.992   0.398   7.461
 8200WAT     H124842   7.044   0.318   7.490
 8200WAT     H224843   6.908   0.369   7.415
 8201WAT      O24844   6.045   1.435   7.602
 8201WAT     H124845   6.093   1.352   7.631
 8201WAT     H224846   6.046   1.440   7.502
 8202WAT      O24847   9.448   7.152   0.733
 8202WAT     H124848   9.483   7.245   0.726
 8202WAT     H224849   9.383   7.136   0.659
 8203WAT      O24850   1.817   7.125   2.957
 8203WAT     H124851   1.871   7.148   2.876
 8203WAT     H224852   1.720   7.126   2.933
 8204WAT      O24853   7.312   8.983   6.030
 8204WAT     H124854   7.408   8.982   6.060
 8204WAT     H224855   7.279   8.889   6.025
 8205WAT      O24856   8.316   9.391   2.601
 8205WAT     H124857   8.322   9.455   2.678
 8205WAT     H224858   8.221   9.366   2.586
 8206WAT      O24859   4.430   3.215   7.624
 8206WAT     H124860   4.345   3.238   7.576
 8206WAT     H224861   4.411   3.203   7.721
 8207WAT      O24862   2.947   7.163   3.423
 8207WAT     H124863   2.900   7.245   3.392
 8207WAT     H224864   2.993   7.180   3.510
 8208WAT      O24865   6.551   9.257   8.621
 8208WAT     H124866   6.630   9.196   8.630
 8208WAT     H224867   6.558   9.310   8.537
 8209WAT      O24868   4.799   8.438   1.028
 8209WAT     H124869   4.743   8.364   1.065
 8209WAT     H224870   4.841   8.488   1.104
 8210WAT      O24871   7.541   2.025   5.361
 8210WAT     H124872   7.547   1.958   5.286
 8210WAT     H224873   7.622   2.017   5.419
 8211WAT      O24874   0.486   8.585   6.644
 8211WAT     H124875   0.561   8.520   6.651
 8211WAT     H224876   0.401   8.536   6.625
 8212WAT      O24877   4.109   5.318   7.704
 8212WAT     H124878   4.019   5.302   7.744
 8212WAT     H224879   4.105   5.300   7.605
 8213WAT      O24880   9.467   3.885   2.082
 8213WAT     H124881   9.531   3.808   2.079
 8213WAT     H224882   9.407   3.874   2.161
 8214WAT      O24883   4.160   5.844   8.553
 8214WAT     H124884   4.198   5.754   8.576
 8214WAT     H224885   4.064   5.847   8.581
 8215WAT      O24886   2.849   4.163   6.324
 8215WAT     H124887   2.936   4.184   6.368
 8215WAT     H224888   2.865   4.108   6.243
 8216WAT      O24889   0.617   3.207   1.411
 8216WAT     H124890   0.668   3.287   1.440
 8216WAT     H224891   0.606   3.208   1.312
 8217WAT      O24892   6.791   0.743   0.615
 8217WAT     H124893   6.767   0.681   0.690
 8217WAT     H224894   6.709   0.765   0.562
 8218WAT      O24895   2.671   9.047   8.822
 8218WAT     H124896   2.660   9.058   8.723
 8218WAT     H224897   2.765   9.020   8.842
 8219WAT      O24898   3.586   4.004   5.116
 8219WAT     H124899   3.515   4.031   5.052
 8219WAT     H224900   3.670   3.982   5.067
 8220WAT      O24901   7.138   4.451   6.325
 8220WAT     H124902   7.229   4.422   6.354
 8220WAT     H224903   7.086   4.372   6.291
 8221WAT      O24904   6.104   1.519   6.153
 8221WAT     H124905   6.057   1.546   6.069
 8221WAT     H224906   6.200   1.500   6.133
 8222WAT      O24907   9.104   2.572   3.961
 8222WAT     H124908   9.057   2.578   3.873
 8222WAT     H224909   9.052   2.624   4.029
 8223WAT      O24910   1.831   2.729   2.214
 8223WAT     H124911   1.763   2.754   2.284
 8223WAT     H224912   1.870   2.812   2.175
 8224WAT      O24913   8.691   7.536   7.484
 8224WAT     H124914   8.701   7.512   7.580
 8224WAT     H224915   8.756   7.483   7.429
 8225WAT      O24916   6.444   3.931   7.501
 8225WAT     H124917   6.540   3.925   7.530
 8225WAT     H224918   6.434   4.003   7.433
 8226WAT      O24919   7.372   1.794   3.346
 8226WAT     H124920   7.410   1.717   3.397
 8226WAT     H224921   7.278   1.811   3.376
 8227WAT      O24922   8.250   4.618   1.117
 8227WAT     H124923   8.247   4.592   1.021
 8227WAT     H224924   8.340   4.597   1.155
 8228WAT      O24925   0.377   4.763   3.764
 8228WAT     H124926   0.474   4.768   3.741
 8228WAT     H224927   0.347   4.849   3.805
 8229WAT      O24928   1.881   2.842   5.650
 8229WAT     H124929   1.838   2.771   5.594
 8229WAT     H224930   1.911   2.917   5.591
 8230WAT      O24931   0.179   8.561   2.034
 8230WAT     H124932   0.144   8.584   2.125
 8230WAT     H224933   0.258   8.501   2.042
 8231WAT      O24934   7.196   8.109   1.087
 8231WAT     H124935   7.287   8.098   1.129
 8231WAT     H224936   7.187   8.201   1.050
 8232WAT      O24937   1.133   7.130   7.437
 8232WAT     H124938   1.104   7.205   7.378
 8232WAT     H224939   1.205   7.162   7.499
 8233WAT      O24940   3.693   2.679   2.293
 8233WAT     H124941   3.621   2.638   2.238
 8233WAT     H224942   3.668   2.773   2.316
 8234WAT      O24943   2.667   4.452   1.461
 8234WAT     H124944   2.759   4.417   1.443
 8234WAT     H224945   2.669   4.552   1.469
 8235WAT      O24946   6.878   9.016   9.073
 8235WAT     H124947   6.973   9.046   9.072
 8235WAT     H224948   6.838   9.032   9.163
 8236WAT      O24949   5.703   7.070   8.974
 8236WAT     H124950   5.736   6.980   8.944
 8236WAT     H224951   5.776   7.137   8.965
 8237WAT      O24952   7.735   1.124   9.842
 8237WAT     H124953   7.710   1.208   9.793
 8237WAT     H224954   7.778   1.149   9.929
 8238WAT      O24955   2.457   8.459   7.722
 8238WAT     H124956   2.425   8.408   7.803
 8238WAT     H224957   2.556   8.451   7.715
 8239WAT      O24958   1.749   0.011   8.212
 8239WAT     H124959   1.730   0.109   8.208
 8239WAT     H224960   1.668  -0.037   8.246
 8240WAT      O24961   8.697   3.838   1.306
 8240WAT     H124962   8.713   3.790   1.219
 8240WAT     H224963   8.785   3.860   1.348
 8241WAT      O24964   4.944   7.030   7.824
 8241WAT     H124965   4.854   7.067   7.803
 8241WAT     H224966   4.963   7.042   7.921
 8242WAT      O24967   1.158   1.068   4.474
 8242WAT     H124968   1.257   1.064   4.486
 8242WAT     H224969   1.118   0.977   4.492
 8243WAT      O24970   9.534   2.088   5.506
 8243WAT     H124971   9.614   2.147   5.494
 8243WAT     H224972   9.547   2.029   5.585
 8244WAT      O24973   7.221   5.715   6.569
 8244WAT     H124974   7.267   5.758   6.491
 8244WAT     H224975   7.288   5.697   6.640
 8245WAT      O24976   5.672   9.211   3.363
 8245WAT     H124977   5.658   9.113   3.376
 8245WAT     H224978   5.756   9.226   3.311
 8246WAT      O24979   7.302   1.640   3.728
 8246WAT     H124980   7.234   1.713   3.719
 8246WAT     H224981   7.384   1.665   3.677
 8247WAT      O24982   1.943   3.898   8.706
 8247WAT     H124983   1.997   3.913   8.789
 8247WAT     H224984   1.983   3.950   8.630
 8248WAT      O24985   4.142   5.858   0.115
 8248WAT     H124986   4.125   5.892   0.208
 8248WAT     H224987   4.140   5.758   0.115
 8249WAT      O24988   8.732   8.042   3.142
 8249WAT     H124989   8.652   8.058   3.200
 8249WAT     H224990   8.808   8.099   3.173
 8250WAT      O24991   2.486   8.163   0.336
 8250WAT     H124992   2.518   8.069   0.327
 8250WAT     H224993   2.541   8.210   0.406
 8251WAT      O24994   0.585   4.151   2.614
 8251WAT     H124995   0.603   4.242   2.649
 8251WAT     H224996   0.553   4.092   2.688
 8252WAT      O24997   1.094   2.326   9.655
 8252WAT     H124998   1.036   2.317   9.574
 8252WAT     H224999   1.056   2.395   9.716
 8253WAT      O25000   8.335   0.460   1.149
 8253WAT     H125001   8.280   0.498   1.075
 8253WAT     H225002   8.338   0.525   1.225
 8254WAT      O25003   7.157   4.477   8.421
 8254WAT     H125004   7.247   4.433   8.424
 8254WAT     H225005   7.158   4.558   8.479
 8255WAT      O25006   4.500   2.942   2.613
 8255WAT     H125007   4.522   3.010   2.543
 8255WAT     H225008   4.401   2.935   2.623
 8256WAT      O25009   4.346   8.545   6.609
 8256WAT     H125010   4.419   8.589   6.662
 8256WAT     H225011   4.312   8.610   6.541
 8257WAT      O25012   9.824   6.914   2.569
 8257WAT     H125013   9.768   6.971   2.629
 8257WAT     H225014   9.764   6.861   2.509
 8258WAT      O25015   3.204   0.044   6.533
 8258WAT     H125016   3.131   0.034   6.465
 8258WAT     H225017   3.274  -0.026   6.517
 8259WAT      O25018   7.188   0.087   8.070
 8259WAT     H125019   7.283   0.089   8.042
 8259WAT     H225020   7.133   0.042   8.000
 8260WAT      O25021   4.146   5.187   8.514
 8260WAT     H125022   4.061   5.240   8.516
 8260WAT     H225023   4.156   5.137   8.599
 8261WAT      O25024   1.485   2.833   5.135
 8261WAT     H125025   1.535   2.868   5.056
 8261WAT     H225026   1.517   2.741   5.157
 8262WAT      O25027   6.523   7.880   5.795
 8262WAT     H125028   6.596   7.835   5.743
 8262WAT     H225029   6.486   7.957   5.743
 8263WAT      O25030   4.677   2.145   7.872
 8263WAT     H125031   4.761   2.198   7.868
 8263WAT     H225032   4.627   2.154   7.786
 8264WAT      O25033   3.125   5.172   2.507
 8264WAT     H125034   3.205   5.161   2.447
 8264WAT     H225035   3.112   5.089   2.561
 8265WAT      O25036   3.893   6.635   9.194
 8265WAT     H125037   3.840   6.578   9.132
 8265WAT     H225038   3.833   6.703   9.236
 8266WAT      O25039   5.766   7.135   1.400
 8266WAT     H125040   5.783   7.143   1.302
 8266WAT     H225041   5.670   7.109   1.415
 8267WAT      O25042   4.280   4.535   9.342
 8267WAT     H125043   4.279   4.632   9.317
 8267WAT     H225044   4.218   4.484   9.282
 8268WAT      O25045   2.842   4.493   0.411
 8268WAT     H125046   2.797   4.446   0.336
 8268WAT     H225047   2.929   4.530   0.379
 8269WAT      O25048   7.987   0.575   1.947
 8269WAT     H125049   7.965   0.477   1.939
 8269WAT     H225050   8.068   0.595   1.892
 8270WAT      O25051   7.032   6.995   5.389
 8270WAT     H125052   7.082   6.973   5.305
 8270WAT     H225053   7.034   6.916   5.450
 8271WAT      O25054   5.043   9.489   7.469
 8271WAT     H125055   4.981   9.536   7.531
 8271WAT     H225056   5.032   9.524   7.376
 8272WAT      O25057   3.460   6.585   1.399
 8272WAT     H125058   3.469   6.638   1.483
 8272WAT     H225059   3.462   6.487   1.421
 8273WAT      O25060   9.107   3.533   4.481
 8273WAT     H125061   9.173   3.585   4.427
 8273WAT     H225062   9.019   3.581   4.480
 8274WAT      O25063   4.393   8.515   2.848
 8274WAT     H125064   4.472   8.532   2.788
 8274WAT     H225065   4.319   8.578   2.824
 8275WAT      O25066   2.856   9.423   1.499
 8275WAT     H125067   2.900   9.490   1.558
 8275WAT     H225068   2.757   9.429   1.509
 8276WAT      O25069   6.349   1.325   1.598
 8276WAT     H125070   6.276   1.266   1.633
 8276WAT     H225071   6.374   1.294   1.506
 8277WAT      O25072   1.516   1.448   5.076
 8277WAT     H125073   1.449   1.396   5.128
 8277WAT     H225074   1.608   1.423   5.106
 8278WAT      O25075   5.299   4.795   2.739
 8278WAT     H125076   5.223   4.743   2.779
 8278WAT     H225077   5.385   4.767   2.782
 8279WAT      O25078   7.164   0.702   1.648
 8279WAT     H125079   7.105   0.779   1.671
 8279WAT     H225080   7.238   0.695   1.715
 8280WAT      O25081   0.576   8.447   1.859
 8280WAT     H125082   0.535   8.357   1.865
 8280WAT     H225083   0.676   8.440   1.866
 8281WAT      O25084   2.388   3.606   0.494
 8281WAT     H125085   2.291   3.611   0.472
 8281WAT     H225086   2.402   3.547   0.574
 8282WAT      O25087   9.346   1.832   2.219
 8282WAT     H125088   9.373   1.807   2.126
 8282WAT     H225089   9.247   1.821   2.229
 8283WAT      O25090   0.912   7.628   4.190
 8283WAT     H125091   0.951   7.621   4.098
 8283WAT     H225092   0.983   7.658   4.254
 8284WAT      O25093   2.021   2.629   6.693
 8284WAT     H125094   1.951   2.596   6.631
 8284WAT     H225095   2.055   2.718   6.660
 8285WAT      O25096   2.637   9.014   9.481
 8285WAT     H125097   2.558   8.968   9.439
 8285WAT     H225098   2.608   9.059   9.566
 8286WAT      O25099   1.561   4.175   6.514
 8286WAT     H125100   1.470   4.185   6.555
 8286WAT     H225101   1.565   4.089   6.463
 8287WAT      O25102   3.816   9.567   9.028
 8287WAT     H125103   3.809   9.656   8.984
 8287WAT     H225104   3.849   9.500   8.962
 8288WAT      O25105   1.215   1.783   7.752
 8288WAT     H125106   1.123   1.821   7.766
 8288WAT     H225107   1.257   1.765   7.841
 8289WAT      O25108   3.616   1.543   6.384
 8289WAT     H125109   3.648   1.616   6.323
 8289WAT     H225110   3.639   1.567   6.479
 8290WAT      O25111   4.481   5.065   3.399
 8290WAT     H125112   4.425   5.139   3.362
 8290WAT     H225113   4.432   5.021   3.475
 8291WAT      O25114   6.309   3.691   4.695
 8291WAT     H125115   6.241   3.684   4.768
 8291WAT     H225116   6.400   3.700   4.735
 8292WAT      O25117   7.560   6.138   3.495
 8292WAT     H125118   7.597   6.063   3.442
 8292WAT     H225119   7.533   6.105   3.586
 8293WAT      O25120   2.117   8.593   3.889
 8293WAT     H125121   2.094   8.667   3.826
 8293WAT     H225122   2.149   8.514   3.836
 8294WAT      O25123   8.381   2.522   8.966
 8294WAT     H125124   8.460   2.528   9.027
 8294WAT     H225125   8.318   2.596   8.985
 8295WAT      O25126   8.272   7.055   9.124
 8295WAT     H125127   8.273   6.982   9.193
 8295WAT     H225128   8.179   7.086   9.109
 8296WAT      O25129   9.534   6.458   1.226
 8296WAT     H125130   9.620   6.503   1.245
 8296WAT     H225131   9.474   6.464   1.306
 8297WAT      O25132   8.432   5.621   0.324
 8297WAT     H125133   8.521   5.609   0.369
 8297WAT     H225134   8.447   5.645   0.228
 8298WAT      O25135   7.740   6.342   0.026
 8298WAT     H125136   7.746   6.262  -0.034
 8298WAT     H225137   7.814   6.405   0.005
 8299WAT      O25138   6.736   8.151   8.636
 8299WAT     H125139   6.723   8.180   8.541
 8299WAT     H225140   6.702   8.223   8.697
 8300WAT      O25141   3.606   6.229   7.035
 8300WAT     H125142   3.513   6.258   7.058
 8300WAT     H225143   3.603   6.164   6.959
 8301WAT      O25144   2.104   4.207   3.923
 8301WAT     H125145   2.198   4.235   3.903
 8301WAT     H225146   2.082   4.124   3.871
 8302WAT      O25147   1.056   4.687   5.871
 8302WAT     H125148   1.133   4.692   5.807
 8302WAT     H225149   1.071   4.612   5.935
 8303WAT      O25150   5.471   3.570   4.528
 8303WAT     H125151   5.478   3.668   4.511
 8303WAT     H225152   5.546   3.523   4.481
 8304WAT      O25153   4.860   6.379   1.393
 8304WAT     H125154   4.868   6.279   1.387
 8304WAT     H225155   4.825   6.404   1.483
 8305WAT      O25156   8.712   5.590   0.399
 8305WAT     H125157   8.692   5.682   0.432
 8305WAT     H225158   8.785   5.550   0.454
 8306WAT      O25159   3.807   6.848   8.487
 8306WAT     H125160   3.854   6.761   8.503
 8306WAT     H225161   3.873   6.917   8.457
 8307WAT      O25162   4.558   3.498   8.545
 8307WAT     H125163   4.561   3.502   8.645
 8307WAT     H225164   4.508   3.578   8.511
 8308WAT      O25165   1.806   4.979   3.438
 8308WAT     H125166   1.761   4.915   3.500
 8308WAT     H225167   1.743   5.007   3.366
 8309WAT      O25168   0.277   4.774   9.724
 8309WAT     H125169   0.277   4.858   9.779
 8309WAT     H225170   0.314   4.793   9.633
 8310WAT      O25171   2.172   6.019   9.717
 8310WAT     H125172   2.167   5.928   9.757
 8310WAT     H225173   2.267   6.043   9.698
 8311WAT      O25174   5.572   0.916   3.091
 8311WAT     H125175   5.568   0.818   3.111
 8311WAT     H225176   5.480   0.952   3.077
 8312WAT      O25177   6.174   3.380   2.401
 8312WAT     H125178   6.157   3.465   2.352
 8312WAT     H225179   6.273   3.367   2.411
 8313WAT      O25180   0.023   9.194   5.123
 8313WAT     H125181  -0.020   9.117   5.075
 8313WAT     H225182   0.058   9.163   5.211
 8314WAT      O25183   8.615   8.571   9.831
 8314WAT     H125184   8.575   8.660   9.852
 8314WAT     H225185   8.551   8.499   9.856
 8315WAT      O25186   6.019   6.413   3.976
 8315WAT     H125187   6.096   6.365   3.934
 8315WAT     H225188   6.018   6.394   4.075
 8316WAT      O25189   3.807   7.862   6.941
 8316WAT     H125190   3.835   7.849   6.845
 8316WAT     H225191   3.726   7.806   6.960
 8317WAT      O25192   9.447   0.258   7.557
 8317WAT     H125193   9.524   0.272   7.494
 8317WAT     H225194   9.366   0.304   7.521
 8318WAT      O25195   5.882   6.049   6.347
 8318WAT     H125196   5.831   6.082   6.267
 8318WAT     H225197   5.966   6.004   6.316
 8319WAT      O25198   6.637   5.273   8.391
 8319WAT     H125199   6.563   5.339   8.378
 8319WAT     H225200   6.604   5.181   8.372
 8320WAT      O25201   1.799   8.998   8.954
 8320WAT     H125202   1.790   9.047   9.041
 8320WAT     H225203   1.839   9.058   8.886
 8321WAT      O25204   5.334   3.851   6.146
 8321WAT     H125205   5.381   3.803   6.071
 8321WAT     H225206   5.258   3.903   6.109
 8322WAT      O25207   2.117   0.010   9.141
 8322WAT     H125208   2.024   0.006   9.105
 8322WAT     H225209   2.115   0.034   9.238
 8323WAT      O25210   3.844   1.660   9.245
 8323WAT     H125211   3.748   1.646   9.222
 8323WAT     H225212   3.882   1.576   9.284
 8324WAT      O25213   1.120   7.222   0.243
 8324WAT     H125214   1.147   7.308   0.287
 8324WAT     H225215   1.030   7.233   0.202
 8325WAT      O25216   7.321   5.642   4.895
 8325WAT     H125217   7.325   5.635   4.795
 8325WAT     H225218   7.236   5.687   4.921
 8326WAT      O25219   5.941   0.402   5.692
 8326WAT     H125220   5.864   0.388   5.754
 8326WAT     H225221   6.001   0.473   5.729
 8327WAT      O25222   2.244   4.222   0.100
 8327WAT     H125223   2.226   4.317   0.075
 8327WAT     H225224   2.240   4.211   0.199
 8328WAT      O25225   0.830   5.738   7.409
 8328WAT     H125226   0.841   5.677   7.487
 8328WAT     H225227   0.905   5.804   7.408
 8329WAT      O25228   8.113   4.913   8.667
 8329WAT     H125229   8.169   4.995   8.658
 8329WAT     H225230   8.168   4.838   8.703
 8330WAT      O25231   2.263   9.128   2.661
 8330WAT     H125232   2.241   9.129   2.759
 8330WAT     H225233   2.183   9.159   2.609
 8331WAT      O25234   3.849   1.025   4.128
 8331WAT     H125235   3.857   1.073   4.041
 8331WAT     H225236   3.933   1.038   4.181
 8332WAT      O25237   1.249   5.253   2.830
 8332WAT     H125238   1.154   5.223   2.826
 8332WAT     H225239   1.301   5.194   2.892
 8333WAT      O25240   0.825   1.859   2.730
 8333WAT     H125241   0.747   1.921   2.723
 8333WAT     H225242   0.848   1.845   2.826
 8334WAT      O25243   5.602   4.491   6.557
 8334WAT     H125244   5.534   4.425   6.590
 8334WAT     H225245   5.585   4.580   6.599
 8335WAT      O25246   2.267   2.070   4.405
 8335WAT     H125247   2.239   2.114   4.490
 8335WAT     H225248   2.333   2.129   4.358
 8336WAT      O25249   3.285   1.563   5.168
 8336WAT     H125250   3.277   1.594   5.074
 8336WAT     H225251   3.362   1.610   5.212
 8337WAT      O25252   0.093   9.729   6.857
 8337WAT     H125253   0.048   9.644   6.827
 8337WAT     H225254   0.189   9.727   6.828
 8338WAT      O25255   7.552   8.877   1.648
 8338WAT     H125256   7.592   8.892   1.557
 8338WAT     H225257   7.557   8.780   1.671
 8339WAT      O25258   8.333   5.203   8.849
 8339WAT     H125259   8.406   5.162   8.794
 8339WAT     H225260   8.317   5.297   8.819
 8340WAT      O25261   1.055   6.096   5.557
 8340WAT     H125262   1.153   6.092   5.575
 8340WAT     H225263   1.009   6.137   5.636
 8341WAT      O25264   2.214   6.507   4.908
 8341WAT     H125265   2.141   6.469   4.964
 8341WAT     H225266   2.303   6.487   4.950
 8342WAT      O25267   8.963   9.664   4.463
 8342WAT     H125268   8.940   9.574   4.427
 8342WAT     H225269   8.945   9.666   4.561
 8343WAT      O25270   3.685   9.012   5.980
 8343WAT     H125271   3.645   9.101   6.002
 8343WAT     H225272   3.784   9.016   5.994
 8344WAT      O25273   7.426   1.906   8.659
 8344WAT     H125274   7.397   1.999   8.637
 8344WAT     H225275   7.525   1.897   8.643
 8345WAT      O25276   1.837   2.073   4.817
 8345WAT     H125277   1.811   2.044   4.909
 8345WAT     H225278   1.859   1.993   4.761
 8346WAT      O25279   2.287   4.463   8.578
 8346WAT     H125280   2.260   4.415   8.495
 8346WAT     H225281   2.387   4.473   8.579
 8347WAT      O25282   1.125   9.279   7.596
 8347WAT     H125283   1.087   9.369   7.618
 8347WAT     H225284   1.206   9.262   7.652
 8348WAT      O25285   0.971   0.597   8.825
 8348WAT     H125286   0.891   0.608   8.883
 8348WAT     H225287   1.054   0.601   8.881
 8349WAT      O25288   8.791   2.270   3.498
 8349WAT     H125289   8.703   2.277   3.450
 8349WAT     H225290   8.854   2.339   3.462
 8350WAT      O25291   9.168   7.366   3.092
 8350WAT     H125292   9.118   7.302   3.034
 8350WAT     H225293   9.178   7.328   3.184
 8351WAT      O25294   5.762   1.496   7.656
 8351WAT     H125295   5.753   1.561   7.731
 8351WAT     H225296   5.858   1.470   7.645
 8352WAT      O25297   3.605   0.789   4.040
 8352WAT     H125298   3.568   0.791   4.133
 8352WAT     H225299   3.597   0.879   3.998
 8353WAT      O25300   6.289   6.577   9.650
 8353WAT     H125301   6.225   6.653   9.636
 8353WAT     H225302   6.382   6.607   9.628
 8354WAT      O25303   4.679   5.970   3.310
 8354WAT     H125304   4.773   5.945   3.335
 8354WAT     H225305   4.662   5.942   3.216
 8355WAT      O25306   7.565   5.826   4.810
 8355WAT     H125307   7.657   5.796   4.834
 8355WAT     H225308   7.516   5.752   4.765
 8356WAT      O25309   2.591   4.536   7.167
 8356WAT     H125310   2.603   4.438   7.151
 8356WAT     H225311   2.550   4.578   7.087
 8357WAT      O25312   2.808   2.132   8.905
 8357WAT     H125313   2.754   2.055   8.873
 8357WAT     H225314   2.898   2.100   8.936
 8358WAT      O25315   6.047   6.267   0.201
 8358WAT     H125316   5.974   6.304   0.143
 8358WAT     H225317   6.006   6.211   0.274
 8359WAT      O25318   0.504   2.519   8.422
 8359WAT     H125319   0.497   2.443   8.487
 8359WAT     H225320   0.426   2.516   8.360
 8360WAT      O25321   8.479   2.208   6.649
 8360WAT     H125322   8.401   2.192   6.709
 8360WAT     H225323   8.542   2.130   6.655
 8361WAT      O25324   5.816   7.593   8.449
 8361WAT     H125325   5.794   7.496   8.455
 8361WAT     H225326   5.894   7.613   8.508
 8362WAT      O25327   6.569   0.929   0.757
 8362WAT     H125328   6.543   0.900   0.849
 8362WAT     H225329   6.596   1.025   0.758
 8363WAT      O25330   3.413   7.182   1.285
 8363WAT     H125331   3.494   7.164   1.342
 8363WAT     H225332   3.424   7.269   1.238
 8364WAT      O25333   7.718   5.510   2.730
 8364WAT     H125334   7.795   5.513   2.666
 8364WAT     H225335   7.666   5.426   2.716
 8365WAT      O25336   0.745   0.277   6.919
 8365WAT     H125337   0.655   0.243   6.947
 8365WAT     H225338   0.757   0.265   6.820
 8366WAT      O25339   7.825   3.698   8.945
 8366WAT     H125340   7.919   3.728   8.964
 8366WAT     H225341   7.810   3.607   8.985
 8367WAT      O25342   2.729   4.549   0.924
 8367WAT     H125343   2.776   4.578   0.840
 8367WAT     H225344   2.630   4.560   0.913
 8368WAT      O25345   0.503   9.052   0.346
 8368WAT     H125346   0.547   9.111   0.413
 8368WAT     H225347   0.422   9.010   0.387
 8369WAT      O25348   1.335   1.404   8.006
 8369WAT     H125349   1.297   1.495   7.990
 8369WAT     H225350   1.348   1.357   7.919
 8370WAT      O25351   6.634   9.545   4.478
 8370WAT     H125352   6.623   9.518   4.382
 8370WAT     H225353   6.555   9.599   4.506
 8371WAT      O25354   3.144   3.074   1.555
 8371WAT     H125355   3.222   3.027   1.512
 8371WAT     H225356   3.084   3.007   1.598
 8372WAT      O25357   5.849   9.225   8.482
 8372WAT     H125358   5.868   9.132   8.451
 8372WAT     H225359   5.881   9.291   8.414
 8373WAT      O25360   1.535   2.344   7.953
 8373WAT     H125361   1.627   2.375   7.977
 8373WAT     H225362   1.469   2.416   7.973
 8374WAT      O25363   3.331   1.530   9.734
 8374WAT     H125364   3.268   1.456   9.758
 8374WAT     H225365   3.415   1.490   9.696
 8375WAT      O25366   8.208   6.750   4.370
 8375WAT     H125367   8.130   6.812   4.365
 8375WAT     H225368   8.189   6.678   4.437
 8376WAT      O25369   6.779   0.147   0.595
 8376WAT     H125370   6.830   0.220   0.640
 8376WAT     H225371   6.827   0.120   0.511
 8377WAT      O25372   5.528   2.710   3.659
 8377WAT     H125373   5.544   2.801   3.697
 8377WAT     H225374   5.432   2.685   3.672
 8378WAT      O25375   6.147   8.344   6.556
 8378WAT     H125376   6.107   8.256   6.581
 8378WAT     H225377   6.202   8.378   6.633
 8379WAT      O25378   3.555   1.889   3.884
 8379WAT     H125379   3.500   1.972   3.871
 8379WAT     H225380   3.518   1.837   3.961
 8380WAT      O25381   6.142   6.045   2.393
 8380WAT     H125382   6.067   6.075   2.452
 8380WAT     H225383   6.205   6.121   2.377
 8381WAT      O25384   9.741   7.950   9.302
 8381WAT     H125385   9.748   7.982   9.397
 8381WAT     H225386   9.651   7.908   9.288
 8382WAT      O25387   7.040   1.913   0.468
 8382WAT     H125388   7.029   1.924   0.369
 8382WAT     H225389   7.059   1.817   0.488
 8383WAT      O25390   1.639   9.471   6.222
 8383WAT     H125391   1.638   9.566   6.253
 8383WAT     H225392   1.602   9.412   6.293
 8384WAT      O25393   4.212   6.652   8.811
 8384WAT     H125394   4.205   6.650   8.711
 8384WAT     H225395   4.122   6.667   8.850
 8385WAT      O25396   1.083   3.990   9.245
 8385WAT     H125397   1.039   4.019   9.330
 8385WAT     H225398   1.061   3.895   9.227
 8386WAT      O25399   0.062   8.290   3.385
 8386WAT     H125400   0.021   8.356   3.321
 8386WAT     H225401   0.020   8.301   3.475
 8387WAT      O25402   9.658   4.045   8.904
 8387WAT     H125403   9.723   4.114   8.935
 8387WAT     H225404   9.583   4.089   8.855
 8388WAT      O25405   2.198   7.275   6.309
 8388WAT     H125406   2.277   7.227   6.346
 8388WAT     H225407   2.117   7.254   6.364
 8389WAT      O25408   8.122   1.684   8.919
 8389WAT     H125409   8.083   1.681   8.827
 8389WAT     H225410   8.076   1.756   8.972
 8390WAT      O25411   2.494   9.424   4.233
 8390WAT     H125412   2.405   9.439   4.189
 8390WAT     H225413   2.480   9.387   4.324
 8391WAT      O25414   4.830   4.521   1.930
 8391WAT     H125415   4.735   4.491   1.924
 8391WAT     H225416   4.857   4.528   2.026
 8392WAT      O25417   3.002   7.817   0.825
 8392WAT     H125418   3.097   7.797   0.846
 8392WAT     H225419   2.992   7.836   0.728
 8393WAT      O25420   4.048   3.483   0.759
 8393WAT     H125421   4.016   3.526   0.674
 8393WAT     H225422   4.064   3.554   0.828
 8394WAT      O25423   6.980   1.012   0.035
 8394WAT     H125424   6.908   0.997  -0.034
 8394WAT     H225425   7.064   1.040  -0.011
 8395WAT      O25426   2.159   3.861   8.064
 8395WAT     H125427   2.148   3.763   8.047
 8395WAT     H225428   2.253   3.888   8.044
 8396WAT      O25429   6.868   0.179   1.391
 8396WAT     H125430   6.843   0.090   1.431
 8396WAT     H225431   6.951   0.213   1.435
 8397WAT      O25432   2.604   0.943   8.078
 8397WAT     H125433   2.679   0.937   8.013
 8397WAT     H225434   2.638   0.980   8.165
 8398WAT      O25435   7.396   7.481   4.034
 8398WAT     H125436   7.374   7.478   4.131
 8398WAT     H225437   7.428   7.391   4.003
 8399WAT      O25438   7.287   9.493   8.401
 8399WAT     H125439   7.197   9.458   8.379
 8399WAT     H225440   7.304   9.485   8.499
 8400WAT      O25441   7.208   3.479   2.971
 8400WAT     H125442   7.153   3.429   2.903
 8400WAT     H225443   7.249   3.559   2.928
 8401WAT      O25444   5.292   4.609   6.691
 8401WAT     H125445   5.332   4.579   6.777
 8401WAT     H225446   5.224   4.681   6.709
 8402WAT      O25447   0.078   6.484   0.223
 8402WAT     H125448   0.045   6.413   0.161
 8402WAT     H225449   0.088   6.446   0.315
 8403WAT      O25450   5.381   2.784   6.852
 8403WAT     H125451   5.398   2.877   6.821
 8403WAT     H225452   5.286   2.759   6.833
 8404WAT      O25453   7.335   5.273   4.403
 8404WAT     H125454   7.328   5.370   4.427
 8404WAT     H225455   7.246   5.240   4.370
 8405WAT      O25456   7.403   0.608   3.569
 8405WAT     H125457   7.473   0.563   3.515
 8405WAT     H225458   7.356   0.677   3.513
 8406WAT      O25459   0.000   6.042   8.294
 8406WAT     H125460   0.019   6.083   8.383
 8406WAT     H225461   0.078   5.986   8.266
 8407WAT      O25462   3.481   3.489   1.776
 8407WAT     H125463   3.384   3.507   1.757
 8407WAT     H225464   3.518   3.562   1.833
 8408WAT      O25465   2.983   4.978   3.864
 8408WAT     H125466   3.029   4.901   3.820
 8408WAT     H225467   2.908   5.009   3.806
 8409WAT      O25468   4.806   0.598   1.660
 8409WAT     H125469   4.891   0.628   1.618
 8409WAT     H225470   4.729   0.623   1.602
 8410WAT      O25471   6.627   8.750   4.839
 8410WAT     H125472   6.720   8.717   4.860
 8410WAT     H225473   6.583   8.782   4.923
 8411WAT      O25474   5.612   3.045   3.621
 8411WAT     H125475   5.669   3.124   3.645
 8411WAT     H225476   5.640   3.010   3.532
 8412WAT      O25477   4.499   8.353   0.182
 8412WAT     H125478   4.548   8.278   0.229
 8412WAT     H225479   4.501   8.336   0.083
 8413WAT      O25480   2.211   4.523   6.483
 8413WAT     H125481   2.180   4.515   6.388
 8413WAT     H225482   2.146   4.475   6.543
 8414WAT      O25483   3.617   1.287   8.642
 8414WAT     H125484   3.596   1.294   8.739
 8414WAT     H225485   3.632   1.378   8.604
 8415WAT      O25486   0.085   2.833   4.393
 8415WAT     H125487   0.134   2.779   4.325
 8415WAT     H225488   0.000   2.786   4.419
 8416WAT      O25489   0.657   0.163   3.603
 8416WAT     H125490   0.703   0.248   3.578
 8416WAT     H225491   0.662   0.150   3.702
 8417WAT      O25492   4.458   3.934   9.012
 8417WAT     H125493   4.508   4.000   9.069
 8417WAT     H225494   4.461   3.844   9.056
 8418WAT      O25495   4.384   0.893   8.467
 8418WAT     H125496   4.421   0.980   8.499
 8418WAT     H225497   4.375   0.829   8.544
 8419WAT      O25498   5.908   0.522   7.555
 8419WAT     H125499   5.977   0.587   7.588
 8419WAT     H225500   5.817   0.561   7.568
 8420WAT      O25501   7.207   7.883   1.841
 8420WAT     H125502   7.122   7.856   1.887
 8420WAT     H225503   7.277   7.813   1.859
 8421WAT      O25504   3.234   4.565   9.017
 8421WAT     H125505   3.295   4.486   9.015
 8421WAT     H225506   3.142   4.536   8.990
 8422WAT      O25507   9.390   1.772   8.133
 8422WAT     H125508   9.489   1.761   8.141
 8422WAT     H225509   9.368   1.805   8.041
 8423WAT      O25510   5.879   5.338   0.997
 8423WAT     H125511   5.942   5.366   0.925
 8423WAT     H225512   5.892   5.396   1.078
 8424WAT      O25513   3.467   0.432   7.795
 8424WAT     H125514   3.465   0.532   7.794
 8424WAT     H225515   3.531   0.399   7.725
 8425WAT      O25516   6.732   2.424   9.380
 8425WAT     H125517   6.679   2.469   9.309
 8425WAT     H225518   6.671   2.396   9.455
 8426WAT      O25519   8.280   4.344   5.074
 8426WAT     H125520   8.188   4.373   5.047
 8426WAT     H225521   8.288   4.245   5.066
 8427WAT      O25522   6.190   0.152   6.254
 8427WAT     H125523   6.260   0.174   6.187
 8427WAT     H225524   6.147   0.237   6.286
 8428WAT      O25525   7.240   5.450   3.877
 8428WAT     H125526   7.207   5.411   3.791
 8428WAT     H225527   7.235   5.381   3.949
 8429WAT      O25528   2.721   2.019   9.708
 8429WAT     H125529   2.753   2.114   9.707
 8429WAT     H225530   2.792   1.960   9.747
 8430WAT      O25531   5.085   4.139   0.052
 8430WAT     H125532   5.156   4.201   0.086
 8430WAT     H225533   5.003   4.191   0.028
 8431WAT      O25534   6.393   2.473   0.256
 8431WAT     H125535   6.306   2.450   0.211
 8431WAT     H225536   6.375   2.505   0.349
 8432WAT      O25537   0.612   7.430   5.463
 8432WAT     H125538   0.550   7.379   5.522
 8432WAT     H225539   0.683   7.473   5.519
 8433WAT      O25540   1.935   0.440   6.370
 8433WAT     H125541   1.914   0.449   6.467
 8433WAT     H225542   1.854   0.406   6.322
 8434WAT      O25543   5.191   9.391   0.176
 8434WAT     H125544   5.124   9.316   0.179
 8434WAT     H225545   5.262   9.375   0.245
 8435WAT      O25546   9.091   2.219   9.179
 8435WAT     H125547   9.055   2.279   9.107
 8435WAT     H225548   9.164   2.162   9.141
 8436WAT      O25549   6.102   1.796   8.142
 8436WAT     H125550   6.029   1.860   8.168
 8436WAT     H225551   6.094   1.776   8.044
 8437WAT      O25552   0.734   9.473   8.634
 8437WAT     H125553   0.744   9.463   8.733
 8437WAT     H225554   0.808   9.531   8.598
 8438WAT      O25555   1.764   9.816   2.203
 8438WAT     H125556   1.675   9.804   2.248
 8438WAT     H225557   1.806   9.726   2.188
 8439WAT      O25558   2.469   0.253   9.104
 8439WAT     H125559   2.413   0.174   9.076
 8439WAT     H225560   2.411   0.334   9.110
 8440WAT      O25561   0.722   4.528   4.244
 8440WAT     H125562   0.768   4.543   4.331
 8440WAT     H225563   0.648   4.595   4.233
 8441WAT      O25564   3.888   0.451   6.926
 8441WAT     H125565   3.969   0.508   6.922
 8441WAT     H225566   3.848   0.443   6.835
 8442WAT      O25567   7.035   7.134   0.257
 8442WAT     H125568   7.033   7.069   0.181
 8442WAT     H225569   6.966   7.205   0.242
 8443WAT      O25570   7.770   6.565   1.756
 8443WAT     H125571   7.811   6.644   1.801
 8443WAT     H225572   7.764   6.489   1.822
 8444WAT      O25573   9.610   8.961   6.763
 8444WAT     H125574   9.520   8.923   6.739
 8444WAT     H225575   9.674   8.886   6.779
 8445WAT      O25576   2.239   0.955   0.901
 8445WAT     H125577   2.283   0.922   0.985
 8445WAT     H225578   2.234   0.880   0.835
 8446WAT      O25579   6.769   1.279   2.724
 8446WAT     H125580   6.669   1.289   2.727
 8446WAT     H225581   6.807   1.346   2.660
 8447WAT      O25582   7.287   3.042   0.338
 8447WAT     H125583   7.357   3.099   0.295
 8447WAT     H225584   7.199   3.058   0.294
 8448WAT      O25585   6.779   0.283   9.057
 8448WAT     H125586   6.724   0.336   9.121
 8448WAT     H225587   6.836   0.218   9.107
 8449WAT      O25588   7.462   5.415   9.185
 8449WAT     H125589   7.390   5.360   9.141
 8449WAT     H225590   7.424   5.462   9.265
 8450WAT      O25591   1.994   8.998   2.786
 8450WAT     H125592   1.976   8.932   2.713
 8450WAT     H225593   2.086   8.985   2.822
 8451WAT      O25594   3.453   3.016   3.946
 8451WAT     H125595   3.392   2.949   3.903
 8451WAT     H225596   3.415   3.108   3.934
 8452WAT      O25597   1.168   8.739   6.968
 8452WAT     H125598   1.150   8.735   7.067
 8452WAT     H225599   1.230   8.666   6.942
 8453WAT      O25600   6.591   7.415   1.114
 8453WAT     H125601   6.627   7.336   1.162
 8453WAT     H225602   6.511   7.388   1.060
 8454WAT      O25603   1.331   0.366   8.784
 8454WAT     H125604   1.387   0.331   8.709
 8454WAT     H225605   1.270   0.294   8.817
 8455WAT      O25606   4.944   5.646   0.920
 8455WAT     H125607   5.018   5.651   0.854
 8455WAT     H225608   4.969   5.582   0.993
 8456WAT      O25609   8.548   2.560   1.492
 8456WAT     H125610   8.632   2.550   1.545
 8456WAT     H225611   8.478   2.603   1.549
 8457WAT      O25612   7.643   7.938   9.689
 8457WAT     H125613   7.655   7.879   9.609
 8457WAT     H225614   7.607   8.027   9.660
 8458WAT      O25615   0.862   2.001   8.477
 8458WAT     H125616   0.792   1.960   8.536
 8458WAT     H225617   0.916   1.928   8.436
 8459WAT      O25618   3.550   9.594   7.536
 8459WAT     H125619   3.639   9.555   7.511
 8459WAT     H225620   3.512   9.543   7.613
 8460WAT      O25621   3.360   5.121   5.607
 8460WAT     H125622   3.403   5.051   5.551
 8460WAT     H225623   3.317   5.190   5.548
 8461WAT      O25624   6.564   9.809   6.652
 8461WAT     H125625   6.540   9.885   6.713
 8461WAT     H225626   6.505   9.811   6.572
 8462WAT      O25627   3.948   7.829   2.146
 8462WAT     H125628   3.990   7.744   2.115
 8462WAT     H225629   3.911   7.816   2.238
 8463WAT      O25630   7.170   2.634   8.832
 8463WAT     H125631   7.104   2.588   8.891
 8463WAT     H225632   7.222   2.566   8.781
 8464WAT      O25633   8.762   1.400   6.670
 8464WAT     H125634   8.676   1.450   6.660
 8464WAT     H225635   8.745   1.310   6.710
 8465WAT      O25636   0.587   9.411   8.190
 8465WAT     H125637   0.631   9.499   8.173
 8465WAT     H225638   0.633   9.365   8.266
 8466WAT      O25639   4.842   6.475   5.729
 8466WAT     H125640   4.826   6.465   5.827
 8466WAT     H225641   4.939   6.460   5.710
 8467WAT      O25642   7.048   5.465   8.186
 8467WAT     H125643   6.981   5.393   8.202
 8467WAT     H225644   7.033   5.539   8.252
 8468WAT      O25645   9.823   5.113   7.215
 8468WAT     H125646   9.748   5.147   7.272
 8468WAT     H225647   9.789   5.094   7.123
 8469WAT      O25648   6.213   3.978   6.370
 8469WAT     H125649   6.196   3.890   6.325
 8469WAT     H225650   6.253   4.042   6.305
 8470WAT      O25651   5.646   0.233   9.723
 8470WAT     H125652   5.626   0.218   9.820
 8470WAT     H225653   5.692   0.321   9.711
 8471WAT      O25654   7.421   9.698   9.303
 8471WAT     H125655   7.379   9.611   9.330
 8471WAT     H225656   7.349   9.762   9.277
 8472WAT      O25657   0.583   6.790   9.021
 8472WAT     H125658   0.632   6.846   8.953
 8472WAT     H225659   0.574   6.841   9.106
 8473WAT      O25660   8.783   0.886   3.780
 8473WAT     H125661   8.787   0.915   3.684
 8473WAT     H225662   8.875   0.865   3.812
 8474WAT      O25663   4.338   2.301   1.836
 8474WAT     H125664   4.318   2.215   1.882
 8474WAT     H225665   4.298   2.300   1.744
 8475WAT      O25666   5.887   5.078   2.817
 8475WAT     H125667   5.887   4.988   2.861
 8475WAT     H225668   5.917   5.147   2.882
 8476WAT      O25669   3.577   8.576   0.562
 8476WAT     H125670   3.641   8.552   0.489
 8476WAT     H225671   3.625   8.630   0.631
 8477WAT      O25672   9.160   6.634   7.094
 8477WAT     H125673   9.144   6.719   7.044
 8477WAT     H225674   9.168   6.559   7.029
 8478WAT      O25675   3.844   7.720   3.001
 8478WAT     H125676   3.931   7.686   2.964
 8478WAT     H225677   3.799   7.646   3.050
 8479WAT      O25678   0.846   0.643   2.154
 8479WAT     H125679   0.875   0.738   2.148
 8479WAT     H225680   0.864   0.609   2.246
 8480WAT      O25681   9.023   3.404   6.679
 8480WAT     H125682   9.022   3.503   6.692
 8480WAT     H225683   9.070   3.361   6.757
 8481WAT      O25684   0.500   7.160   5.365
 8481WAT     H125685   0.538   7.251   5.346
 8481WAT     H225686   0.440   7.133   5.290
 8482WAT      O25687   0.418   4.129   4.221
 8482WAT     H125688   0.506   4.173   4.204
 8482WAT     H225689   0.398   4.131   4.319
 8483WAT      O25690   8.537   5.539   0.758
 8483WAT     H125691   8.523   5.449   0.718
 8483WAT     H225692   8.502   5.609   0.695
 8484WAT      O25693   4.670   4.973   6.615
 8484WAT     H125694   4.758   5.018   6.629
 8484WAT     H225695   4.685   4.878   6.588
 8485WAT      O25696   6.869   1.115   0.420
 8485WAT     H125697   6.798   1.181   0.442
 8485WAT     H225698   6.959   1.159   0.426
 8486WAT      O25699   5.097   6.703   3.732
 8486WAT     H125700   5.148   6.746   3.658
 8486WAT     H225701   5.103   6.759   3.814
 8487WAT      O25702   5.523   2.255   4.566
 8487WAT     H125703   5.441   2.231   4.513
 8487WAT     H225704   5.529   2.354   4.574
 8488WAT      O25705   5.798   1.226   9.361
 8488WAT     H125706   5.752   1.253   9.276
 8488WAT     H225707   5.731   1.194   9.427
 8489WAT      O25708   1.890   4.989   4.777
 8489WAT     H125709   1.944   5.005   4.694
 8489WAT     H225710   1.916   5.056   4.846
 8490WAT      O25711   6.061   6.118   4.246
 8490WAT     H125712   6.092   6.213   4.258
 8490WAT     H225713   5.967   6.118   4.212
 8491WAT      O25714   4.175   5.137   3.112
 8491WAT     H125715   4.109   5.104   3.045
 8491WAT     H225716   4.237   5.202   3.069
 8492WAT      O25717   9.037   1.491   7.464
 8492WAT     H125718   8.953   1.454   7.423
 8492WAT     H225719   9.020   1.514   7.559
 8493WAT      O25720   0.888   4.360   0.025
 8493WAT     H125721   0.827   4.387   0.100
 8493WAT     H225722   0.983   4.363   0.057
 8494WAT      O25723   4.886   8.290   5.704
 8494WAT     H125724   4.802   8.343   5.698
 8494WAT     H225725   4.962   8.351   5.728
 8495WAT      O25726   5.077   4.807   6.572
 8495WAT     H125727   5.028   4.890   6.549
 8495WAT     H225728   5.089   4.751   6.490
 8496WAT      O25729   2.687   0.925   8.356
 8496WAT     H125730   2.685   0.841   8.410
 8496WAT     H225731   2.699   1.003   8.417
 8497WAT      O25732   2.485   6.334   8.120
 8497WAT     H125733   2.584   6.328   8.133
 8497WAT     H225734   2.449   6.245   8.093
 8498WAT      O25735   5.937   5.238   7.942
 8498WAT     H125736   5.908   5.147   7.911
 8498WAT     H225737   5.954   5.296   7.862
 8499WAT      O25738   0.242   9.488   4.051
 8499WAT     H125739   0.261   9.569   3.996
 8499WAT     H225740   0.253   9.406   3.995
 8500WAT      O25741   7.904   0.867   6.071
 8500WAT     H125742   7.906   0.858   6.170
 8500WAT     H225743   7.962   0.797   6.029
 8501WAT      O25744   6.843   4.110   0.104
 8501WAT     H125745   6.788   4.193   0.115
 8501WAT     H225746   6.922   4.113   0.165
 8502WAT      O25747   5.255   3.294   3.424
 8502WAT     H125748   5.259   3.319   3.327
 8502WAT     H225749   5.262   3.377   3.479
 8503WAT      O25750   9.670   1.014   8.947
 8503WAT     H125751   9.716   1.044   9.030
 8503WAT     H225752   9.589   1.071   8.931
 8504WAT      O25753   8.735   7.791   8.719
 8504WAT     H125754   8.803   7.810   8.648
 8504WAT     H225755   8.663   7.733   8.681
 8505WAT      O25756   0.094   1.881   4.201
 8505WAT     H125757   0.096   1.832   4.114
 8505WAT     H225758   0.054   1.972   4.187
 8506WAT      O25759   1.415   5.401   6.669
 8506WAT     H125760   1.447   5.353   6.751
 8506WAT     H225761   1.370   5.335   6.608
 8507WAT      O25762   9.337   2.648   0.478
 8507WAT     H125763   9.324   2.557   0.439
 8507WAT     H225764   9.356   2.714   0.405
 8508WAT      O25765   2.216   9.397   9.861
 8508WAT     H125766   2.126   9.440   9.876
 8508WAT     H225767   2.254   9.369   9.949
 8509WAT      O25768   7.304   7.724   3.980
 8509WAT     H125769   7.331   7.795   4.046
 8509WAT     H225770   7.334   7.635   4.013
 8510WAT      O25771   3.885   2.586   5.777
 8510WAT     H125772   3.972   2.550   5.745
 8510WAT     H225773   3.899   2.635   5.864
 8511WAT      O25774   0.373   7.613   2.315
 8511WAT     H125775   0.316   7.538   2.349
 8511WAT     H225776   0.408   7.666   2.392
 8512WAT      O25777   7.864   5.607   7.169
 8512WAT     H125778   7.883   5.683   7.231
 8512WAT     H225779   7.937   5.601   7.101
 8513WAT      O25780   5.560   6.890   1.736
 8513WAT     H125781   5.479   6.943   1.713
 8513WAT     H225782   5.609   6.865   1.652
 8514WAT      O25783   1.866   0.129   4.155
 8514WAT     H125784   1.781   0.117   4.105
 8514WAT     H225785   1.923   0.197   4.110
 8515WAT      O25786   6.894   8.483   1.180
 8515WAT     H125787   6.878   8.386   1.161
 8515WAT     H225788   6.990   8.496   1.205
 8516WAT      O25789   8.597   3.289   4.747
 8516WAT     H125790   8.681   3.302   4.799
 8516WAT     H225791   8.527   3.353   4.781
 8517WAT      O25792   2.495   8.870   0.744
 8517WAT     H125793   2.441   8.807   0.688
 8517WAT     H225794   2.586   8.881   0.704
 8518WAT      O25795   4.084   3.577   1.349
 8518WAT     H125796   4.036   3.524   1.280
 8518WAT     H225797   4.160   3.626   1.307
 8519WAT      O25798   5.772   3.544   1.289
 8519WAT     H125799   5.840   3.478   1.321
 8519WAT     H225800   5.811   3.599   1.215
 8520WAT      O25801   3.516   2.272   4.059
 8520WAT     H125802   3.499   2.191   4.115
 8520WAT     H225803   3.519   2.246   3.963
 8521WAT      O25804   6.706   0.827   3.069
 8521WAT     H125805   6.776   0.892   3.039
 8521WAT     H225806   6.734   0.786   3.156
 8522WAT      O25807   9.133   1.447   1.677
 8522WAT     H125808   9.131   1.515   1.749
 8522WAT     H225809   9.142   1.492   1.588
 8523WAT      O25810   8.553   3.784   0.587
 8523WAT     H125811   8.602   3.854   0.639
 8523WAT     H225812   8.455   3.802   0.591
 8524WAT      O25813   7.772   0.584   6.334
 8524WAT     H125814   7.801   0.563   6.428
 8524WAT     H225815   7.797   0.677   6.311
 8525WAT      O25816   3.835   5.208   7.626
 8525WAT     H125817   3.868   5.241   7.538
 8525WAT     H225818   3.759   5.266   7.656
 8526WAT      O25819   3.959   1.591   2.128
 8526WAT     H125820   4.058   1.579   2.117
 8526WAT     H225821   3.922   1.635   2.046
 8527WAT      O25822   4.411   3.048   9.543
 8527WAT     H125823   4.431   3.139   9.579
 8527WAT     H225824   4.458   2.979   9.598
 8528WAT      O25825   5.590   2.611   4.240
 8528WAT     H125826   5.652   2.584   4.166
 8528WAT     H225827   5.610   2.705   4.267
 8529WAT      O25828   1.685   5.005   0.187
 8529WAT     H125829   1.705   5.088   0.136
 8529WAT     H225830   1.592   4.974   0.167
 8530WAT      O25831   8.045   6.634   2.004
 8530WAT     H125832   8.039   6.730   2.030
 8530WAT     H225833   7.961   6.607   1.958
 8531WAT      O25834   0.663   6.962   7.362
 8531WAT     H125835   0.760   6.937   7.361
 8531WAT     H225836   0.649   7.039   7.424
 8532WAT      O25837   2.027   1.511   9.779
 8532WAT     H125838   1.933   1.545   9.775
 8532WAT     H225839   2.038   1.451   9.858
 8533WAT      O25840   4.121   2.749   1.218
 8533WAT     H125841   4.070   2.830   1.188
 8533WAT     H225842   4.057   2.679   1.249
 8534WAT      O25843   6.446   1.455   0.980
 8534WAT     H125844   6.372   1.401   1.022
 8534WAT     H225845   6.484   1.517   1.048
 8535WAT      O25846   8.134   1.646   2.020
 8535WAT     H125847   8.234   1.656   2.019
 8535WAT     H225848   8.103   1.621   1.928
 8536WAT      O25849   1.281   8.751   2.392
 8536WAT     H125850   1.199   8.723   2.442
 8536WAT     H225851   1.358   8.694   2.420
 8537WAT      O25852   2.308   5.801   8.721
 8537WAT     H125853   2.321   5.856   8.639
 8537WAT     H225854   2.282   5.861   8.797
 8538WAT      O25855   0.472   0.574   4.484
 8538WAT     H125856   0.529   0.656   4.475
 8538WAT     H225857   0.473   0.523   4.398
 8539WAT      O25858   7.985   4.337   1.716
 8539WAT     H125859   7.916   4.363   1.783
 8539WAT     H225860   7.985   4.237   1.705
 8540WAT      O25861   6.023   3.997   6.766
 8540WAT     H125862   5.968   3.948   6.834
 8540WAT     H225863   5.992   4.092   6.761
 8541WAT      O25864   3.130   3.396   1.327
 8541WAT     H125865   3.179   3.311   1.308
 8541WAT     H225866   3.046   3.400   1.272
 8542WAT      O25867   7.320   3.514   8.749
 8542WAT     H125868   7.383   3.553   8.816
 8542WAT     H225869   7.343   3.548   8.658
 8543WAT      O25870   1.373   7.741   5.513
 8543WAT     H125871   1.425   7.711   5.592
 8543WAT     H225872   1.400   7.834   5.488
 8544WAT      O25873   2.218   1.116   9.695
 8544WAT     H125874   2.118   1.108   9.692
 8544WAT     H225875   2.259   1.025   9.686
 8545WAT      O25876   2.257   5.573   8.548
 8545WAT     H125877   2.255   5.593   8.450
 8545WAT     H225878   2.272   5.657   8.599
 8546WAT      O25879   1.894   3.585   8.937
 8546WAT     H125880   1.991   3.600   8.921
 8546WAT     H225881   1.848   3.572   8.849
 8547WAT      O25882   2.429   0.852   2.805
 8547WAT     H125883   2.497   0.828   2.735
 8547WAT     H225884   2.434   0.785   2.879
 8548WAT      O25885   9.811   2.788   6.614
 8548WAT     H125886   9.751   2.868   6.617
 8548WAT     H225887   9.756   2.707   6.595
 8549WAT      O25888   8.466   2.018   8.848
 8549WAT     H125889   8.444   1.975   8.935
 8549WAT     H225890   8.514   1.953   8.789
 8550WAT      O25891   8.975   4.310   0.228
 8550WAT     H125892   8.965   4.253   0.309
 8550WAT     H225893   8.903   4.379   0.227
 8551WAT      O25894   9.751   5.943   5.861
 8551WAT     H125895   9.730   6.001   5.782
 8551WAT     H225896   9.850   5.930   5.867
 8552WAT      O25897   9.420   5.621   6.999
 8552WAT     H125898   9.415   5.689   6.926
 8552WAT     H225899   9.338   5.626   7.056
 8553WAT      O25900   4.535   0.715   4.370
 8553WAT     H125901   4.497   0.640   4.426
 8553WAT     H225902   4.616   0.682   4.322
 8554WAT      O25903   0.011   0.084   0.651
 8554WAT     H125904  -0.032   0.106   0.739
 8554WAT     H225905   0.052  -0.008   0.656
 8555WAT      O25906   9.045   8.623   4.064
 8555WAT     H125907   9.100   8.556   4.114
 8555WAT     H225908   9.097   8.654   3.983
 8556WAT      O25909   9.058   3.797   9.035
 8556WAT     H125910   9.079   3.784   8.938
 8556WAT     H225911   8.999   3.722   9.066
 8557WAT      O25912   7.385   7.674   7.185
 8557WAT     H125913   7.433   7.594   7.220
 8557WAT     H225914   7.437   7.715   7.110
 8558WAT      O25915   8.765   9.785   6.319
 8558WAT     H125916   8.667   9.803   6.330
 8558WAT     H225917   8.809   9.788   6.408
 8559WAT      O25918   7.660   8.860   8.506
 8559WAT     H125919   7.687   8.840   8.412
 8559WAT     H225920   7.739   8.892   8.558
 8560WAT      O25921   8.521   5.721   4.271
 8560WAT     H125922   8.503   5.625   4.248
 8560WAT     H225923   8.528   5.775   4.187
 8561WAT      O25924   1.391   2.103   8.653
 8561WAT     H125925   1.341   2.017   8.645
 8561WAT     H225926   1.354   2.157   8.728
 8562WAT      O25927   2.959   9.613   1.247
 8562WAT     H125928   3.008   9.619   1.159
 8562WAT     H225929   2.874   9.563   1.234
 8563WAT      O25930   6.069   8.615   1.107
 8563WAT     H125931   6.104   8.522   1.117
 8563WAT     H225932   5.972   8.616   1.131
 8564WAT      O25933   4.575   7.593   3.514
 8564WAT     H125934   4.638   7.659   3.472
 8564WAT     H225935   4.564   7.616   3.611
 8565WAT      O25936   1.743   7.252   4.259
 8565WAT     H125937   1.843   7.262   4.259
 8565WAT     H225938   1.702   7.320   4.319
 8566WAT      O25939   5.220   3.622   4.616
 8566WAT     H125940   5.221   3.657   4.709
 8566WAT     H225941   5.313   3.602   4.586
 8567WAT      O25942   3.672   1.351   4.995
 8567WAT     H125943   3.743   1.406   5.038
 8567WAT     H225944   3.625   1.297   5.065
 8568WAT      O25945   8.559   9.096   3.174
 8568WAT     H125946   8.484   9.031   3.177
 8568WAT     H225947   8.603   9.102   3.264
 8569WAT      O25948   5.988   5.638   0.965
 8569WAT     H125949   6.011   5.588   0.881
 8569WAT     H225950   5.969   5.734   0.942
 8570WAT      O25951   8.594   8.445   2.427
 8570WAT     H125952   8.635   8.373   2.370
 8570WAT     H225953   8.507   8.412   2.464
 8571WAT      O25954   1.065   9.148   1.675
 8571WAT     H125955   1.068   9.155   1.576
 8571WAT     H225956   1.125   9.074   1.705
 8572WAT      O25957   2.491   2.206   8.440
 8572WAT     H125958   2.558   2.277   8.461
 8572WAT     H225959   2.430   2.193   8.519
 8573WAT      O25960   1.763   2.194   7.574
 8573WAT     H125961   1.754   2.188   7.474
 8573WAT     H225962   1.840   2.253   7.597
 8574WAT      O25963   0.388   7.884   5.457
 8574WAT     H125964   0.371   7.809   5.521
 8574WAT     H225965   0.462   7.858   5.394
 8575WAT      O25966   7.237   8.309   0.914
 8575WAT     H125967   7.314   8.348   0.965
 8575WAT     H225968   7.161   8.374   0.913
 8576WAT      O25969   8.747   1.054   7.485
 8576WAT     H125970   8.846   1.062   7.502
 8576WAT     H225971   8.732   0.992   7.408
 8577WAT      O25972   6.782   8.674   2.357
 8577WAT     H125973   6.691   8.673   2.315
 8577WAT     H225974   6.791   8.596   2.418
 8578WAT      O25975   2.800   5.668   2.853
 8578WAT     H125976   2.795   5.579   2.807
 8578WAT     H225977   2.726   5.726   2.821
 8579WAT      O25978   8.753   2.079   6.042
 8579WAT     H125979   8.709   2.130   6.115
 8579WAT     H225980   8.742   2.129   5.956
 8580WAT      O25981   9.230   4.821   6.385
 8580WAT     H125982   9.207   4.907   6.339
 8580WAT     H225983   9.269   4.757   6.319
 8581WAT      O25984   1.280   9.597   5.352
 8581WAT     H125985   1.326   9.559   5.272
 8581WAT     H225986   1.200   9.540   5.374
 8582WAT      O25987   4.521   5.560   9.055
 8582WAT     H125988   4.621   5.566   9.065
 8582WAT     H225989   4.490   5.629   8.990
 8583WAT      O25990   2.940   7.545   5.577
 8583WAT     H125991   2.921   7.448   5.593
 8583WAT     H225992   2.854   7.596   5.574
 8584WAT      O25993   6.169   4.947   7.563
 8584WAT     H125994   6.167   5.015   7.489
 8584WAT     H225995   6.175   4.855   7.524
 8585WAT      O25996   5.216   5.635   8.322
 8585WAT     H125997   5.145   5.628   8.392
 8585WAT     H225998   5.306   5.635   8.365
 8586WAT      O25999   7.204   7.503   0.112
 8586WAT     H126000   7.129   7.566   0.129
 8586WAT     H226001   7.291   7.551   0.117
 8587WAT      O26002   6.967   3.066   7.471
 8587WAT     H126003   6.911   3.030   7.396
 8587WAT     H226004   6.941   3.161   7.489
 8588WAT      O26005   8.520   4.824   1.971
 8588WAT     H126006   8.605   4.876   1.975
 8588WAT     H226007   8.474   4.829   2.060
 8589WAT      O26008   5.574   2.935   5.107
 8589WAT     H126009   5.610   2.851   5.149
 8589WAT     H226010   5.636   2.964   5.034
 8590WAT      O26011   8.561   6.829   6.539
 8590WAT     H126012   8.621   6.907   6.556
 8590WAT     H226013   8.575   6.795   6.446
 8591WAT      O26014   9.758   5.019   0.493
 8591WAT     H126015   9.836   5.000   0.433
 8591WAT     H226016   9.790   5.040   0.585
 8592WAT      O26017   2.075   1.275   2.024
 8592WAT     H126018   2.095   1.372   2.039
 8592WAT     H226019   2.144   1.236   1.963
 8593WAT      O26020   3.350   2.098   7.242
 8593WAT     H126021   3.287   2.021   7.234
 8593WAT     H226022   3.400   2.091   7.328
 8594WAT      O26023   4.567   8.597   2.655
 8594WAT     H126024   4.590   8.607   2.559
 8594WAT     H226025   4.648   8.569   2.706
 8595WAT      O26026   8.464   1.615   1.664
 8595WAT     H126027   8.484   1.685   1.732
 8595WAT     H226028   8.504   1.641   1.576
 8596WAT      O26029   2.125   2.855   1.408
 8596WAT     H126030   2.055   2.903   1.355
 8596WAT     H226031   2.207   2.843   1.352
 8597WAT      O26032   7.663   2.806   3.819
 8597WAT     H126033   7.567   2.786   3.838
 8597WAT     H226034   7.721   2.736   3.861
 8598WAT      O26035   1.511   0.209   5.358
 8598WAT     H126036   1.438   0.277   5.360
 8598WAT     H226037   1.511   0.157   5.444
 8599WAT      O26038   4.588   8.071   6.629
 8599WAT     H126039   4.672   8.089   6.577
 8599WAT     H226040   4.599   7.986   6.680
 8600WAT      O26041   6.670   3.166   2.727
 8600WAT     H126042   6.642   3.095   2.662
 8600WAT     H226043   6.736   3.128   2.791
 8601WAT      O26044   1.577   7.344   8.402
 8601WAT     H126045   1.539   7.332   8.493
 8601WAT     H226046   1.516   7.401   8.348
 8602WAT      O26047   6.796   1.784   8.923
 8602WAT     H126048   6.767   1.727   8.846
 8602WAT     H226049   6.720   1.797   8.986
 8603WAT      O26050   9.197   0.551   9.040
 8603WAT     H126051   9.116   0.514   9.086
 8603WAT     H226052   9.228   0.633   9.087
 8604WAT      O26053   0.129   4.532   5.696
 8604WAT     H126054   0.034   4.519   5.724
 8604WAT     H226055   0.142   4.627   5.665
 8605WAT      O26056   1.287   3.680   4.774
 8605WAT     H126057   1.383   3.686   4.745
 8605WAT     H226058   1.265   3.759   4.831
 8606WAT      O26059   6.399   0.705   7.613
 8606WAT     H126060   6.361   0.635   7.552
 8606WAT     H226061   6.497   0.688   7.626
 8607WAT      O26062   9.786   0.787   2.710
 8607WAT     H126063   9.865   0.837   2.674
 8607WAT     H226064   9.724   0.851   2.755
 8608WAT      O26065   9.450   6.999   3.675
 8608WAT     H126066   9.425   7.075   3.615
 8608WAT     H226067   9.430   6.913   3.629
 8609WAT      O26068   5.929   3.583   4.135
 8609WAT     H126069   5.849   3.526   4.117
 8609WAT     H226070   6.010   3.525   4.142
 8610WAT      O26071   0.598   7.180   0.243
 8610WAT     H126072   0.501   7.192   0.224
 8610WAT     H226073   0.617   7.200   0.339
 8611WAT      O26074   6.511   5.811   9.700
 8611WAT     H126075   6.421   5.845   9.726
 8611WAT     H226076   6.551   5.872   9.632
 8612WAT      O26077   2.182   3.303   6.037
 8612WAT     H126078   2.143   3.236   6.100
 8612WAT     H226079   2.186   3.265   5.945
 8613WAT      O26080   2.291   2.899   8.562
 8613WAT     H126081   2.311   2.989   8.523
 8613WAT     H226082   2.369   2.838   8.546
 8614WAT      O26083   4.848   8.113   4.887
 8614WAT     H126084   4.909   8.117   4.808
 8614WAT     H226085   4.773   8.178   4.874
 8615WAT      O26086   2.300   2.185   5.253
 8615WAT     H126087   2.383   2.239   5.242
 8615WAT     H226088   2.260   2.167   5.164
 8616WAT      O26089   5.644   7.211   4.541
 8616WAT     H126090   5.696   7.296   4.540
 8616WAT     H226091   5.584   7.210   4.621
 8617WAT      O26092   0.177   0.919   6.619
 8617WAT     H126093   0.232   0.879   6.692
 8617WAT     H226094   0.088   0.947   6.656
 8618WAT      O26095   6.914   4.379   2.405
 8618WAT     H126096   6.822   4.365   2.371
 8618WAT     H226097   6.923   4.338   2.496
 8619WAT      O26098   3.119   3.376   6.276
 8619WAT     H126099   3.151   3.388   6.370
 8619WAT     H226100   3.077   3.286   6.266
 8620WAT      O26101   0.287   0.346   4.900
 8620WAT     H126102   0.318   0.409   4.828
 8620WAT     H226103   0.308   0.386   4.990
 8621WAT      O26104   4.131   1.446   5.190
 8621WAT     H126105   4.220   1.473   5.153
 8621WAT     H226106   4.142   1.363   5.245
 8622WAT      O26107   4.782   9.421   0.835
 8622WAT     H126108   4.698   9.467   0.865
 8622WAT     H226109   4.789   9.332   0.880
 8623WAT      O26110   6.407   0.285   0.594
 8623WAT     H126111   6.314   0.262   0.625
 8623WAT     H226112   6.457   0.201   0.575
 8624WAT      O26113   3.598   2.409   0.238
 8624WAT     H126114   3.639   2.449   0.156
 8624WAT     H226115   3.657   2.427   0.316
 8625WAT      O26116   1.816   2.527   8.210
 8625WAT     H126117   1.865   2.448   8.247
 8625WAT     H226118   1.822   2.526   8.110
 8626WAT      O26119   6.370   3.256   0.124
 8626WAT     H126120   6.353   3.297   0.035
 8626WAT     H226121   6.468   3.250   0.140
 8627WAT      O26122   9.115   8.220   4.836
 8627WAT     H126123   9.207   8.185   4.817
 8627WAT     H226124   9.048   8.154   4.802
 8628WAT      O26125   5.313   6.265   0.671
 8628WAT     H126126   5.315   6.166   0.688
 8628WAT     H226127   5.404   6.296   0.645
 8629WAT      O26128   1.474   1.629   9.098
 8629WAT     H126129   1.449   1.723   9.123
 8629WAT     H226130   1.396   1.584   9.056
 8630WAT      O26131   7.928   3.839   6.538
 8630WAT     H126132   7.876   3.824   6.454
 8630WAT     H226133   7.930   3.755   6.592
 8631WAT      O26134   4.503   6.050   5.551
 8631WAT     H126135   4.505   5.987   5.473
 8631WAT     H226136   4.591   6.047   5.598
 8632WAT      O26137   5.887   2.581   5.414
 8632WAT     H126138   5.884   2.679   5.430
 8632WAT     H226139   5.903   2.563   5.317
 8633WAT      O26140   0.405   7.119   9.032
 8633WAT     H126141   0.306   7.130   9.045
 8633WAT     H226142   0.439   7.049   9.095
 8634WAT      O26143   9.569   4.572   2.112
 8634WAT     H126144   9.576   4.475   2.090
 8634WAT     H226145   9.526   4.584   2.201
 8635WAT      O26146   1.150   1.473   5.846
 8635WAT     H126147   1.158   1.467   5.945
 8635WAT     H226148   1.135   1.569   5.820
 8636WAT      O26149   7.748   5.819   4.237
 8636WAT     H126150   7.837   5.780   4.261
 8636WAT     H226151   7.724   5.791   4.144
 8637WAT      O26152   2.640   7.297   4.025
 8637WAT     H126153   2.704   7.373   4.038
 8637WAT     H226154   2.660   7.226   4.093
 8638WAT      O26155   7.611   4.991   7.395
 8638WAT     H126156   7.623   4.993   7.296
 8638WAT     H226157   7.577   5.080   7.426
 8639WAT      O26158   0.456   4.069   2.849
 8639WAT     H126159   0.417   4.160   2.846
 8639WAT     H226160   0.393   4.006   2.895
 8640WAT      O26161   4.670   1.792   2.460
 8640WAT     H126162   4.660   1.759   2.366
 8640WAT     H226163   4.734   1.733   2.509
 8641WAT      O26164   1.623   7.062   6.288
 8641WAT     H126165   1.651   7.158   6.292
 8641WAT     H226166   1.551   7.046   6.356
 8642WAT      O26167   1.869   9.710   5.959
 8642WAT     H126168   1.789   9.711   5.899
 8642WAT     H226169   1.843   9.739   6.051
 8643WAT      O26170   3.031   0.798   1.606
 8643WAT     H126171   3.108   0.852   1.640
 8643WAT     H226172   3.031   0.708   1.650
 8644WAT      O26173   0.416   0.419   2.444
 8644WAT     H126174   0.324   0.410   2.404
 8644WAT     H226175   0.412   0.486   2.519
 8645WAT      O26176   0.861   7.217   0.138
 8645WAT     H126177   0.770   7.196   0.173
 8645WAT     H226178   0.892   7.143   0.079
 8646WAT      O26179   8.013   8.807   7.944
 8646WAT     H126180   8.102   8.852   7.938
 8646WAT     H226181   7.996   8.755   7.861
 8647WAT      O26182   1.024   2.823   5.446
 8647WAT     H126183   1.055   2.919   5.445
 8647WAT     H226184   0.927   2.819   5.426
 8648WAT      O26185   0.369   0.658   9.255
 8648WAT     H126186   0.438   0.586   9.262
 8648WAT     H226187   0.414   0.746   9.238
 8649WAT      O26188   5.385   7.412   5.050
 8649WAT     H126189   5.435   7.476   4.991
 8649WAT     H226190   5.450   7.349   5.093
 8650WAT      O26191   0.397   4.575   0.787
 8650WAT     H126192   0.447   4.610   0.707
 8650WAT     H226193   0.324   4.639   0.810
 8651WAT      O26194   0.263   4.913   1.453
 8651WAT     H126195   0.306   5.003   1.452
 8651WAT     H226196   0.248   4.884   1.547
 8652WAT      O26197   5.706   3.438   0.477
 8652WAT     H126198   5.670   3.355   0.521
 8652WAT     H226199   5.716   3.421   0.379
 8653WAT      O26200   9.521   9.229   2.740
 8653WAT     H126201   9.432   9.182   2.734
 8653WAT     H226202   9.575   9.187   2.813
 8654WAT      O26203   8.513   4.411   9.885
 8654WAT     H126204   8.441   4.435   9.951
 8654WAT     H226205   8.576   4.488   9.876
 8655WAT      O26206   8.462   7.915   5.418
 8655WAT     H126207   8.517   7.852   5.363
 8655WAT     H226208   8.367   7.884   5.419
 8656WAT      O26209   6.585   8.610   2.860
 8656WAT     H126210   6.628   8.591   2.949
 8656WAT     H226211   6.507   8.549   2.847
 8657WAT      O26212   5.999   9.313   1.266
 8657WAT     H126213   5.979   9.332   1.170
 8657WAT     H226214   5.922   9.341   1.323
 8658WAT      O26215   3.321   7.512   0.435
 8658WAT     H126216   3.256   7.487   0.363
 8658WAT     H226217   3.380   7.434   0.455
 8659WAT      O26218   5.647   7.570   7.642
 8659WAT     H126219   5.741   7.598   7.622
 8659WAT     H226220   5.608   7.632   7.710
 8660WAT      O26221   8.214   2.437   8.617
 8660WAT     H126222   8.265   2.358   8.653
 8660WAT     H226223   8.265   2.520   8.637
 8661WAT      O26224   5.310   5.260   5.294
 8661WAT     H126225   5.223   5.228   5.256
 8661WAT     H226226   5.318   5.358   5.278
 8662WAT      O26227   7.124   9.815   3.885
 8662WAT     H126228   7.153   9.867   3.966
 8662WAT     H226229   7.190   9.830   3.811
 8663WAT      O26230   7.440   7.310   3.761
 8663WAT     H126231   7.531   7.300   3.720
 8663WAT     H226232   7.378   7.244   3.719
 8664WAT      O26233   6.866   6.264   7.583
 8664WAT     H126234   6.822   6.186   7.539
 8664WAT     H226235   6.930   6.232   7.653
 8665WAT      O26236   5.660   1.066   4.160
 8665WAT     H126237   5.667   1.008   4.242
 8665WAT     H226238   5.724   1.034   4.091
 8666WAT      O26239   2.669   9.738   7.984
 8666WAT     H126240   2.727   9.775   8.057
 8666WAT     H226241   2.577   9.721   8.021
 8667WAT      O26242   2.582   6.451   6.885
 8667WAT     H126243   2.550   6.377   6.944
 8667WAT     H226244   2.629   6.520   6.940
 8668WAT      O26245   2.891   5.235   7.933
 8668WAT     H126246   2.936   5.169   7.993
 8668WAT     H226247   2.960   5.295   7.892
 8669WAT      O26248   5.719   9.774   0.061
 8669WAT     H126249   5.730   9.786   0.160
 8669WAT     H226250   5.708   9.864   0.018
 8670WAT      O26251   3.373   4.699   8.240
 8670WAT     H126252   3.372   4.664   8.146
 8670WAT     H226253   3.281   4.727   8.266
 8671WAT      O26254   2.801   3.235   6.903
 8671WAT     H126255   2.894   3.201   6.886
 8671WAT     H226256   2.740   3.200   6.833
 8672WAT      O26257   3.881   5.542   9.365
 8672WAT     H126258   3.844   5.522   9.274
 8672WAT     H226259   3.920   5.459   9.404
 8673WAT      O26260   3.554   7.444   7.019
 8673WAT     H126261   3.476   7.421   7.079
 8673WAT     H226262   3.564   7.543   7.014
 8674WAT      O26263   1.859   6.329   4.805
 8674WAT     H126264   1.916   6.282   4.738
 8674WAT     H226265   1.901   6.321   4.896
 8675WAT      O26266   8.190   6.752   6.511
 8675WAT     H126267   8.171   6.681   6.443
 8675WAT     H226268   8.246   6.714   6.585
 8676WAT      O26269   3.422   6.112   7.316
 8676WAT     H126270   3.519   6.126   7.338
 8676WAT     H226271   3.401   6.014   7.321
 8677WAT      O26272   9.464   6.696   8.855
 8677WAT     H126273   9.470   6.697   8.954
 8677WAT     H226274   9.553   6.673   8.816
 8678WAT      O26275   6.480   7.027   0.421
 8678WAT     H126276   6.546   7.025   0.345
 8678WAT     H226277   6.398   6.976   0.395
 8679WAT      O26278   2.195   2.459   9.890
 8679WAT     H126279   2.145   2.377   9.916
 8679WAT     H226280   2.131   2.535   9.875
 8680WAT      O26281   1.663   8.045   3.279
 8680WAT     H126282   1.607   8.017   3.357
 8680WAT     H226283   1.613   8.024   3.194
 8681WAT      O26284   9.292   5.344   5.238
 8681WAT     H126285   9.271   5.387   5.150
 8681WAT     H226286   9.371   5.389   5.279
 8682WAT      O26287   7.540   2.169   1.605
 8682WAT     H126288   7.445   2.193   1.626
 8682WAT     H226289   7.594   2.252   1.592
 8683WAT      O26290   0.309   6.526   9.646
 8683WAT     H126291   0.393   6.474   9.630
 8683WAT     H226292   0.282   6.516   9.742
 8684WAT      O26293   8.375   0.873   8.324
 8684WAT     H126294   8.356   0.941   8.253
 8684WAT     H226295   8.289   0.829   8.353
 8685WAT      O26296   7.006   9.750   1.956
 8685WAT     H126297   7.050   9.826   2.002
 8685WAT     H226298   6.934   9.712   2.014
 8686WAT      O26299   7.492   6.951   8.775
 8686WAT     H126300   7.591   6.965   8.767
 8686WAT     H226301   7.447   6.978   8.690
 8687WAT      O26302   7.008   2.662   5.125
 8687WAT     H126303   6.942   2.686   5.053
 8687WAT     H226304   7.011   2.734   5.193
 8688WAT      O26305   1.604   5.589   4.564
 8688WAT     H126306   1.679   5.655   4.556
 8688WAT     H226307   1.519   5.633   4.537
 8689WAT      O26308   8.004   9.640   4.190
 8689WAT     H126309   8.013   9.711   4.120
 8689WAT     H226310   7.914   9.647   4.232
 8690WAT      O26311   6.350   6.560   7.522
 8690WAT     H126312   6.269   6.503   7.511
 8690WAT     H226313   6.432   6.505   7.503
 8691WAT      O26314   0.885   6.612   0.038
 8691WAT     H126315   0.958   6.546   0.019
 8691WAT     H226316   0.796   6.566   0.031
 8692WAT      O26317   0.248   8.948   3.797
 8692WAT     H126318   0.329   8.949   3.738
 8692WAT     H226319   0.183   9.018   3.765
 8693WAT      O26320   2.015   4.586   8.858
 8693WAT     H126321   1.990   4.534   8.777
 8693WAT     H226322   1.950   4.565   8.932
 8694WAT      O26323   7.497   5.839   3.682
 8694WAT     H126324   7.462   5.933   3.682
 8694WAT     H226325   7.507   5.808   3.587
 8695WAT      O26326   8.186   6.642   5.219
 8695WAT     H126327   8.248   6.615   5.145
 8695WAT     H226328   8.134   6.563   5.250
 8696WAT      O26329   1.762   6.419   6.365
 8696WAT     H126330   1.847   6.437   6.416
 8696WAT     H226331   1.750   6.490   6.295
 8697WAT      O26332   4.751   6.481   1.141
 8697WAT     H126333   4.772   6.457   1.236
 8697WAT     H226334   4.724   6.577   1.136
 8698WAT      O26335   8.987   0.397   1.417
 8698WAT     H126336   8.952   0.368   1.329
 8698WAT     H226337   9.087   0.395   1.415
 8699WAT      O26338   2.115   7.238   2.286
 8699WAT     H126339   2.037   7.233   2.349
 8699WAT     H226340   2.170   7.318   2.309
 8700WAT      O26341   5.997   1.371   9.637
 8700WAT     H126342   5.902   1.396   9.619
 8700WAT     H226343   6.016   1.380   9.735
 8701WAT      O26344   9.541   0.995   0.960
 8701WAT     H126345   9.505   1.023   1.049
 8701WAT     H226346   9.594   1.070   0.921
 8702WAT      O26347   7.620   1.640   9.750
 8702WAT     H126348   7.553   1.661   9.678
 8702WAT     H226349   7.598   1.693   9.832
 8703WAT      O26350   7.261   6.818   2.657
 8703WAT     H126351   7.174   6.822   2.607
 8703WAT     H226352   7.249   6.765   2.741
 8704WAT      O26353   5.724   4.549   1.589
 8704WAT     H126354   5.641   4.551   1.534
 8704WAT     H226355   5.716   4.478   1.660
 8705WAT      O26356   5.436   4.972   1.060
 8705WAT     H126357   5.475   4.898   1.006
 8705WAT     H226358   5.496   5.052   1.056
 8706WAT      O26359   7.848   0.786   6.595
 8706WAT     H126360   7.831   0.772   6.692
 8706WAT     H226361   7.775   0.841   6.556
 8707WAT      O26362   5.638   8.820   8.958
 8707WAT     H126363   5.655   8.865   8.870
 8707WAT     H226364   5.542   8.830   8.982
 8708WAT      O26365   7.174   8.450   5.030
 8708WAT     H126366   7.196   8.353   5.033
 8708WAT     H226367   7.083   8.462   4.990
 8709WAT      O26368   0.242   4.020   0.384
 8709WAT     H126369   0.232   4.016   0.483
 8709WAT     H226370   0.206   3.937   0.343
 8710WAT      O26371   4.113   6.029   5.539
 8710WAT     H126372   4.016   6.005   5.541
 8710WAT     H226373   4.168   5.946   5.546
 8711WAT      O26374   1.358   7.920   3.784
 8711WAT     H126375   1.418   7.999   3.798
 8711WAT     H226376   1.378   7.851   3.854
 8712WAT      O26377   8.590   4.678   6.484
 8712WAT     H126378   8.521   4.638   6.424
 8712WAT     H226379   8.681   4.669   6.441
 8713WAT      O26380   5.792   8.735   2.655
 8713WAT     H126381   5.755   8.773   2.740
 8713WAT     H226382   5.821   8.810   2.595
 8714WAT      O26383   0.371   0.987   1.419
 8714WAT     H126384   0.418   0.970   1.505
 8714WAT     H226385   0.297   0.921   1.408
 8715WAT      O26386   2.208   3.919   4.281
 8715WAT     H126387   2.260   3.911   4.365
 8715WAT     H226388   2.141   3.992   4.290
 8716WAT      O26389   2.954   4.996   6.198
 8716WAT     H126390   2.879   4.972   6.136
 8716WAT     H226391   2.927   4.975   6.292
 8717WAT      O26392   1.436   3.555   6.256
 8717WAT     H126393   1.532   3.528   6.255
 8717WAT     H226394   1.381   3.478   6.289
 8718WAT      O26395   0.113   5.404   1.750
 8718WAT     H126396   0.040   5.338   1.734
 8718WAT     H226397   0.075   5.496   1.758
 8719WAT      O26398   0.179   0.669   2.256
 8719WAT     H126399   0.177   0.571   2.271
 8719WAT     H226400   0.221   0.715   2.334
 8720WAT      O26401   3.583   5.496   3.759
 8720WAT     H126402   3.488   5.526   3.752
 8720WAT     H226403   3.599   5.458   3.851
 8721WAT      O26404   8.519   2.521   9.809
 8721WAT     H126405   8.548   2.614   9.832
 8721WAT     H226406   8.518   2.465   9.892
 8722WAT      O26407   8.568   5.097   7.788
 8722WAT     H126408   8.667   5.114   7.781
 8722WAT     H226409   8.541   5.101   7.884
 8723WAT      O26410   2.571   9.807   8.645
 8723WAT     H126411   2.494   9.745   8.634
 8723WAT     H226412   2.586   9.825   8.743
 8724WAT      O26413   7.946   9.319   2.811
 8724WAT     H126414   7.987   9.229   2.823
 8724WAT     H226415   7.978   9.380   2.883
 8725WAT      O26416   3.178   4.880   4.470
 8725WAT     H126417   3.092   4.830   4.470
 8725WAT     H226418   3.246   4.830   4.417
 8726WAT      O26419   0.803   5.359   2.771
 8726WAT     H126420   0.865   5.397   2.839
 8726WAT     H226421   0.821   5.402   2.682
 8727WAT      O26422   7.286   2.998   7.095
 8727WAT     H126423   7.271   2.961   7.186
 8727WAT     H226424   7.240   3.087   7.087
 8728WAT      O26425   4.630   8.153   7.845
 8728WAT     H126426   4.565   8.219   7.882
 8728WAT     H226427   4.682   8.196   7.770
 8729WAT      O26428   7.329   8.814   0.932
 8729WAT     H126429   7.246   8.793   0.880
 8729WAT     H226430   7.410   8.798   0.876
 8730WAT      O26431   3.801   2.270   3.240
 8730WAT     H126432   3.848   2.339   3.295
 8730WAT     H226433   3.839   2.180   3.258
 8731WAT      O26434   5.395   1.015   7.901
 8731WAT     H126435   5.298   0.998   7.920
 8731WAT     H226436   5.449   0.937   7.931
 8732WAT      O26437   7.767   4.329   2.830
 8732WAT     H126438   7.781   4.255   2.764
 8732WAT     H226439   7.727   4.291   2.914
 8733WAT      O26440   2.517   8.444   8.267
 8733WAT     H126441   2.455   8.418   8.193
 8733WAT     H226442   2.555   8.362   8.309
 8734WAT      O26443   7.188   6.593   0.802
 8734WAT     H126444   7.190   6.651   0.720
 8734WAT     H226445   7.186   6.651   0.883
 8735WAT      O26446   5.625   1.479   0.229
 8735WAT     H126447   5.699   1.415   0.251
 8735WAT     H226448   5.568   1.493   0.309
 8736WAT      O26449   3.244   1.396   6.604
 8736WAT     H126450   3.229   1.494   6.620
 8736WAT     H226451   3.237   1.378   6.506
 8737WAT      O26452   5.796   5.761   0.686
 8737WAT     H126453   5.763   5.845   0.728
 8737WAT     H226454   5.748   5.683   0.726
 8738WAT      O26455   5.209   3.407   5.271
 8738WAT     H126456   5.176   3.472   5.202
 8738WAT     H226457   5.144   3.331   5.279
 8739WAT      O26458   4.648   3.449   8.233
 8739WAT     H126459   4.697   3.362   8.225
 8739WAT     H226460   4.559   3.442   8.188
 8740WAT      O26461   4.591   5.516   5.184
 8740WAT     H126462   4.574   5.612   5.206
 8740WAT     H226463   4.649   5.475   5.255
 8741WAT      O26464   5.360   3.142   0.640
 8741WAT     H126465   5.438   3.205   0.642
 8741WAT     H226466   5.276   3.193   0.656
 8742WAT      O26467   7.290   0.996   3.192
 8742WAT     H126468   7.369   0.945   3.225
 8742WAT     H226469   7.244   1.041   3.269
 8743WAT      O26470   8.263   6.153   7.349
 8743WAT     H126471   8.176   6.104   7.340
 8743WAT     H226472   8.265   6.229   7.285
 8744WAT      O26473   8.414   4.317   4.594
 8744WAT     H126474   8.354   4.294   4.517
 8744WAT     H226475   8.509   4.314   4.565
 8745WAT      O26476   8.619   2.348   1.134
 8745WAT     H126477   8.658   2.325   1.223
 8745WAT     H226478   8.542   2.288   1.114
 8746WAT      O26479   4.386   3.542   9.575
 8746WAT     H126480   4.408   3.483   9.653
 8746WAT     H226481   4.366   3.634   9.608
 8747WAT      O26482   7.789   9.520   8.657
 8747WAT     H126483   7.804   9.495   8.561
 8747WAT     H226484   7.696   9.494   8.684
 8748WAT      O26485   5.812   2.781   4.771
 8748WAT     H126486   5.756   2.719   4.716
 8748WAT     H226487   5.785   2.775   4.867
 8749WAT      O26488   7.130   7.394   6.662
 8749WAT     H126489   7.129   7.411   6.761
 8749WAT     H226490   7.156   7.477   6.614
 8750WAT      O26491   5.412   8.660   5.360
 8750WAT     H126492   5.395   8.564   5.380
 8750WAT     H226493   5.511   8.678   5.364
 8751WAT      O26494   9.376   0.262   1.932
 8751WAT     H126495   9.433   0.204   1.990
 8751WAT     H226496   9.345   0.210   1.852
 8752WAT      O26497   5.275   3.371   1.558
 8752WAT     H126498   5.335   3.349   1.634
 8752WAT     H226499   5.181   3.378   1.591
 8753WAT      O26500   7.606   7.807   9.445
 8753WAT     H126501   7.506   7.810   9.439
 8753WAT     H226502   7.641   7.743   9.376
 8754WAT      O26503   7.232   4.048   5.615
 8754WAT     H126504   7.264   4.085   5.703
 8754WAT     H226505   7.168   3.973   5.632
 8755WAT      O26506   3.911   0.396   2.167
 8755WAT     H126507   3.834   0.414   2.229
 8755WAT     H226508   3.893   0.313   2.116
 8756WAT      O26509   0.183   1.386   2.137
 8756WAT     H126510   0.174   1.400   2.235
 8756WAT     H226511   0.154   1.292   2.114
 8757WAT      O26512   7.634   9.743   3.686
 8757WAT     H126513   7.536   9.725   3.695
 8757WAT     H226514   7.675   9.679   3.621
 8758WAT      O26515   0.037   0.437   0.857
 8758WAT     H126516   0.011   0.399   0.768
 8758WAT     H226517   0.091   0.370   0.908
 8759WAT      O26518   3.821   6.701   0.155
 8759WAT     H126519   3.851   6.653   0.073
 8759WAT     H226520   3.734   6.747   0.137
 8760WAT      O26521   4.326   8.464   9.769
 8760WAT     H126522   4.275   8.396   9.821
 8760WAT     H226523   4.265   8.539   9.743
 8761WAT      O26524   5.127   7.543   5.025
 8761WAT     H126525   5.215   7.498   5.009
 8761WAT     H226526   5.077   7.550   4.939
 8762WAT      O26527   7.282   3.683   2.814
 8762WAT     H126528   7.220   3.762   2.805
 8762WAT     H226529   7.301   3.645   2.724
 8763WAT      O26530   4.597   5.965   8.017
 8763WAT     H126531   4.687   5.922   8.006
 8763WAT     H226532   4.544   5.953   7.934
 8764WAT      O26533   2.145   3.447   3.686
 8764WAT     H126534   2.105   3.357   3.669
 8764WAT     H226535   2.215   3.465   3.617
 8765WAT      O26536   6.479   1.227   3.225
 8765WAT     H126537   6.468   1.130   3.200
 8765WAT     H226538   6.473   1.283   3.142
 8766WAT      O26539   8.906   8.662   8.239
 8766WAT     H126540   8.855   8.582   8.271
 8766WAT     H226541   8.940   8.645   8.147
 8767WAT      O26542   4.253   0.017   1.721
 8767WAT     H126543   4.275   0.113   1.708
 8767WAT     H226544   4.224  -0.023   1.634
 8768WAT      O26545   0.741   1.866   4.008
 8768WAT     H126546   0.650   1.841   4.041
 8768WAT     H226547   0.766   1.807   3.932
 8769WAT      O26548   7.587   3.761   6.729
 8769WAT     H126549   7.576   3.670   6.768
 8769WAT     H226550   7.611   3.753   6.632
 8770WAT      O26551   2.154   8.700   3.442
 8770WAT     H126552   2.205   8.710   3.528
 8770WAT     H226553   2.108   8.786   3.421
 8771WAT      O26554   0.163   2.920   1.706
 8771WAT     H126555   0.246   2.976   1.696
 8771WAT     H226556   0.156   2.856   1.629
 8772WAT      O26557   7.277   1.995   4.284
 8772WAT     H126558   7.233   1.924   4.229
 8772WAT     H226559   7.280   1.966   4.380
 8773WAT      O26560   8.880   7.588   1.910
 8773WAT     H126561   8.884   7.488   1.905
 8773WAT     H226562   8.951   7.627   1.852
 8774WAT      O26563   4.293   4.311   2.314
 8774WAT     H126564   4.313   4.265   2.400
 8774WAT     H226565   4.295   4.410   2.328
 8775WAT      O26566   2.621   2.693   9.472
 8775WAT     H126567   2.624   2.630   9.550
 8775WAT     H226568   2.694   2.670   9.408
 8776WAT      O26569   6.839   2.730   4.902
 8776WAT     H126570   6.861   2.822   4.936
 8776WAT     H226571   6.872   2.720   4.809
 8777WAT      O26572   2.481   0.082   5.705
 8777WAT     H126573   2.459   0.173   5.738
 8777WAT     H226574   2.498   0.086   5.606
 8778WAT      O26575   4.065   5.207   5.355
 8778WAT     H126576   4.034   5.273   5.286
 8778WAT     H226577   4.031   5.235   5.445
 8779WAT      O26578   9.576   5.601   1.856
 8779WAT     H126579   9.482   5.613   1.824
 8779WAT     H226580   9.600   5.503   1.853
 8780WAT      O26581   9.642   8.401   9.787
 8780WAT     H126582   9.671   8.423   9.880
 8780WAT     H226583   9.716   8.354   9.739
 8781WAT      O26584   2.181   9.151   1.443
 8781WAT     H126585   2.122   9.189   1.514
 8781WAT     H226586   2.124   9.119   1.367
 8782WAT      O26587   8.623   3.494   2.194
 8782WAT     H126588   8.586   3.584   2.216
 8782WAT     H226589   8.622   3.481   2.095
 8783WAT      O26590   4.048   2.886   6.637
 8783WAT     H126591   4.147   2.875   6.638
 8783WAT     H226592   4.017   2.919   6.727
 8784WAT      O26593   5.126   6.391   1.278
 8784WAT     H126594   5.148   6.304   1.233
 8784WAT     H226595   5.033   6.386   1.315
 8785WAT      O26596   7.609   9.224   6.320
 8785WAT     H126597   7.514   9.193   6.319
 8785WAT     H226598   7.640   9.234   6.415
 8786WAT      O26599   7.227   7.180   3.633
 8786WAT     H126600   7.175   7.181   3.547
 8786WAT     H226601   7.189   7.112   3.695
 8787WAT      O26602   9.528   2.745   3.173
 8787WAT     H126603   9.627   2.732   3.176
 8787WAT     H226604   9.486   2.672   3.120
 8788WAT      O26605   8.869   4.148   8.404
 8788WAT     H126606   8.864   4.085   8.481
 8788WAT     H226607   8.786   4.203   8.399
 8789WAT      O26608   3.354   8.479   1.854
 8789WAT     H126609   3.390   8.394   1.892
 8789WAT     H226610   3.301   8.527   1.924
 8790WAT      O26611   1.756   6.032   4.754
 8790WAT     H126612   1.713   6.014   4.843
 8790WAT     H226613   1.743   6.128   4.729
 8791WAT      O26614   7.699   9.221   2.729
 8791WAT     H126615   7.787   9.267   2.746
 8791WAT     H226616   7.625   9.275   2.768
 8792WAT      O26617   4.741   8.257   2.009
 8792WAT     H126618   4.675   8.266   1.935
 8792WAT     H226619   4.761   8.347   2.047
 8793WAT      O26620   0.592   2.836   1.416
 8793WAT     H126621   0.564   2.898   1.342
 8793WAT     H226622   0.613   2.890   1.497
 8794WAT      O26623   7.090   4.656   8.642
 8794WAT     H126624   7.161   4.703   8.693
 8794WAT     H226625   7.004   4.657   8.694
 8795WAT      O26626   3.768   2.392   3.559
 8795WAT     H126627   3.750   2.294   3.554
 8795WAT     H226628   3.848   2.415   3.504
 8796WAT      O26629   0.929   3.288   0.309
 8796WAT     H126630   0.832   3.270   0.295
 8796WAT     H226631   0.941   3.372   0.362
 8797WAT      O26632   9.045   0.276   6.721
 8797WAT     H126633   9.071   0.372   6.713
 8797WAT     H226634   8.956   0.262   6.677
 8798WAT      O26635   7.819   7.735   1.592
 8798WAT     H126636   7.793   7.731   1.496
 8798WAT     H226637   7.865   7.822   1.610
 8799WAT      O26638   1.211   9.493   9.027
 8799WAT     H126639   1.172   9.445   9.106
 8799WAT     H226640   1.308   9.509   9.042
 8800WAT      O26641   5.110   9.607   2.157
 8800WAT     H126642   5.117   9.661   2.074
 8800WAT     H226643   5.086   9.666   2.234
 8801WAT      O26644   8.574   6.692   0.600
 8801WAT     H126645   8.591   6.725   0.693
 8801WAT     H226646   8.561   6.769   0.538
 8802WAT      O26647   5.591   7.840   8.893
 8802WAT     H126648   5.528   7.818   8.969
 8802WAT     H226649   5.606   7.758   8.838
 8803WAT      O26650   2.489   2.957   4.868
 8803WAT     H126651   2.474   2.884   4.935
 8803WAT     H226652   2.409   2.963   4.808
 8804WAT      O26653   5.069   5.406   7.795
 8804WAT     H126654   5.158   5.390   7.751
 8804WAT     H226655   5.020   5.319   7.803
 8805WAT      O26656   2.218   0.283   0.762
 8805WAT     H126657   2.152   0.311   0.832
 8805WAT     H226658   2.205   0.186   0.741
 8806WAT      O26659   6.083   7.426   8.335
 8806WAT     H126660   6.077   7.490   8.412
 8806WAT     H226661   6.110   7.476   8.253
 8807WAT      O26662   0.190   9.390   3.405
 8807WAT     H126663   0.149   9.399   3.314
 8807WAT     H226664   0.248   9.308   3.407
 8808WAT      O26665   1.361   8.831   0.203
 8808WAT     H126666   1.387   8.926   0.219
 8808WAT     H226667   1.285   8.827   0.138
 8809WAT      O26668   4.095   4.655   7.002
 8809WAT     H126669   4.025   4.686   6.938
 8809WAT     H226670   4.119   4.560   6.982
 8810WAT      O26671   7.774   1.360   1.504
 8810WAT     H126672   7.736   1.437   1.556
 8810WAT     H226673   7.756   1.275   1.553
 8811WAT      O26674   6.622   3.540   6.661
 8811WAT     H126675   6.599   3.605   6.734
 8811WAT     H226676   6.703   3.573   6.612
 8812WAT      O26677   8.270   7.796   9.286
 8812WAT     H126678   8.346   7.855   9.260
 8812WAT     H226679   8.279   7.771   9.382
 8813WAT      O26680   4.033   1.974   6.672
 8813WAT     H126681   3.989   2.055   6.712
 8813WAT     H226682   3.966   1.900   6.665
 8814WAT      O26683   3.602   4.068   5.396
 8814WAT     H126684   3.694   4.031   5.408
 8814WAT     H226685   3.567   4.041   5.306
 8815WAT      O26686   6.871   9.024   3.750
 8815WAT     H126687   6.804   8.964   3.794
 8815WAT     H226688   6.823   9.091   3.693
 8816WAT      O26689   6.093   7.416   7.094
 8816WAT     H126690   6.187   7.440   7.068
 8816WAT     H226691   6.029   7.480   7.050
 8817WAT      O26692   4.532   9.350   8.957
 8817WAT     H126693   4.566   9.263   8.992
 8817WAT     H226694   4.519   9.414   9.034
 8818WAT      O26695   5.594   3.700   5.494
 8818WAT     H126696   5.577   3.602   5.505
 8818WAT     H226697   5.572   3.747   5.579
 8819WAT      O26698   2.725   2.980   6.140
 8819WAT     H126699   2.743   3.017   6.049
 8819WAT     H226700   2.631   2.944   6.143
 8820WAT      O26701   2.537   8.550   3.931
 8820WAT     H126702   2.582   8.545   4.020
 8820WAT     H226703   2.569   8.631   3.882
 8821WAT      O26704   8.699   0.261   0.476
 8821WAT     H126705   8.745   0.188   0.424
 8821WAT     H226706   8.763   0.301   0.540
 8822WAT      O26707   4.273   8.836   0.751
 8822WAT     H126708   4.331   8.790   0.684
 8822WAT     H226709   4.308   8.928   0.769
 8823WAT      O26710   7.178   6.944   8.832
 8823WAT     H126711   7.206   6.951   8.737
 8823WAT     H226712   7.252   6.902   8.885
 8824WAT      O26713   4.416   1.660   4.459
 8824WAT     H126714   4.489   1.701   4.514
 8824WAT     H226715   4.407   1.710   4.373
 8825WAT      O26716   6.766   0.371   3.814
 8825WAT     H126717   6.787   0.273   3.820
 8825WAT     H226718   6.775   0.402   3.719
 8826WAT      O26719   3.564   7.320   4.109
 8826WAT     H126720   3.503   7.319   4.189
 8826WAT     H226721   3.549   7.237   4.055
 8827WAT      O26722   3.337   2.513   5.843
 8827WAT     H126723   3.355   2.611   5.835
 8827WAT     H226724   3.275   2.485   5.770
 8828WAT      O26725   7.062   4.601   2.337
 8828WAT     H126726   7.001   4.546   2.393
 8828WAT     H226727   7.034   4.697   2.342
 8829WAT      O26728   0.906   3.544   8.249
 8829WAT     H126729   0.847   3.542   8.330
 8829WAT     H226730   0.881   3.622   8.192
 8830WAT      O26731   9.502   8.784   4.490
 8830WAT     H126732   9.496   8.842   4.409
 8830WAT     H226733   9.593   8.742   4.494
 8831WAT      O26734   2.946   5.094   8.528
 8831WAT     H126735   2.890   5.171   8.498
 8831WAT     H226736   3.025   5.085   8.468
 8832WAT      O26737   5.030   4.896   4.441
 8832WAT     H126738   4.970   4.823   4.406
 8832WAT     H226739   4.974   4.970   4.478
 8833WAT      O26740   6.885   2.798   9.466
 8833WAT     H126741   6.862   2.894   9.452
 8833WAT     H226742   6.912   2.757   9.379
 8834WAT      O26743   4.457   0.918   0.077
 8834WAT     H126744   4.472   1.016   0.068
 8834WAT     H226745   4.453   0.876  -0.013
 8835WAT      O26746   5.807   5.324   9.551
 8835WAT     H126747   5.813   5.260   9.627
 8835WAT     H226748   5.765   5.409   9.582
 8836WAT      O26749   8.861   0.580   4.407
 8836WAT     H126750   8.952   0.610   4.435
 8836WAT     H226751   8.816   0.652   4.355
 8837WAT      O26752   4.554   1.107   6.963
 8837WAT     H126753   4.603   1.111   6.876
 8837WAT     H226754   4.620   1.093   7.037
 8838WAT      O26755   1.586   2.308   9.219
 8838WAT     H126756   1.605   2.394   9.265
 8838WAT     H226757   1.551   2.242   9.286
 8839WAT      O26758   0.088   2.283   3.028
 8839WAT     H126759   0.023   2.360   3.028
 8839WAT     H226760   0.171   2.310   2.978
 8840WAT      O26761   9.287   8.528   7.796
 8840WAT     H126762   9.385   8.537   7.783
 8840WAT     H226763   9.246   8.618   7.810
 8841WAT      O26764   5.865   8.634   3.486
 8841WAT     H126765   5.959   8.668   3.485
 8841WAT     H226766   5.822   8.655   3.574
 8842WAT      O26767   8.696   7.304   6.196
 8842WAT     H126768   8.667   7.254   6.114
 8842WAT     H226769   8.730   7.394   6.170
 8843WAT      O26770   2.619   8.737   7.533
 8843WAT     H126771   2.650   8.643   7.549
 8843WAT     H226772   2.698   8.794   7.507
 8844WAT      O26773   7.071   2.313   7.035
 8844WAT     H126774   7.042   2.249   6.963
 8844WAT     H226775   7.067   2.406   7.000
 8845WAT      O26776   8.120   0.740   6.697
 8845WAT     H126777   8.157   0.820   6.651
 8845WAT     H226778   8.044   0.703   6.643
 8846WAT      O26779   5.078   8.957   2.352
 8846WAT     H126780   5.001   8.991   2.406
 8846WAT     H226781   5.141   9.033   2.333
 8847WAT      O26782   0.796   6.705   5.895
 8847WAT     H126783   0.816   6.747   5.807
 8847WAT     H226784   0.880   6.669   5.935
 8848WAT      O26785   4.534   3.159   4.533
 8848WAT     H126786   4.457   3.154   4.597
 8848WAT     H226787   4.501   3.138   4.440
 8849WAT      O26788   2.791   3.328   3.475
 8849WAT     H126789   2.715   3.364   3.528
 8849WAT     H226790   2.795   3.228   3.485
 8850WAT      O26791   9.494   3.443   6.429
 8850WAT     H126792   9.551   3.373   6.385
 8850WAT     H226793   9.451   3.499   6.359
 8851WAT      O26794   2.117   6.172   9.290
 8851WAT     H126795   2.152   6.240   9.354
 8851WAT     H226796   2.140   6.080   9.322
 8852WAT      O26797   7.358   0.990   7.283
 8852WAT     H126798   7.408   0.979   7.369
 8852WAT     H226799   7.327   0.900   7.251
 8853WAT      O26800   4.836   9.419   1.201
 8853WAT     H126801   4.863   9.362   1.279
 8853WAT     H226802   4.738   9.408   1.185
 8854WAT      O26803   4.019   8.671   2.296
 8854WAT     H126804   4.001   8.752   2.240
 8854WAT     H226805   4.078   8.695   2.372
 8855WAT      O26806   8.486   1.803   5.187
 8855WAT     H126807   8.460   1.783   5.281
 8855WAT     H226808   8.573   1.759   5.166
 8856WAT      O26809   0.947   7.700   8.008
 8856WAT     H126810   0.948   7.792   8.048
 8856WAT     H226811   0.858   7.683   7.966
 8857WAT      O26812   6.429   2.212   5.367
 8857WAT     H126813   6.427   2.260   5.280
 8857WAT     H226814   6.524   2.200   5.396
 8858WAT      O26815   5.598   8.335   2.465
 8858WAT     H126816   5.591   8.347   2.366
 8858WAT     H226817   5.562   8.416   2.512
 8859WAT      O26818   5.045   7.353   2.958
 8859WAT     H126819   5.138   7.388   2.969
 8859WAT     H226820   5.005   7.389   2.874
 8860WAT      O26821   8.329   8.352   6.094
 8860WAT     H126822   8.267   8.403   6.034
 8860WAT     H226823   8.354   8.409   6.172
 8861WAT      O26824   3.396   2.641   0.370
 8861WAT     H126825   3.494   2.623   0.361
 8861WAT     H226826   3.362   2.683   0.286
 8862WAT      O26827   3.746   8.620   2.407
 8862WAT     H126828   3.699   8.599   2.321
 8862WAT     H226829   3.844   8.629   2.389
 8863WAT      O26830   7.484   2.271   2.325
 8863WAT     H126831   7.405   2.210   2.334
 8863WAT     H226832   7.480   2.341   2.397
 8864WAT      O26833   2.797   4.964   4.560
 8864WAT     H126834   2.877   5.024   4.551
 8864WAT     H226835   2.734   4.980   4.484
 8865WAT      O26836   9.182   8.457   4.246
 8865WAT     H126837   9.130   8.372   4.253
 8865WAT     H226838   9.257   8.455   4.312
 8866WAT      O26839   9.701   2.223   5.800
 8866WAT     H126840   9.679   2.312   5.761
 8866WAT     H226841   9.754   2.170   5.733
 8867WAT      O26842   3.056   4.276   6.462
 8867WAT     H126843   3.054   4.269   6.562
 8867WAT     H226844   3.070   4.371   6.435
 8868WAT      O26845   9.767   3.240   7.093
 8868WAT     H126846   9.760   3.179   7.172
 8868WAT     H226847   9.842   3.305   7.108
 8869WAT      O26848   2.626   4.064   4.809
 8869WAT     H126849   2.592   4.157   4.821
 8869WAT     H226850   2.694   4.043   4.879
 8870WAT      O26851   2.307   5.974   4.948
 8870WAT     H126852   2.303   5.919   5.032
 8870WAT     H226853   2.215   5.998   4.920
 8871WAT      O26854   5.901   6.065   3.784
 8871WAT     H126855   5.824   6.001   3.783
 8871WAT     H226856   5.985   6.015   3.804
 8872WAT      O26857   8.568   3.812   9.478
 8872WAT     H126858   8.492   3.795   9.415
 8872WAT     H226859   8.653   3.818   9.425
 8873WAT      O26860   5.081   0.402   4.637
 8873WAT     H126861   5.045   0.442   4.721
 8873WAT     H226862   5.006   0.384   4.574
 8874WAT      O26863   9.540   2.695   8.272
 8874WAT     H126864   9.561   2.626   8.342
 8874WAT     H226865   9.461   2.666   8.219
 8875WAT      O26866   1.561   8.611   4.326
 8875WAT     H126867   1.541   8.556   4.407
 8875WAT     H226868   1.628   8.682   4.350
 8876WAT      O26869   4.539   2.272   4.302
 8876WAT     H126870   4.520   2.369   4.284
 8876WAT     H226871   4.601   2.265   4.380
 8877WAT      O26872   4.938   8.896   6.981
 8877WAT     H126873   4.925   8.834   6.903
 8877WAT     H226874   5.027   8.879   7.023
 8878WAT      O26875   3.815   1.696   8.741
 8878WAT     H126876   3.871   1.779   8.742
 8878WAT     H226877   3.834   1.641   8.822
 8879WAT      O26878   6.232   5.475   8.154
 8879WAT     H126879   6.241   5.433   8.064
 8879WAT     H226880   6.297   5.433   8.218
 8880WAT      O26881   6.860   3.046   2.937
 8880WAT     H126882   6.824   3.042   3.030
 8880WAT     H226883   6.911   2.963   2.917
 8881WAT      O26884   4.618   5.992   2.979
 8881WAT     H126885   4.632   6.086   3.008
 8881WAT     H226886   4.697   5.961   2.927
 8882WAT      O26887   0.873   0.839   9.255
 8882WAT     H126888   0.821   0.896   9.319
 8882WAT     H226889   0.815   0.765   9.221
 8883WAT      O26890   6.753   0.182   4.755
 8883WAT     H126891   6.786   0.276   4.752
 8883WAT     H226892   6.810   0.125   4.696
 8884WAT      O26893   0.033   0.095   7.310
 8884WAT     H126894   0.129   0.075   7.329
 8884WAT     H226895   0.026   0.183   7.263
 8885WAT      O26896   7.433   6.006   4.653
 8885WAT     H126897   7.497   5.967   4.720
 8885WAT     H226898   7.422   6.104   4.671
 8886WAT      O26899   6.835   0.563   2.200
 8886WAT     H126900   6.839   0.620   2.283
 8886WAT     H226901   6.804   0.472   2.224
 8887WAT      O26902   1.022   0.126   9.454
 8887WAT     H126903   1.118   0.103   9.463
 8887WAT     H226904   0.982   0.073   9.378
 8888WAT      O26905   1.341   5.175   2.444
 8888WAT     H126906   1.249   5.138   2.461
 8888WAT     H226907   1.341   5.225   2.358
 8889WAT      O26908   1.425   1.508   9.329
 8889WAT     H126909   1.351   1.457   9.286
 8889WAT     H226910   1.482   1.550   9.259
 8890WAT      O26911   8.679   8.741   0.887
 8890WAT     H126912   8.606   8.699   0.940
 8890WAT     H226913   8.645   8.823   0.841
 8891WAT      O26914   5.847   4.657   6.167
 8891WAT     H126915   5.817   4.644   6.072
 8891WAT     H226916   5.921   4.723   6.170
 8892WAT      O26917   3.106   6.411   2.685
 8892WAT     H126918   3.035   6.347   2.656
 8892WAT     H226919   3.128   6.395   2.781
 8893WAT      O26920   7.440   9.364   5.436
 8893WAT     H126921   7.349   9.405   5.427
 8893WAT     H226922   7.467   9.366   5.532
 8894WAT      O26923   0.560   7.298   0.789
 8894WAT     H126924   0.621   7.268   0.863
 8894WAT     H226925   0.557   7.398   0.787
 8895WAT      O26926   8.308   8.132   3.507
 8895WAT     H126927   8.366   8.126   3.588
 8895WAT     H226928   8.221   8.087   3.525
 8896WAT      O26929   3.248   1.964   0.382
 8896WAT     H126930   3.295   1.970   0.294
 8896WAT     H226931   3.149   1.972   0.367
 8897WAT      O26932   7.169   6.246   9.116
 8897WAT     H126933   7.181   6.243   9.215
 8897WAT     H226934   7.115   6.327   9.092
 8898WAT      O26935   9.601   4.980   9.124
 8898WAT     H126936   9.539   5.058   9.121
 8898WAT     H226937   9.598   4.932   9.036
 8899WAT      O26938   3.070   2.480   8.411
 8899WAT     H126939   3.110   2.561   8.367
 8899WAT     H226940   3.020   2.509   8.492
 8900WAT      O26941   1.388   5.740   4.549
 8900WAT     H126942   1.431   5.823   4.584
 8900WAT     H226943   1.335   5.763   4.468
 8901WAT      O26944   1.962   4.996   0.005
 8901WAT     H126945   1.893   5.051   0.053
 8901WAT     H226946   1.983   4.915   0.060
 8902WAT      O26947   9.446   7.960   2.673
 8902WAT     H126948   9.521   7.983   2.735
 8902WAT     H226949   9.475   7.886   2.612
 8903WAT      O26950   4.066   5.804   8.220
 8903WAT     H126951   4.123   5.729   8.185
 8903WAT     H226952   4.085   5.818   8.317
 8904WAT      O26953   5.406   1.976   5.486
 8904WAT     H126954   5.343   1.993   5.410
 8904WAT     H226955   5.355   1.938   5.563
 8905WAT      O26956   3.788   0.855   4.851
 8905WAT     H126957   3.873   0.884   4.895
 8905WAT     H226958   3.711   0.875   4.912
 8906WAT      O26959   5.480   5.992   3.934
 8906WAT     H126960   5.473   6.009   3.836
 8906WAT     H226961   5.564   5.941   3.954
 8907WAT      O26962   6.064   5.292   9.442
 8907WAT     H126963   5.983   5.342   9.472
 8907WAT     H226964   6.041   5.232   9.365
 8908WAT      O26965   6.216   6.900   8.068
 8908WAT     H126966   6.242   6.883   7.973
 8908WAT     H226967   6.298   6.923   8.122
 8909WAT      O26968   7.678   2.508   9.583
 8909WAT     H126969   7.651   2.585   9.526
 8909WAT     H226970   7.615   2.501   9.661
 8910WAT      O26971   2.216   2.592   9.110
 8910WAT     H126972   2.269   2.559   9.188
 8910WAT     H226973   2.172   2.515   9.065
 8911WAT      O26974   2.991   6.351   5.834
 8911WAT     H126975   3.015   6.273   5.891
 8911WAT     H226976   2.893   6.348   5.813
 8912WAT      O26977   4.312   1.777   2.928
 8912WAT     H126978   4.319   1.743   2.835
 8912WAT     H226979   4.385   1.738   2.984
 8913WAT      O26980   0.275   8.564   9.407
 8913WAT     H126981   0.336   8.642   9.398
 8913WAT     H226982   0.307   8.505   9.481
 8914WAT      O26983   3.609   6.129   5.108
 8914WAT     H126984   3.562   6.041   5.108
 8914WAT     H226985   3.548   6.200   5.073
 8915WAT      O26986   3.927   7.562   8.249
 8915WAT     H126987   4.010   7.528   8.205
 8915WAT     H226988   3.951   7.615   8.330
 8916WAT      O26989   6.821   6.482   6.987
 8916WAT     H126990   6.751   6.534   6.938
 8916WAT     H226991   6.808   6.384   6.969
 8917WAT      O26992   3.882   6.558   2.219
 8917WAT     H126993   3.938   6.581   2.139
 8917WAT     H226994   3.826   6.478   2.198
 8918WAT      O26995   3.063   1.870   2.848
 8918WAT     H126996   3.016   1.896   2.933
 8918WAT     H226997   3.161   1.864   2.865
 8919WAT      O26998   6.061   1.382   3.482
 8919WAT     H126999   6.089   1.297   3.439
 8919WAT     H227000   6.038   1.365   3.578
 8920WAT      O27001   3.870   3.975   5.364
 8920WAT     H127002   3.931   4.040   5.409
 8920WAT     H227003   3.901   3.958   5.271
 8921WAT      O27004   8.933   2.627   8.752
 8921WAT     H127005   9.028   2.657   8.738
 8921WAT     H227006   8.873   2.674   8.688
 8922WAT      O27007   4.960   0.172   5.498
 8922WAT     H127008   4.937   0.261   5.456
 8922WAT     H227009   5.016   0.119   5.434
 8923WAT      O27010   8.054   1.585   6.868
 8923WAT     H127011   7.987   1.525   6.911
 8923WAT     H227012   8.016   1.677   6.860
 8924WAT      O27013   3.440   8.976   3.645
 8924WAT     H127014   3.383   8.944   3.570
 8924WAT     H227015   3.508   9.040   3.611
 8925WAT      O27016   1.645   0.739   8.383
 8925WAT     H127017   1.560   0.771   8.425
 8925WAT     H227018   1.623   0.679   8.306
 8926WAT      O27019   6.129   3.290   6.521
 8926WAT     H127020   6.146   3.217   6.454
 8926WAT     H227021   6.037   3.279   6.559
 8927WAT      O27022   7.641   2.082   5.033
 8927WAT     H127023   7.716   2.052   5.091
 8927WAT     H227024   7.677   2.116   4.946
 8928WAT      O27025   8.766   3.016   9.402
 8928WAT     H127026   8.790   2.926   9.438
 8928WAT     H227027   8.767   3.084   9.475
 8929WAT      O27028   0.703   6.566   3.375
 8929WAT     H127029   0.747   6.477   3.389
 8929WAT     H227030   0.636   6.582   3.448
 8930WAT      O27031   6.151   7.856   1.565
 8930WAT     H127032   6.066   7.808   1.545
 8930WAT     H227033   6.228   7.791   1.562
 8931WAT      O27034   8.759   3.050   4.098
 8931WAT     H127035   8.660   3.066   4.090
 8931WAT     H227036   8.778   3.004   4.185
 8932WAT      O27037   7.494   9.736   6.461
 8932WAT     H127038   7.545   9.671   6.518
 8932WAT     H227039   7.485   9.700   6.369
 8933WAT      O27040   3.194   2.917   2.829
 8933WAT     H127041   3.231   2.899   2.921
 8933WAT     H227042   3.207   2.837   2.771
 8934WAT      O27043   4.579   0.342   0.454
 8934WAT     H127044   4.598   0.406   0.379
 8934WAT     H227045   4.483   0.316   0.451
 8935WAT      O27046   6.317   9.429   2.156
 8935WAT     H127047   6.232   9.375   2.153
 8935WAT     H227048   6.300   9.519   2.117
 8936WAT      O27049   8.876   2.992   1.176
 8936WAT     H127050   8.870   2.964   1.080
 8936WAT     H227051   8.945   3.063   1.186
 8937WAT      O27052   5.538   4.712   3.932
 8937WAT     H127053   5.574   4.621   3.910
 8937WAT     H227054   5.501   4.754   3.850
 8938WAT      O27055   2.325   5.356   6.479
 8938WAT     H127056   2.282   5.444   6.462
 8938WAT     H227057   2.413   5.370   6.523
 8939WAT      O27058   4.678   1.405   0.505
 8939WAT     H127059   4.678   1.306   0.489
 8939WAT     H227060   4.722   1.425   0.593
 8940WAT      O27061   1.587   2.838   7.303
 8940WAT     H127062   1.631   2.856   7.390
 8940WAT     H227063   1.506   2.896   7.293
 8941WAT      O27064   5.983   5.617   9.188
 8941WAT     H127065   6.032   5.602   9.274
 8941WAT     H227066   6.042   5.589   9.111
 8942WAT      O27067   1.286   6.443   4.179
 8942WAT     H127068   1.221   6.461   4.253
 8942WAT     H227069   1.344   6.365   4.204
 8943WAT      O27070   0.496   0.436   6.704
 8943WAT     H127071   0.526   0.512   6.761
 8943WAT     H227072   0.564   0.362   6.708
 8944WAT      O27073   9.539   5.999   1.116
 8944WAT     H127074   9.506   6.084   1.076
 8944WAT     H227075   9.475   5.925   1.095
 8945WAT      O27076   2.260   3.665   2.423
 8945WAT     H127077   2.246   3.715   2.337
 8945WAT     H227078   2.183   3.603   2.437
 8946WAT      O27079   2.921   7.187   4.979
 8946WAT     H127080   2.852   7.200   5.051
 8946WAT     H227081   2.933   7.090   4.961
 8947WAT      O27082   3.290   2.048   6.797
 8947WAT     H127083   3.209   2.080   6.747
 8947WAT     H227084   3.316   2.116   6.865
 8948WAT      O27085   0.530   4.413   7.427
 8948WAT     H127086   0.471   4.396   7.348
 8948WAT     H227087   0.484   4.385   7.511
 8949WAT      O27088   4.025   6.823   0.488
 8949WAT     H127089   3.971   6.740   0.495
 8949WAT     H227090   3.996   6.887   0.559
 8950WAT      O27091   7.655   3.731   5.119
 8950WAT     H127092   7.612   3.736   5.029
 8950WAT     H227093   7.602   3.784   5.185
 8951WAT      O27094   0.481   9.658   5.991
 8951WAT     H127095   0.505   9.566   5.959
 8951WAT     H227096   0.382   9.669   5.989
 8952WAT      O27097   9.404   4.494   9.564
 8952WAT     H127098   9.421   4.571   9.626
 8952WAT     H227099   9.335   4.434   9.604
 8953WAT      O27100   3.470   8.609   7.296
 8953WAT     H127101   3.406   8.684   7.310
 8953WAT     H227102   3.424   8.521   7.311
 8954WAT      O27103   4.522   9.822   6.731
 8954WAT     H127104   4.475   9.858   6.650
 8954WAT     H227105   4.542   9.896   6.794
 8955WAT      O27106   7.627   0.352   1.423
 8955WAT     H127107   7.688   0.336   1.500
 8955WAT     H227108   7.673   0.325   1.338
 8956WAT      O27109   8.925   8.693   4.581
 8956WAT     H127110   8.886   8.611   4.625
 8956WAT     H227111   8.934   8.677   4.483
 8957WAT      O27112   5.713   0.432   7.163
 8957WAT     H127113   5.791   0.462   7.218
 8957WAT     H227114   5.739   0.432   7.066
 8958WAT      O27115   5.405   3.306   8.998
 8958WAT     H127116   5.394   3.216   9.039
 8958WAT     H227117   5.358   3.375   9.053
 8959WAT      O27118   2.991   5.793   2.987
 8959WAT     H127119   3.086   5.774   2.962
 8959WAT     H227120   2.935   5.712   2.968
 8960WAT      O27121   0.482   5.117   2.772
 8960WAT     H127122   0.501   5.200   2.825
 8960WAT     H227123   0.500   5.135   2.675
 8961WAT      O27124   0.011   1.996   1.353
 8961WAT     H127125   0.103   1.956   1.349
 8961WAT     H227126  -0.012   2.035   1.264
 8962WAT      O27127   5.249   3.655   7.949
 8962WAT     H127128   5.310   3.712   8.003
 8962WAT     H227129   5.210   3.708   7.874
 8963WAT      O27130   0.849   1.246   7.112
 8963WAT     H127131   0.869   1.308   7.037
 8963WAT     H227132   0.927   1.185   7.127
 8964WAT      O27133   8.094   5.510   3.592
 8964WAT     H127134   8.069   5.414   3.581
 8964WAT     H227135   8.155   5.520   3.671
 8965WAT      O27136   7.883   1.814   1.047
 8965WAT     H127137   7.863   1.784   0.954
 8965WAT     H227138   7.805   1.794   1.106
 8966WAT      O27139   7.140   2.277   1.286
 8966WAT     H127140   7.103   2.188   1.257
 8966WAT     H227141   7.222   2.298   1.234
 8967WAT      O27142   2.687   6.229   6.072
 8967WAT     H127143   2.718   6.241   5.978
 8967WAT     H227144   2.588   6.244   6.077
 8968WAT      O27145   4.198   5.672   4.278
 8968WAT     H127146   4.267   5.704   4.342
 8968WAT     H227147   4.239   5.660   4.188
 8969WAT      O27148   1.249   7.572   7.426
 8969WAT     H127149   1.302   7.623   7.493
 8969WAT     H227150   1.226   7.631   7.348
 8970WAT      O27151   8.992   3.919   3.678
 8970WAT     H127152   9.033   3.993   3.625
 8970WAT     H227153   8.926   3.870   3.620
 8971WAT      O27154   4.170   9.445   7.453
 8971WAT     H127155   4.220   9.431   7.539
 8971WAT     H227156   4.170   9.543   7.431
 8972WAT      O27157   3.516   0.379   9.351
 8972WAT     H127158   3.536   0.343   9.259
 8972WAT     H227159   3.473   0.307   9.405
 8973WAT      O27160   3.039   0.615   3.384
 8973WAT     H127161   3.083   0.670   3.313
 8973WAT     H227162   3.095   0.617   3.467
 8974WAT      O27163   7.340   0.777   0.242
 8974WAT     H127164   7.348   0.818   0.150
 8974WAT     H227165   7.245   0.780   0.272
 8975WAT      O27166   6.966   7.406   8.268
 8975WAT     H127167   7.003   7.377   8.180
 8975WAT     H227168   6.958   7.326   8.328
 8976WAT      O27169   3.598   7.864   5.278
 8976WAT     H127170   3.585   7.816   5.191
 8976WAT     H227171   3.565   7.806   5.353
 8977WAT      O27172   6.585   1.123   1.766
 8977WAT     H127173   6.647   1.198   1.790
 8977WAT     H227174   6.518   1.110   1.839
 8978WAT      O27175   3.971   7.162   0.539
 8978WAT     H127176   3.955   7.069   0.571
 8978WAT     H227177   3.941   7.227   0.609
 8979WAT      O27178   6.008   0.334   1.106
 8979WAT     H127179   6.085   0.328   1.170
 8979WAT     H227180   5.961   0.422   1.119
 8980WAT      O27181   3.077   2.306   7.971
 8980WAT     H127182   3.002   2.289   7.907
 8980WAT     H227183   3.042   2.304   8.065
 8981WAT      O27184   5.334   2.708   4.168
 8981WAT     H127185   5.394   2.639   4.208
 8981WAT     H227186   5.273   2.744   4.238
 8982WAT      O27187   2.996   3.823   7.540
 8982WAT     H127188   2.994   3.920   7.518
 8982WAT     H227189   2.992   3.770   7.455
 8983WAT      O27190   7.088   9.502   4.515
 8983WAT     H127191   7.169   9.559   4.504
 8983WAT     H227192   7.033   9.506   4.431
 8984WAT      O27193   2.271   4.502   2.060
 8984WAT     H127194   2.326   4.501   2.144
 8984WAT     H227195   2.310   4.568   1.996
 8985WAT      O27196   6.074   0.007   0.468
 8985WAT     H127197   6.132  -0.069   0.497
 8985WAT     H227198   6.082   0.082   0.533
 8986WAT      O27199   3.933   3.060   7.316
 8986WAT     H127200   3.954   3.076   7.413
 8986WAT     H227201   3.850   3.110   7.291
 8987WAT      O27202   5.302   7.346   8.598
 8987WAT     H127203   5.253   7.420   8.645
 8987WAT     H227204   5.263   7.334   8.506
 8988WAT      O27205   2.891   9.023   2.614
 8988WAT     H127206   2.955   9.041   2.689
 8988WAT     H227207   2.800   9.056   2.640
 8989WAT      O27208   7.285   5.966   5.341
 8989WAT     H127209   7.260   5.941   5.247
 8989WAT     H227210   7.318   5.886   5.390
 8990WAT      O27211   4.353   9.000   2.705
 8990WAT     H127212   4.264   8.954   2.696
 8990WAT     H227213   4.408   8.953   2.773
 8991WAT      O27214   2.846   5.761   1.501
 8991WAT     H127215   2.771   5.819   1.534
 8991WAT     H227216   2.918   5.758   1.570
 8992WAT      O27217   4.578   8.669   7.706
 8992WAT     H127218   4.528   8.708   7.628
 8992WAT     H227219   4.513   8.646   7.778
 8993WAT      O27220   2.464   3.334   4.837
 8993WAT     H127221   2.490   3.267   4.906
 8993WAT     H227222   2.366   3.326   4.818
 8994WAT      O27223   6.884   7.156   9.782
 8994WAT     H127224   6.836   7.179   9.697
 8994WAT     H227225   6.866   7.226   9.850
 8995WAT      O27226   6.834   6.036   1.224
 8995WAT     H127227   6.885   6.056   1.307
 8995WAT     H227228   6.773   6.112   1.203
 8996WAT      O27229   0.964   6.177   5.807
 8996WAT     H127230   0.909   6.248   5.765
 8996WAT     H227231   0.904   6.109   5.849
 8997WAT      O27232   8.273   8.191   0.702
 8997WAT     H127233   8.325   8.129   0.761
 8997WAT     H227234   8.335   8.260   0.664
 8998WAT      O27235   6.819   8.206   9.244
 8998WAT     H127236   6.808   8.202   9.343
 8998WAT     H227237   6.866   8.290   9.218
 8999WAT      O27238   7.620   8.788   2.303
 8999WAT     H127239   7.587   8.740   2.221
 8999WAT     H227240   7.716   8.811   2.291
 9000WAT      O27241   4.698   2.568   9.196
 9000WAT     H127242   4.715   2.584   9.099
 9000WAT     H227243   4.704   2.470   9.215
 9001WAT      O27244   6.901   1.432   5.159
 9001WAT     H127245   6.866   1.520   5.127
 9001WAT     H227246   6.832   1.360   5.143
 9002WAT      O27247   3.645   2.012   5.622
 9002WAT     H127248   3.655   1.928   5.568
 9002WAT     H227249   3.661   1.992   5.718
 9003WAT      O27250   0.932   0.411   8.641
 9003WAT     H127251   0.970   0.480   8.703
 9003WAT     H227252   0.920   0.325   8.690
 9004WAT      O27253   8.100   4.581   3.442
 9004WAT     H127254   8.116   4.596   3.345
 9004WAT     H227255   8.031   4.510   3.454
 9005WAT      O27256   8.204   3.574   5.784
 9005WAT     H127257   8.161   3.580   5.694
 9005WAT     H227258   8.159   3.503   5.838
 9006WAT      O27259   5.889   1.982   7.622
 9006WAT     H127260   5.966   1.922   7.601
 9006WAT     H227261   5.914   2.077   7.603
 9007WAT      O27262   9.442   1.131   6.534
 9007WAT     H127263   9.486   1.057   6.585
 9007WAT     H227264   9.495   1.215   6.545
 9008WAT      O27265   8.593   3.698   0.320
 9008WAT     H127266   8.551   3.787   0.304
 9008WAT     H227267   8.580   3.671   0.415
 9009WAT      O27268   5.160   5.556   9.055
 9009WAT     H127269   5.217   5.529   9.132
 9009WAT     H227270   5.193   5.642   9.016
 9010WAT      O27271   8.348   4.552   6.682
 9010WAT     H127272   8.368   4.602   6.767
 9010WAT     H227273   8.408   4.472   6.676
 9011WAT      O27274   4.064   1.348   0.761
 9011WAT     H127275   4.130   1.303   0.702
 9011WAT     H227276   4.107   1.425   0.808
 9012WAT      O27277   7.083   8.695   7.167
 9012WAT     H127278   7.117   8.789   7.159
 9012WAT     H227279   7.029   8.685   7.250
 9013WAT      O27280   6.187   7.717   3.020
 9013WAT     H127281   6.270   7.772   3.024
 9013WAT     H227282   6.165   7.695   2.925
 9014WAT      O27283   5.452   5.719   5.351
 9014WAT     H127284   5.479   5.625   5.331
 9014WAT     H227285   5.508   5.754   5.427
 9015WAT      O27286   2.197   8.842   8.548
 9015WAT     H127287   2.260   8.778   8.505
 9015WAT     H227288   2.201   8.833   8.647
 9016WAT      O27289   5.521   3.475   7.513
 9016WAT     H127290   5.462   3.399   7.542
 9016WAT     H227291   5.505   3.554   7.571
 9017WAT      O27292   8.600   9.350   0.953
 9017WAT     H127293   8.667   9.396   1.011
 9017WAT     H227294   8.597   9.253   0.977
 9018WAT      O27295   4.561   9.173   4.965
 9018WAT     H127296   4.657   9.147   4.954
 9018WAT     H227297   4.549   9.220   5.052
 9019WAT      O27298   5.055   7.545   2.326
 9019WAT     H127299   5.089   7.505   2.411
 9019WAT     H227300   5.027   7.639   2.342
 9020WAT      O27301   0.675   1.355   3.075
 9020WAT     H127302   0.595   1.392   3.123
 9020WAT     H227303   0.646   1.314   2.988
 9021WAT      O27304   9.593   3.212   8.724
 9021WAT     H127305   9.663   3.161   8.775
 9021WAT     H227306   9.550   3.279   8.785
 9022WAT      O27307   8.544   8.758   3.334
 9022WAT     H127308   8.568   8.803   3.420
 9022WAT     H227309   8.445   8.743   3.330
 9023WAT      O27310   5.967   0.639   1.920
 9023WAT     H127311   6.052   0.676   1.882
 9023WAT     H227312   5.897   0.638   1.849
 9024WAT      O27313   5.516   1.466   8.795
 9024WAT     H127314   5.521   1.369   8.772
 9024WAT     H227315   5.431   1.485   8.844
 9025WAT      O27316   7.769   2.545   4.787
 9025WAT     H127317   7.832   2.480   4.830
 9025WAT     H227318   7.732   2.606   4.857
 9026WAT      O27319   3.255   7.886   2.931
 9026WAT     H127320   3.166   7.931   2.945
 9026WAT     H227321   3.328   7.951   2.953
 9027WAT      O27322   6.612   4.318   4.668
 9027WAT     H127323   6.567   4.406   4.681
 9027WAT     H227324   6.547   4.245   4.685
 9028WAT      O27325   1.383   2.569   1.811
 9028WAT     H127326   1.433   2.483   1.827
 9028WAT     H227327   1.321   2.557   1.734
 9029WAT      O27328   6.826   2.583   2.602
 9029WAT     H127329   6.823   2.601   2.504
 9029WAT     H227330   6.870   2.659   2.649
 9030WAT      O27331   6.724   5.832   0.905
 9030WAT     H127332   6.817   5.867   0.902
 9030WAT     H227333   6.692   5.814   0.812
 9031WAT      O27334   1.593   7.444   4.511
 9031WAT     H127335   1.557   7.488   4.593
 9031WAT     H227336   1.582   7.505   4.433
 9032WAT      O27337   2.119   3.902   7.389
 9032WAT     H127338   2.044   3.867   7.445
 9032WAT     H227339   2.186   3.948   7.448
 9033WAT      O27340   6.928   2.930   5.247
 9033WAT     H127341   6.969   2.992   5.314
 9033WAT     H227342   6.926   2.974   5.157
 9034WAT      O27343   6.897   0.397   8.848
 9034WAT     H127344   6.849   0.352   8.924
 9034WAT     H227345   6.860   0.489   8.836
 9035WAT      O27346   8.252   3.991   9.449
 9035WAT     H127347   8.273   3.903   9.405
 9035WAT     H227348   8.319   4.009   9.521
 9036WAT      O27349   3.781   3.222   5.474
 9036WAT     H127350   3.876   3.242   5.451
 9036WAT     H227351   3.721   3.291   5.432
 9037WAT      O27352   0.916   1.363   5.761
 9037WAT     H127353   1.006   1.396   5.791
 9037WAT     H227354   0.913   1.263   5.772
 9038WAT      O27355   1.877   6.154   6.881
 9038WAT     H127356   1.841   6.133   6.791
 9038WAT     H227357   1.925   6.075   6.918
 9039WAT      O27358   8.630   1.334   2.031
 9039WAT     H127359   8.665   1.240   2.030
 9039WAT     H227360   8.572   1.349   1.951
 9040WAT      O27361   9.806   5.329   5.608
 9040WAT     H127362   9.868   5.268   5.658
 9040WAT     H227363   9.800   5.299   5.513
 9041WAT      O27364   5.300   4.572   3.011
 9041WAT     H127365   5.333   4.658   3.048
 9041WAT     H227366   5.200   4.571   3.012
 9042WAT      O27367   7.924   9.049   5.931
 9042WAT     H127368   7.881   9.060   6.020
 9042WAT     H227369   7.854   9.034   5.861
 9043WAT      O27370   6.539   7.699   8.771
 9043WAT     H127371   6.504   7.699   8.677
 9043WAT     H227372   6.565   7.791   8.798
 9044WAT      O27373   8.858   5.189   1.604
 9044WAT     H127374   8.888   5.226   1.692
 9044WAT     H227375   8.764   5.217   1.587
 9045WAT      O27376   9.219   2.988   3.572
 9045WAT     H127377   9.260   3.080   3.573
 9045WAT     H227378   9.283   2.923   3.612
 9046WAT      O27379   7.289   3.038   3.591
 9046WAT     H127380   7.361   2.976   3.560
 9046WAT     H227381   7.207   3.024   3.535
 9047WAT      O27382   3.276   7.489   9.694
 9047WAT     H127383   3.351   7.548   9.664
 9047WAT     H227384   3.308   7.395   9.701
 9048WAT      O27385   8.429   3.236   2.229
 9048WAT     H127386   8.501   3.305   2.218
 9048WAT     H227387   8.398   3.206   2.139
 9049WAT      O27388   8.176   7.088   3.773
 9049WAT     H127389   8.193   7.113   3.868
 9049WAT     H227390   8.182   7.170   3.716
 9050WAT      O27391   5.755   6.787   8.928
 9050WAT     H127392   5.725   6.752   8.839
 9050WAT     H227393   5.850   6.763   8.944
 9051WAT      O27394   2.902   2.919   8.176
 9051WAT     H127395   2.803   2.921   8.165
 9051WAT     H227396   2.946   2.932   8.087
 9052WAT      O27397   8.884   9.176   7.338
 9052WAT     H127398   8.940   9.256   7.362
 9052WAT     H227399   8.936   9.115   7.278
 9053WAT      O27400   6.659   6.546   9.332
 9053WAT     H127401   6.629   6.609   9.261
 9053WAT     H227402   6.624   6.454   9.313
 9054WAT      O27403   2.872   8.953   4.204
 9054WAT     H127404   2.914   9.043   4.201
 9054WAT     H227405   2.933   8.886   4.161
 9055WAT      O27406   1.240   2.394   2.069
 9055WAT     H127407   1.313   2.397   2.001
 9055WAT     H227408   1.275   2.427   2.157
 9056WAT      O27409   6.307   3.643   9.866
 9056WAT     H127410   6.391   3.688   9.897
 9056WAT     H227411   6.238   3.712   9.845
 9057WAT      O27412   7.004   1.316   6.669
 9057WAT     H127413   6.919   1.322   6.615
 9057WAT     H227414   6.982   1.322   6.766
 9058WAT      O27415   5.399   9.084   8.405
 9058WAT     H127416   5.336   9.133   8.345
 9058WAT     H227417   5.451   9.149   8.460
 9059WAT      O27418   6.202   6.544   3.345
 9059WAT     H127419   6.254   6.494   3.414
 9059WAT     H227420   6.204   6.495   3.258
 9060WAT      O27421   2.295   9.528   4.044
 9060WAT     H127422   2.224   9.475   4.092
 9060WAT     H227423   2.252   9.582   3.972
 9061WAT      O27424   7.029   0.614   0.128
 9061WAT     H127425   7.004   0.688   0.190
 9061WAT     H227426   7.128   0.599   0.132
 9062WAT      O27427   9.880   2.020   4.577
 9062WAT     H127428   9.928   1.938   4.548
 9062WAT     H227429   9.890   2.092   4.508
 9063WAT      O27430   3.451   5.769   6.009
 9063WAT     H127431   3.539   5.722   5.997
 9063WAT     H227432   3.468   5.863   6.040
 9064WAT      O27433   3.588   8.885   5.559
 9064WAT     H127434   3.555   8.911   5.468
 9064WAT     H227435   3.509   8.869   5.619
 9065WAT      O27436   0.629   7.599   3.412
 9065WAT     H127437   0.688   7.528   3.373
 9065WAT     H227438   0.682   7.652   3.479
 9066WAT      O27439   3.718   8.046   7.407
 9066WAT     H127440   3.736   7.979   7.479
 9066WAT     H227441   3.799   8.055   7.349
 9067WAT      O27442   2.778   1.362   8.603
 9067WAT     H127443   2.873   1.349   8.573
 9067WAT     H227444   2.752   1.458   8.590
 9068WAT      O27445   0.698   5.631   2.606
 9068WAT     H127446   0.776   5.579   2.575
 9068WAT     H227447   0.619   5.570   2.618
 9069WAT      O27448   6.031   2.114   7.286
 9069WAT     H127449   5.998   2.205   7.311
 9069WAT     H227450   5.960   2.047   7.307
 9070WAT      O27451   2.715   1.825   0.928
 9070WAT     H127452   2.617   1.823   0.947
 9070WAT     H227453   2.767   1.822   1.013
 9071WAT      O27454   5.190   8.501   9.212
 9071WAT     H127455   5.178   8.524   9.116
 9071WAT     H227456   5.287   8.489   9.232
 9072WAT      O27457   5.765   5.710   6.452
 9072WAT     H127458   5.765   5.621   6.407
 9072WAT     H227459   5.798   5.700   6.546
 9073WAT      O27460   9.139   3.127   2.429
 9073WAT     H127461   9.228   3.095   2.462
 9073WAT     H227462   9.078   3.141   2.507
 9074WAT      O27463   7.358   4.171   9.763
 9074WAT     H127464   7.456   4.168   9.786
 9074WAT     H227465   7.334   4.262   9.732
 9075WAT      O27466   2.305   4.195   6.627
 9075WAT     H127467   2.356   4.266   6.674
 9075WAT     H227468   2.288   4.223   6.532
 9076WAT      O27469   5.607   1.233   6.794
 9076WAT     H127470   5.569   1.302   6.734
 9076WAT     H227471   5.706   1.227   6.780
 9077WAT      O27472   4.578   1.026   0.913
 9077WAT     H127473   4.615   0.949   0.964
 9077WAT     H227474   4.646   1.059   0.848
 9078WAT      O27475   5.420   8.306   9.263
 9078WAT     H127476   5.357   8.268   9.330
 9078WAT     H227477   5.510   8.264   9.275
 9079WAT      O27478   8.252   1.567   8.140
 9079WAT     H127479   8.278   1.649   8.088
 9079WAT     H227480   8.224   1.495   8.077
 9080WAT      O27481   3.362   9.076   8.902
 9080WAT     H127482   3.420   9.002   8.938
 9080WAT     H227483   3.399   9.164   8.931
 9081WAT      O27484   5.017   9.737   4.271
 9081WAT     H127485   4.998   9.747   4.173
 9081WAT     H227486   5.096   9.793   4.295
 9082WAT      O27487   8.332   9.826   4.065
 9082WAT     H127488   8.324   9.920   4.035
 9082WAT     H227489   8.283   9.766   4.002
 9083WAT      O27490   4.804   3.237   0.420
 9083WAT     H127491   4.896   3.273   0.406
 9083WAT     H227492   4.741   3.311   0.442
 9084WAT      O27493   3.038   1.315   8.569
 9084WAT     H127494   3.032   1.312   8.668
 9084WAT     H227495   3.119   1.264   8.539
 9085WAT      O27496   4.445   8.535   0.965
 9085WAT     H127497   4.516   8.549   0.896
 9085WAT     H227498   4.355   8.536   0.921
 9086WAT      O27499   4.028   0.034   1.847
 9086WAT     H127500   4.111   0.030   1.791
 9086WAT     H227501   4.054   0.045   1.943
 9087WAT      O27502   0.848   2.253   7.652
 9087WAT     H127503   0.930   2.207   7.616
 9087WAT     H227504   0.854   2.351   7.632
 9088WAT      O27505   5.546   9.566   5.274
 9088WAT     H127506   5.504   9.485   5.231
 9088WAT     H227507   5.646   9.560   5.266
 9089WAT      O27508   6.906   0.315   8.168
 9089WAT     H127509   6.902   0.222   8.204
 9089WAT     H227510   6.994   0.356   8.192
 9090WAT      O27511   8.263   8.433   1.365
 9090WAT     H127512   8.243   8.395   1.274
 9090WAT     H227513   8.273   8.359   1.431
 9091WAT      O27514   1.518   6.764   5.952
 9091WAT     H127515   1.564   6.853   5.951
 9091WAT     H227516   1.585   6.691   5.936
 9092WAT      O27517   1.109   2.870   1.917
 9092WAT     H127518   1.162   2.857   1.833
 9092WAT     H227519   1.060   2.786   1.939
 9093WAT      O27520   1.914   9.349   6.381
 9093WAT     H127521   1.957   9.438   6.395
 9093WAT     H227522   1.839   9.338   6.446
 9094WAT      O27523   3.777   3.023   6.271
 9094WAT     H127524   3.778   3.120   6.296
 9094WAT     H227525   3.819   3.012   6.182
 9095WAT      O27526   6.668   7.308   8.888
 9095WAT     H127527   6.677   7.222   8.938
 9095WAT     H227528   6.603   7.296   8.813
 9096WAT      O27529   9.820   7.509   5.362
 9096WAT     H127530   9.873   7.583   5.404
 9096WAT     H227531   9.868   7.423   5.374
 9097WAT      O27532   2.023   3.348   0.485
 9097WAT     H127533   2.081   3.357   0.566
 9097WAT     H227534   2.079   3.328   0.405
 9098WAT      O27535   6.110   7.098   0.169
 9098WAT     H127536   6.018   7.131   0.188
 9098WAT     H227537   6.176   7.142   0.230
 9099WAT      O27538   2.199   9.773   1.977
 9099WAT     H127539   2.180   9.725   2.062
 9099WAT     H227540   2.193   9.708   1.900
 9100WAT      O27541   8.695   4.005   1.544
 9100WAT     H127542   8.650   3.956   1.619
 9100WAT     H227543   8.667   3.965   1.457
 9101WAT      O27544   9.576   3.300   3.069
 9101WAT     H127545   9.526   3.246   3.136
 9101WAT     H227546   9.673   3.277   3.073
 9102WAT      O27547   7.065   0.732   3.336
 9102WAT     H127548   7.152   0.759   3.377
 9102WAT     H227549   7.060   0.766   3.242
 9103WAT      O27550   5.423   0.825   8.556
 9103WAT     H127551   5.422   0.786   8.648
 9103WAT     H227552   5.339   0.799   8.509
 9104WAT      O27553   0.941   2.357   8.306
 9104WAT     H127554   0.848   2.323   8.322
 9104WAT     H227555   0.939   2.428   8.236
 9105WAT      O27556   1.266   5.411   8.789
 9105WAT     H127557   1.307   5.357   8.715
 9105WAT     H227558   1.246   5.503   8.756
 9106WAT      O27559   4.025   0.502   6.605
 9106WAT     H127560   3.937   0.462   6.631
 9106WAT     H227561   4.018   0.541   6.514
 9107WAT      O27562   3.458   6.564   6.366
 9107WAT     H127563   3.452   6.498   6.441
 9107WAT     H227564   3.473   6.515   6.280
 9108WAT      O27565   7.362   0.373   0.749
 9108WAT     H127566   7.357   0.416   0.659
 9108WAT     H227567   7.289   0.304   0.757
 9109WAT      O27568   5.975   7.004   2.365
 9109WAT     H127569   5.877   7.014   2.384
 9109WAT     H227570   6.002   6.910   2.384
 9110WAT      O27571   2.784   1.438   9.304
 9110WAT     H127572   2.749   1.348   9.276
 9110WAT     H227573   2.836   1.478   9.229
 9111WAT      O27574   1.524   2.762   1.954
 9111WAT     H127575   1.520   2.739   2.051
 9111WAT     H227576   1.475   2.692   1.901
 9112WAT      O27577   7.596   5.526   3.947
 9112WAT     H127578   7.580   5.614   3.990
 9112WAT     H227579   7.537   5.457   3.989
 9113WAT      O27580   6.258   2.657   2.691
 9113WAT     H127581   6.207   2.587   2.642
 9113WAT     H227582   6.271   2.737   2.633
 9114WAT      O27583   2.131   8.292   6.673
 9114WAT     H127584   2.144   8.320   6.768
 9114WAT     H227585   2.170   8.201   6.659
 9115WAT      O27586   1.633   4.532   4.980
 9115WAT     H127587   1.677   4.492   5.060
 9115WAT     H227588   1.680   4.618   4.956
 9116WAT      O27589   4.702   9.271   3.896
 9116WAT     H127590   4.669   9.304   3.984
 9116WAT     H227591   4.732   9.348   3.841
 9117WAT      O27592   0.554   9.562   2.190
 9117WAT     H127593   0.578   9.581   2.285
 9117WAT     H227594   0.497   9.479   2.187
 9118WAT      O27595   5.626   3.874   1.985
 9118WAT     H127596   5.626   3.974   1.992
 9118WAT     H227597   5.718   3.839   2.003
 9119WAT      O27598   2.309   6.715   2.202
 9119WAT     H127599   2.277   6.731   2.109
 9119WAT     H227600   2.407   6.734   2.207
 9120WAT      O27601   1.894   8.960   3.209
 9120WAT     H127602   1.855   8.946   3.118
 9120WAT     H227603   1.851   8.896   3.274
 9121WAT      O27604   4.185   3.594   8.846
 9121WAT     H127605   4.145   3.521   8.901
 9121WAT     H227606   4.191   3.677   8.901
 9122WAT      O27607   5.090   2.496   1.009
 9122WAT     H127608   5.124   2.434   1.079
 9122WAT     H227609   5.042   2.572   1.052
 9123WAT      O27610   0.726   3.528   2.622
 9123WAT     H127611   0.772   3.617   2.613
 9123WAT     H227612   0.647   3.526   2.561
 9124WAT      O27613   3.436   6.275   7.954
 9124WAT     H127614   3.377   6.203   7.918
 9124WAT     H227615   3.448   6.346   7.885
 9125WAT      O27616   1.195   9.357   3.399
 9125WAT     H127617   1.201   9.261   3.373
 9125WAT     H227618   1.099   9.383   3.411
 9126WAT      O27619   3.924   6.214   7.595
 9126WAT     H127620   3.976   6.297   7.574
 9126WAT     H227621   3.978   6.134   7.570
 9127WAT      O27622   6.032   2.878   5.867
 9127WAT     H127623   6.100   2.876   5.794
 9127WAT     H227624   5.948   2.834   5.837
 9128WAT      O27625   2.226   0.322   2.967
 9128WAT     H127626   2.259   0.355   3.055
 9128WAT     H227627   2.144   0.267   2.981
 9129WAT      O27628   5.958   8.425   3.794
 9129WAT     H127629   5.963   8.518   3.831
 9129WAT     H227630   5.995   8.424   3.701
 9130WAT      O27631   7.988   6.136   7.346
 9130WAT     H127632   7.968   6.074   7.269
 9130WAT     H227633   7.996   6.230   7.312
 9131WAT      O27634   8.754   0.258   2.306
 9131WAT     H127635   8.726   0.242   2.401
 9131WAT     H227636   8.800   0.347   2.300
 9132WAT      O27637   1.015   4.859   5.311
 9132WAT     H127638   1.027   4.825   5.404
 9132WAT     H227639   1.090   4.921   5.288
 9133WAT      O27640   6.272   0.886   8.006
 9133WAT     H127641   6.354   0.932   7.973
 9133WAT     H227642   6.224   0.946   8.070
 9134WAT      O27643   4.093   0.208   0.819
 9134WAT     H127644   4.159   0.279   0.795
 9134WAT     H227645   4.002   0.249   0.830
 9135WAT      O27646   0.949   2.464   2.614
 9135WAT     H127647   0.984   2.412   2.692
 9135WAT     H227648   0.881   2.409   2.565
 9136WAT      O27649   9.441   6.136   8.312
 9136WAT     H127650   9.484   6.052   8.346
 9136WAT     H227651   9.342   6.130   8.322
 9137WAT      O27652   1.548   1.487   7.645
 9137WAT     H127653   1.625   1.502   7.583
 9137WAT     H227654   1.583   1.474   7.738
 9138WAT      O27655   1.618   2.216   4.764
 9138WAT     H127656   1.537   2.169   4.729
 9138WAT     H227657   1.692   2.149   4.777
 9139WAT      O27658   7.456   9.812   1.088
 9139WAT     H127659   7.486   9.755   1.011
 9139WAT     H227660   7.421   9.899   1.052
 9140WAT      O27661   1.490   6.977   2.573
 9140WAT     H127662   1.422   6.983   2.500
 9140WAT     H227663   1.445   6.990   2.662
 9141WAT      O27664   0.226   5.301   9.399
 9141WAT     H127665   0.311   5.267   9.358
 9141WAT     H227666   0.148   5.263   9.349
 9142WAT      O27667   3.032   7.611   2.027
 9142WAT     H127668   3.059   7.650   2.114
 9142WAT     H227669   2.943   7.649   2.000
 9143WAT      O27670   0.004   9.777   6.468
 9143WAT     H127671   0.090   9.819   6.496
 9143WAT     H227672   0.017   9.729   6.381
 9144WAT      O27673   6.185   8.768   0.748
 9144WAT     H127674   6.223   8.759   0.840
 9144WAT     H227675   6.103   8.710   0.740
 9145WAT      O27676   0.550   0.081   0.138
 9145WAT     H127677   0.525   0.089   0.234
 9145WAT     H227678   0.496   0.010   0.094
 9146WAT      O27679   6.753   1.397   1.448
 9146WAT     H127680   6.725   1.302   1.464
 9146WAT     H227681   6.790   1.405   1.355
 9147WAT      O27682   0.975   1.664   1.296
 9147WAT     H127683   0.957   1.760   1.278
 9147WAT     H227684   0.917   1.607   1.238
 9148WAT      O27685   1.907   2.022   3.325
 9148WAT     H127686   1.960   2.024   3.240
 9148WAT     H227687   1.887   1.928   3.350
 9149WAT      O27688   6.638   4.134   0.860
 9149WAT     H127689   6.712   4.192   0.826
 9149WAT     H227690   6.582   4.102   0.783
 9150WAT      O27691   7.307   7.482   8.402
 9150WAT     H127692   7.237   7.540   8.359
 9150WAT     H227693   7.376   7.457   8.334
 9151WAT      O27694   0.213   8.801   0.290
 9151WAT     H127695   0.306   8.770   0.309
 9151WAT     H227696   0.215   8.873   0.221
 9152WAT      O27697   4.775   9.006   9.770
 9152WAT     H127698   4.737   9.052   9.850
 9152WAT     H227699   4.717   8.928   9.746
 9153WAT      O27700   7.698   5.503   4.356
 9153WAT     H127701   7.612   5.553   4.350
 9153WAT     H227702   7.764   5.556   4.409
 9154WAT      O27703   1.340   5.757   3.369
 9154WAT     H127704   1.425   5.742   3.319
 9154WAT     H227705   1.263   5.745   3.307
 9155WAT      O27706   0.212   8.290   8.829
 9155WAT     H127707   0.287   8.349   8.861
 9155WAT     H227708   0.128   8.315   8.876
 9156WAT      O27709   5.660   3.011   8.862
 9156WAT     H127710   5.724   2.994   8.787
 9156WAT     H227711   5.575   2.962   8.845
 9157WAT      O27712   5.434   1.089   3.997
 9157WAT     H127713   5.422   1.185   3.974
 9157WAT     H227714   5.519   1.077   4.048
 9158WAT      O27715   4.602   8.182   6.085
 9158WAT     H127716   4.662   8.252   6.124
 9158WAT     H227717   4.507   8.201   6.111
 9159WAT      O27718   6.440   7.035   9.535
 9159WAT     H127719   6.536   7.006   9.534
 9159WAT     H227720   6.393   6.993   9.612
 9160WAT      O27721   0.036   3.112   4.100
 9160WAT     H127722  -0.010   3.023   4.097
 9160WAT     H227723  -0.031   3.185   4.085
 9161WAT      O27724   8.749   2.921   8.023
 9161WAT     H127725   8.670   2.954   8.074
 9161WAT     H227726   8.725   2.910   7.927
 9162WAT      O27727   0.630   2.735   7.702
 9162WAT     H127728   0.609   2.675   7.625
 9162WAT     H227729   0.562   2.721   7.774
 9163WAT      O27730   8.709   4.106   4.782
 9163WAT     H127731   8.668   4.068   4.865
 9163WAT     H227732   8.808   4.093   4.785
 9164WAT      O27733   8.111   5.402   0.501
 9164WAT     H127734   8.056   5.485   0.494
 9164WAT     H227735   8.112   5.369   0.595
 9165WAT      O27736   3.536   7.376   6.351
 9165WAT     H127737   3.520   7.293   6.404
 9165WAT     H227738   3.600   7.435   6.400
 9166WAT      O27739   6.394   3.695   4.421
 9166WAT     H127740   6.487   3.659   4.427
 9166WAT     H227741   6.344   3.672   4.505
 9167WAT      O27742   0.302   8.859   9.763
 9167WAT     H127743   0.248   8.889   9.685
 9167WAT     H227744   0.258   8.890   9.847
 9168WAT      O27745   1.381   9.180   3.657
 9168WAT     H127746   1.392   9.107   3.590
 9168WAT     H227747   1.284   9.188   3.681
 9169WAT      O27748   9.353   9.798   8.900
 9169WAT     H127749   9.316   9.808   8.808
 9169WAT     H227750   9.451   9.815   8.899
 9170WAT      O27751   8.332   6.820   1.617
 9170WAT     H127752   8.365   6.913   1.630
 9170WAT     H227753   8.293   6.786   1.702
 9171WAT      O27754   7.979   3.780   8.054
 9171WAT     H127755   8.013   3.793   7.961
 9171WAT     H227756   7.945   3.687   8.063
 9172WAT      O27757   1.117   3.988   5.866
 9172WAT     H127758   1.061   3.909   5.891
 9172WAT     H227759   1.210   3.957   5.846
 9173WAT      O27760   8.493   0.957   3.566
 9173WAT     H127761   8.583   0.999   3.557
 9173WAT     H227762   8.424   1.028   3.584
 9174WAT      O27763   8.204   7.446   0.124
 9174WAT     H127764   8.104   7.439   0.126
 9174WAT     H227765   8.239   7.390   0.049
 9175WAT      O27766   9.606   7.909   7.447
 9175WAT     H127767   9.688   7.937   7.497
 9175WAT     H227768   9.580   7.816   7.476
 9176WAT      O27769   9.515   1.894   2.799
 9176WAT     H127770   9.514   1.981   2.849
 9176WAT     H227771   9.566   1.906   2.714
 9177WAT      O27772   5.437   8.665   4.065
 9177WAT     H127773   5.486   8.682   4.151
 9177WAT     H227774   5.354   8.720   4.063
 9178WAT      O27775   1.812   6.061   2.661
 9178WAT     H127776   1.737   6.056   2.727
 9178WAT     H227777   1.825   6.156   2.633
 9179WAT      O27778   4.204   4.385   3.520
 9179WAT     H127779   4.262   4.415   3.444
 9179WAT     H227780   4.226   4.437   3.602
 9180WAT      O27781   4.108   9.713   9.102
 9180WAT     H127782   4.137   9.638   9.042
 9180WAT     H227783   4.028   9.686   9.154
 9181WAT      O27784   8.700   8.566   9.092
 9181WAT     H127785   8.649   8.501   9.035
 9181WAT     H227786   8.793   8.574   9.057
 9182WAT      O27787   6.965   1.998   2.569
 9182WAT     H127788   6.908   1.969   2.492
 9182WAT     H227789   6.970   1.924   2.636
 9183WAT      O27790   8.635   5.107   0.274
 9183WAT     H127791   8.566   5.176   0.251
 9183WAT     H227792   8.713   5.116   0.211
 9184WAT      O27793   5.756   3.920   5.433
 9184WAT     H127794   5.702   3.839   5.457
 9184WAT     H227795   5.715   3.964   5.353
 9185WAT      O27796   4.391   5.804   0.799
 9185WAT     H127797   4.402   5.741   0.876
 9185WAT     H227798   4.473   5.801   0.742
 9186WAT      O27799   3.737   2.097   9.814
 9186WAT     H127800   3.690   2.104   9.902
 9186WAT     H227801   3.721   2.180   9.761
 9187WAT      O27802   0.109   2.358   7.944
 9187WAT     H127803   0.178   2.407   7.998
 9187WAT     H227804   0.149   2.331   7.856
 9188WAT      O27805   7.500   2.974   6.058
 9188WAT     H127806   7.434   3.042   6.089
 9188WAT     H227807   7.525   2.914   6.134
 9189WAT      O27808   0.049   1.239   8.073
 9189WAT     H127809   0.077   1.152   8.032
 9189WAT     H227810   0.114   1.263   8.145
 9190WAT      O27811   4.849   8.683   6.172
 9190WAT     H127812   4.854   8.698   6.271
 9190WAT     H227813   4.826   8.769   6.127
 9191WAT      O27814   3.018   1.741   7.580
 9191WAT     H127815   3.022   1.654   7.630
 9191WAT     H227816   3.069   1.811   7.630
 9192WAT      O27817   1.137   6.872   6.211
 9192WAT     H127818   1.232   6.856   6.183
 9192WAT     H227819   1.106   6.796   6.268
 9193WAT      O27820   5.659   4.916   0.893
 9193WAT     H127821   5.601   4.958   0.823
 9193WAT     H227822   5.747   4.889   0.852
 9194WAT      O27823   5.983   5.454   0.440
 9194WAT     H127824   6.024   5.394   0.508
 9194WAT     H227825   6.026   5.437   0.351
 9195WAT      O27826   1.658   4.670   7.724
 9195WAT     H127827   1.620   4.659   7.816
 9195WAT     H227828   1.669   4.767   7.705
 9196WAT      O27829   6.995   0.920   9.000
 9196WAT     H127830   6.939   0.981   8.945
 9196WAT     H227831   6.977   0.937   9.097
 9197WAT      O27832   1.079   4.558   2.395
 9197WAT     H127833   1.089   4.647   2.350
 9197WAT     H227834   1.168   4.525   2.425
 9198WAT      O27835   9.593   8.387   5.349
 9198WAT     H127836   9.498   8.417   5.353
 9198WAT     H227837   9.649   8.456   5.303
 9199WAT      O27838   6.710   1.957   0.492
 9199WAT     H127839   6.675   1.869   0.524
 9199WAT     H227840   6.793   1.981   0.543
 9200WAT      O27841   6.836   2.005   4.625
 9200WAT     H127842   6.914   1.977   4.680
 9200WAT     H227843   6.867   2.055   4.544
 9201WAT      O27844   0.999   0.624   3.298
 9201WAT     H127845   1.054   0.688   3.246
 9201WAT     H227846   1.054   0.544   3.321
 9202WAT      O27847   9.714   4.978   6.284
 9202WAT     H127848   9.747   4.884   6.288
 9202WAT     H227849   9.663   4.999   6.367
 9203WAT      O27850   0.319   0.548   4.713
 9203WAT     H127851   0.269   0.505   4.638
 9203WAT     H227852   0.392   0.605   4.676
 9204WAT      O27853   0.149   0.315   7.159
 9204WAT     H127854   0.215   0.375   7.204
 9204WAT     H227855   0.071   0.370   7.126
 9205WAT      O27856   7.102   7.688   6.897
 9205WAT     H127857   7.140   7.761   6.954
 9205WAT     H227858   7.054   7.727   6.819
 9206WAT      O27859   1.290   0.585   0.512
 9206WAT     H127860   1.362   0.517   0.505
 9206WAT     H227861   1.293   0.627   0.603
 9207WAT      O27862   3.523   6.979   9.123
 9207WAT     H127863   3.470   6.985   9.207
 9207WAT     H227864   3.509   7.062   9.068
 9208WAT      O27865   0.380   3.142   1.557
 9208WAT     H127866   0.454   3.151   1.490
 9208WAT     H227867   0.368   3.229   1.605
 9209WAT      O27868   5.769   1.324   4.595
 9209WAT     H127869   5.814   1.379   4.524
 9209WAT     H227870   5.790   1.228   4.580
 9210WAT      O27871   6.930   7.376   7.236
 9210WAT     H127872   6.855   7.392   7.299
 9210WAT     H227873   7.011   7.427   7.267
 9211WAT      O27874   8.172   3.490   3.491
 9211WAT     H127875   8.123   3.442   3.563
 9211WAT     H227876   8.240   3.551   3.531
 9212WAT      O27877   2.919   1.846   9.794
 9212WAT     H127878   2.995   1.805   9.742
 9212WAT     H227879   2.857   1.774   9.824
 9213WAT      O27880   7.504   9.440   8.681
 9213WAT     H127881   7.528   9.345   8.663
 9213WAT     H227882   7.407   9.454   8.663
 9214WAT      O27883   7.338   1.188   9.017
 9214WAT     H127884   7.417   1.129   9.007
 9214WAT     H227885   7.361   1.264   9.079
 9215WAT      O27886   0.765   8.743   3.576
 9215WAT     H127887   0.733   8.692   3.655
 9215WAT     H227888   0.750   8.689   3.493
 9216WAT      O27889   9.623   2.430   5.642
 9216WAT     H127890   9.534   2.397   5.610
 9216WAT     H227891   9.629   2.529   5.625
 9217WAT      O27892   7.411   3.031   5.822
 9217WAT     H127893   7.409   2.958   5.753
 9217WAT     H227894   7.471   3.003   5.897
 9218WAT      O27895   2.937   1.376   6.452
 9218WAT     H127896   3.019   1.363   6.396
 9218WAT     H227897   2.891   1.289   6.465
 9219WAT      O27898   1.520   8.206   1.063
 9219WAT     H127899   1.446   8.248   1.115
 9219WAT     H227900   1.593   8.272   1.049
 9220WAT      O27901   1.434   8.517   1.066
 9220WAT     H127902   1.363   8.448   1.049
 9220WAT     H227903   1.447   8.528   1.164
 9221WAT      O27904   8.056   6.375   7.221
 9221WAT     H127905   8.126   6.442   7.199
 9221WAT     H227906   7.966   6.418   7.220
 9222WAT      O27907   6.204   0.778   6.776
 9222WAT     H127908   6.133   0.806   6.841
 9222WAT     H227909   6.277   0.730   6.825
 9223WAT      O27910   6.520   8.891   1.802
 9223WAT     H127911   6.473   8.898   1.890
 9223WAT     H227912   6.508   8.977   1.751
 9224WAT      O27913   7.800   2.085   6.721
 9224WAT     H127914   7.776   2.074   6.624
 9224WAT     H227915   7.760   2.169   6.756
 9225WAT      O27916   8.921   7.563   9.134
 9225WAT     H127917   8.853   7.521   9.194
 9225WAT     H227918   8.909   7.530   9.041
 9226WAT      O27919   6.333   0.512   5.766
 9226WAT     H127920   6.367   0.554   5.850
 9226WAT     H227921   6.233   0.500   5.772
 9227WAT      O27922   7.073   4.620   0.951
 9227WAT     H127923   7.085   4.639   1.049
 9227WAT     H227924   7.133   4.678   0.897
 9228WAT      O27925   0.755   9.811   7.201
 9228WAT     H127926   0.834   9.864   7.170
 9228WAT     H227927   0.759   9.799   7.300
 9229WAT      O27928   5.151   7.905   3.753
 9229WAT     H127929   5.105   7.866   3.674
 9229WAT     H227930   5.245   7.931   3.729
 9230WAT      O27931   2.572   2.895   2.512
 9230WAT     H127932   2.508   2.856   2.578
 9230WAT     H227933   2.524   2.919   2.428
 9231WAT      O27934   3.812   5.620   7.704
 9231WAT     H127935   3.752   5.681   7.755
 9231WAT     H227936   3.772   5.528   7.702
 9232WAT      O27937   8.517   7.118   5.369
 9232WAT     H127938   8.503   7.044   5.434
 9232WAT     H227939   8.586   7.092   5.302
 9233WAT      O27940   3.615   3.292   2.459
 9233WAT     H127941   3.701   3.332   2.430
 9233WAT     H227942   3.573   3.242   2.383
 9234WAT      O27943   8.495   8.473   9.454
 9234WAT     H127944   8.566   8.428   9.398
 9234WAT     H227945   8.407   8.468   9.406
 9235WAT      O27946   6.824   3.995   7.278
 9235WAT     H127947   6.829   4.071   7.213
 9235WAT     H227948   6.914   3.982   7.321
 9236WAT      O27949   1.152   5.085   5.240
 9236WAT     H127950   1.173   5.089   5.142
 9236WAT     H227951   1.062   5.125   5.256
 9237WAT      O27952   9.156   5.847   6.767
 9237WAT     H127953   9.164   5.747   6.770
 9237WAT     H227954   9.131   5.875   6.674
 9238WAT      O27955   5.363   3.410   9.542
 9238WAT     H127956   5.301   3.336   9.568
 9238WAT     H227957   5.426   3.428   9.618
 9239WAT      O27958   5.957   2.146   5.658
 9239WAT     H127959   5.976   2.238   5.626
 9239WAT     H227960   5.864   2.141   5.693
 9240WAT      O27961   1.041   6.122   0.497
 9240WAT     H127962   1.048   6.148   0.593
 9240WAT     H227963   1.124   6.150   0.448
 9241WAT      O27964   3.502   5.776   4.300
 9241WAT     H127965   3.517   5.824   4.387
 9241WAT     H227966   3.411   5.797   4.266
 9242WAT      O27967   2.280   0.432   3.788
 9242WAT     H127968   2.302   0.494   3.863
 9242WAT     H227969   2.319   0.342   3.807
 9243WAT      O27970   5.950   9.227   7.716
 9243WAT     H127971   5.879   9.157   7.729
 9243WAT     H227972   6.037   9.182   7.694
 9244WAT      O27973   4.998   9.644   9.347
 9244WAT     H127974   4.949   9.670   9.263
 9244WAT     H227975   5.035   9.726   9.390
 9245WAT      O27976   3.636   4.027   7.938
 9245WAT     H127977   3.566   4.054   7.872
 9245WAT     H227978   3.727   4.043   7.899
 9246WAT      O27979   2.312   8.109   8.142
 9246WAT     H127980   2.327   8.033   8.205
 9246WAT     H227981   2.248   8.174   8.184
 9247WAT      O27982   7.870   4.268   8.279
 9247WAT     H127983   7.792   4.215   8.246
 9247WAT     H227984   7.933   4.208   8.328
 9248WAT      O27985   7.128   3.009   9.511
 9248WAT     H127986   7.097   2.937   9.449
 9248WAT     H227987   7.096   3.098   9.477
 9249WAT      O27988   0.790   3.473   8.863
 9249WAT     H127989   0.762   3.552   8.918
 9249WAT     H227990   0.724   3.399   8.876
 9250WAT      O27991   4.769   5.699   3.521
 9250WAT     H127992   4.680   5.706   3.476
 9250WAT     H227993   4.757   5.660   3.612
 9251WAT      O27994   3.997   4.765   8.611
 9251WAT     H127995   3.927   4.723   8.667
 9251WAT     H227996   4.066   4.696   8.586
 9252WAT      O27997   6.886   8.670   1.535
 9252WAT     H127998   6.816   8.712   1.593
 9252WAT     H227999   6.875   8.570   1.536
 9253WAT      O28000   8.318   9.089   7.346
 9253WAT     H128001   8.392   9.080   7.279
 9253WAT     H228002   8.230   9.081   7.299
 9254WAT      O28003   9.121   1.048   7.211
 9254WAT     H128004   9.157   1.128   7.257
 9254WAT     H228005   9.191   0.977   7.208
 9255WAT      O28006   2.939   7.019   3.893
 9255WAT     H128007   2.925   6.920   3.897
 9255WAT     H228008   3.004   7.046   3.964
 9256WAT      O28009   7.085   6.807   2.264
 9256WAT     H128010   7.129   6.884   2.217
 9256WAT     H228011   7.134   6.722   2.242
 9257WAT      O28012   7.178   7.390   9.427
 9257WAT     H128013   7.206   7.310   9.481
 9257WAT     H228014   7.095   7.429   9.467
 9258WAT      O28015   0.252   0.756   7.547
 9258WAT     H128016   0.297   0.840   7.518
 9258WAT     H228017   0.257   0.748   7.646
 9259WAT      O28018   4.971   1.884   3.287
 9259WAT     H128019   5.060   1.867   3.329
 9259WAT     H228020   4.899   1.872   3.355
 9260WAT      O28021   5.341   2.183   5.077
 9260WAT     H128022   5.287   2.211   4.997
 9260WAT     H228023   5.439   2.193   5.056
 9261WAT      O28024   0.839   2.277   0.572
 9261WAT     H128025   0.777   2.318   0.506
 9261WAT     H228026   0.788   2.252   0.655
 9262WAT      O28027   7.140   7.280   5.738
 9262WAT     H128028   7.132   7.334   5.822
 9262WAT     H228029   7.048   7.259   5.703
 9263WAT      O28030   0.180   6.524   0.624
 9263WAT     H128031   0.118   6.527   0.703
 9263WAT     H228032   0.252   6.593   0.635
 9264WAT      O28033   4.709   2.624   0.269
 9264WAT     H128034   4.724   2.722   0.259
 9264WAT     H228035   4.624   2.607   0.318
 9265WAT      O28036   1.646   6.994   9.364
 9265WAT     H128037   1.652   7.062   9.291
 9265WAT     H228038   1.575   7.020   9.429
 9266WAT      O28039   0.689   7.951   7.352
 9266WAT     H128040   0.698   7.852   7.343
 9266WAT     H228041   0.669   7.974   7.448
 9267WAT      O28042   0.363   1.306   8.659
 9267WAT     H128043   0.396   1.377   8.597
 9267WAT     H228044   0.282   1.263   8.620
 9268WAT      O28045   2.587   2.277   7.552
 9268WAT     H128046   2.575   2.326   7.466
 9268WAT     H228047   2.571   2.180   7.538
 9269WAT      O28048   8.944   3.900   6.576
 9269WAT     H128049   9.014   3.942   6.519
 9269WAT     H228050   8.853   3.928   6.544
 9270WAT      O28051   0.897   3.047   7.952
 9270WAT     H128052   0.825   3.116   7.941
 9270WAT     H228053   0.886   2.976   7.883
 9271WAT      O28054   2.980   7.430   6.601
 9271WAT     H128055   2.944   7.523   6.594
 9271WAT     H228056   2.944   7.375   6.526
 9272WAT      O28057   5.255   1.788   7.003
 9272WAT     H128058   5.218   1.813   7.092
 9272WAT     H228059   5.351   1.816   6.996
 9273WAT      O28060   7.985   0.556   5.102
 9273WAT     H128061   8.072   0.513   5.126
 9273WAT     H228062   8.001   0.650   5.072
 9274WAT      O28063   1.418   4.483   9.099
 9274WAT     H128064   1.467   4.399   9.122
 9274WAT     H228065   1.345   4.462   9.034
 9275WAT      O28066   6.543   2.727   3.785
 9275WAT     H128067   6.448   2.754   3.800
 9275WAT     H228068   6.603   2.798   3.822
 9276WAT      O28069   1.415   6.635   3.233
 9276WAT     H128070   1.458   6.592   3.312
 9276WAT     H228071   1.321   6.602   3.224
 9277WAT      O28072   3.506   4.432   5.036
 9277WAT     H128073   3.581   4.370   5.011
 9277WAT     H228074   3.532   4.526   5.013
 9278WAT      O28075   5.995   7.800   5.097
 9278WAT     H128076   6.029   7.885   5.138
 9278WAT     H228077   6.067   7.731   5.100
 9279WAT      O28078   0.093   9.573   6.313
 9279WAT     H128079  -0.006   9.559   6.309
 9279WAT     H228080   0.137   9.494   6.356
 9280WAT      O28081   0.995   5.979   0.825
 9280WAT     H128082   1.038   6.068   0.810
 9280WAT     H228083   1.054   5.907   0.790
 9281WAT      O28084   1.812   6.077   6.622
 9281WAT     H128085   1.769   5.995   6.660
 9281WAT     H228086   1.744   6.130   6.571
 9282WAT      O28087   1.042   7.136   6.900
 9282WAT     H128088   1.064   7.060   6.962
 9282WAT     H228089   0.962   7.111   6.845
 9283WAT      O28090   0.051   5.484   4.321
 9283WAT     H128091   0.108   5.447   4.248
 9283WAT     H228092   0.041   5.583   4.308
 9284WAT      O28093   3.067   8.438   2.404
 9284WAT     H128094   3.079   8.471   2.498
 9284WAT     H228095   3.005   8.360   2.403
 9285WAT      O28096   0.503   3.866   6.196
 9285WAT     H128097   0.599   3.885   6.219
 9285WAT     H228098   0.497   3.838   6.101
 9286WAT      O28099   4.884   2.660   5.184
 9286WAT     H128100   4.915   2.744   5.228
 9286WAT     H228101   4.812   2.618   5.239
 9287WAT      O28102   4.330   3.187   3.742
 9287WAT     H128103   4.425   3.163   3.725
 9287WAT     H228104   4.281   3.198   3.655
 9288WAT      O28105   6.427   2.317   7.323
 9288WAT     H128106   6.352   2.301   7.259
 9288WAT     H228107   6.421   2.411   7.358
 9289WAT      O28108   2.958   6.169   1.126
 9289WAT     H128109   2.952   6.072   1.152
 9289WAT     H228110   2.911   6.183   1.039
 9290WAT      O28111   4.725   6.756   4.880
 9290WAT     H128112   4.652   6.689   4.901
 9290WAT     H228113   4.812   6.707   4.869
 9291WAT      O28114   2.574   1.142   0.933
 9291WAT     H128115   2.478   1.168   0.928
 9291WAT     H228116   2.629   1.221   0.960
 9292WAT      O28117   2.459   9.692   6.932
 9292WAT     H128118   2.436   9.729   6.842
 9292WAT     H228119   2.401   9.613   6.952
 9293WAT      O28120   3.384   0.989   8.415
 9293WAT     H128121   3.288   0.962   8.411
 9293WAT     H228122   3.390   1.089   8.421
 9294WAT      O28123   6.658   0.876   1.855
 9294WAT     H128124   6.622   0.784   1.837
 9294WAT     H228125   6.621   0.940   1.787
 9295WAT      O28126   0.933   1.787   7.475
 9295WAT     H128127   0.985   1.795   7.560
 9295WAT     H228128   0.996   1.783   7.398
 9296WAT      O28129   6.954   1.327   7.470
 9296WAT     H128130   7.000   1.369   7.392
 9296WAT     H228131   7.020   1.310   7.543
 9297WAT      O28132   0.222   2.850   5.665
 9297WAT     H128133   0.188   2.868   5.573
 9297WAT     H228134   0.283   2.924   5.694
 9298WAT      O28135   2.398   7.234   4.915
 9298WAT     H128136   2.413   7.225   5.013
 9298WAT     H228137   2.465   7.180   4.865
 9299WAT      O28138   0.723   0.689   4.435
 9299WAT     H128139   0.716   0.775   4.486
 9299WAT     H228140   0.799   0.696   4.369
 9300WAT      O28141   8.375   8.715   4.209
 9300WAT     H128142   8.286   8.683   4.242
 9300WAT     H228143   8.361   8.773   4.129
 9301WAT      O28144   0.525   7.154   8.813
 9301WAT     H128145   0.508   7.075   8.754
 9301WAT     H228146   0.483   7.140   8.902
 9302WAT      O28147   7.560   3.475   8.240
 9302WAT     H128148   7.616   3.467   8.322
 9302WAT     H228149   7.578   3.397   8.179
 9303WAT      O28150   3.301   5.286   4.391
 9303WAT     H128151   3.293   5.354   4.318
 9303WAT     H228152   3.231   5.303   4.460
 9304WAT      O28153   6.120   5.292   7.676
 9304WAT     H128154   6.183   5.354   7.722
 9304WAT     H228155   6.123   5.203   7.721
 9305WAT      O28156   1.786   8.530   3.741
 9305WAT     H128157   1.775   8.628   3.761
 9305WAT     H228158   1.868   8.516   3.687
 9306WAT      O28159   8.251   9.735   9.070
 9306WAT     H128160   8.197   9.694   9.143
 9306WAT     H228161   8.302   9.813   9.106
 9307WAT      O28162   0.252   2.199   9.502
 9307WAT     H128163   0.191   2.200   9.582
 9307WAT     H228164   0.346   2.217   9.532
 9308WAT      O28165   1.850   9.265   9.762
 9308WAT     H128166   1.935   9.213   9.771
 9308WAT     H228167   1.872   9.359   9.735
 9309WAT      O28168   5.145   7.102   3.664
 9309WAT     H128169   5.115   7.031   3.728
 9309WAT     H228170   5.066   7.157   3.636
 9310WAT      O28171   7.255   7.327   9.171
 9310WAT     H128172   7.353   7.341   9.155
 9310WAT     H228173   7.233   7.355   9.265
 9311WAT      O28174   9.474   0.260   3.544
 9311WAT     H128175   9.482   0.260   3.445
 9311WAT     H228176   9.531   0.187   3.582
 9312WAT      O28177   6.076   7.300   9.164
 9312WAT     H128178   6.172   7.310   9.137
 9312WAT     H228179   6.064   7.338   9.256
 9313WAT      O28180   7.155   4.095   9.204
 9313WAT     H128181   7.079   4.105   9.141
 9313WAT     H228182   7.179   3.999   9.214
 9314WAT      O28183   7.780   1.924   6.292
 9314WAT     H128184   7.869   1.919   6.245
 9314WAT     H228185   7.714   1.867   6.244
 9315WAT      O28186   3.479   8.015   4.904
 9315WAT     H128187   3.448   8.067   4.984
 9315WAT     H228188   3.458   8.067   4.821
 9316WAT      O28189   0.202   6.483   3.454
 9316WAT     H128190   0.281   6.434   3.491
 9316WAT     H228191   0.130   6.487   3.522
 9317WAT      O28192   7.313   5.397   1.098
 9317WAT     H128193   7.234   5.380   1.157
 9317WAT     H228194   7.331   5.315   1.044
 9318WAT      O28195   6.239   5.798   6.626
 9318WAT     H128196   6.220   5.787   6.528
 9318WAT     H228197   6.337   5.786   6.642
 9319WAT      O28198   3.490   1.924   4.955
 9319WAT     H128199   3.550   1.861   4.905
 9319WAT     H228200   3.414   1.951   4.897
 9320WAT      O28201   7.653   9.401   2.468
 9320WAT     H128202   7.591   9.334   2.509
 9320WAT     H228203   7.712   9.440   2.538
 9321WAT      O28204   1.893   3.948   4.511
 9321WAT     H128205   1.868   3.917   4.419
 9321WAT     H228206   1.959   3.885   4.550
 9322WAT      O28207   3.197   8.388   7.570
 9322WAT     H128208   3.174   8.316   7.636
 9322WAT     H228209   3.113   8.434   7.542
 9323WAT      O28210   8.811   4.057   0.923
 9323WAT     H128211   8.838   4.119   0.996
 9323WAT     H228212   8.882   3.989   0.908
 9324WAT      O28213   6.430   5.117   9.081
 9324WAT     H128214   6.456   5.179   9.155
 9324WAT     H228215   6.340   5.142   9.046
 9325WAT      O28216   7.548   6.182   1.951
 9325WAT     H128217   7.453   6.209   1.935
 9325WAT     H228218   7.557   6.147   2.044
 9326WAT      O28219   0.297   0.035   8.599
 9326WAT     H128220   0.200   0.032   8.621
 9326WAT     H228221   0.308   0.055   8.501
 9327WAT      O28222   1.247   8.635   5.371
 9327WAT     H128223   1.191   8.554   5.353
 9327WAT     H228224   1.328   8.608   5.423
 9328WAT      O28225   2.237   9.287   5.747
 9328WAT     H128226   2.212   9.232   5.827
 9328WAT     H228227   2.167   9.276   5.676
 9329WAT      O28228   0.151   8.591   5.588
 9329WAT     H128229   0.222   8.658   5.611
 9329WAT     H228230   0.080   8.634   5.533
 9330WAT      O28231   6.578   3.555   0.615
 9330WAT     H128232   6.521   3.474   0.606
 9330WAT     H228233   6.670   3.536   0.581
 9331WAT      O28234   2.685   9.160   3.126
 9331WAT     H128235   2.755   9.174   3.055
 9331WAT     H228236   2.705   9.076   3.176
 9332WAT      O28237   3.300   6.259   4.510
 9332WAT     H128238   3.382   6.315   4.501
 9332WAT     H228239   3.261   6.273   4.601
 9333WAT      O28240   7.258   0.023   9.162
 9333WAT     H128241   7.236   0.107   9.212
 9333WAT     H228242   7.243   0.037   9.064
 9334WAT      O28243   6.433   3.683   2.687
 9334WAT     H128244   6.356   3.619   2.689
 9334WAT     H228245   6.502   3.654   2.755
 9335WAT      O28246   5.785   3.504   6.785
 9335WAT     H128247   5.856   3.572   6.768
 9335WAT     H228248   5.815   3.415   6.749
 9336WAT      O28249   2.621   1.054   6.681
 9336WAT     H128250   2.537   1.098   6.649
 9336WAT     H228251   2.639   1.081   6.775
 9337WAT      O28252   1.632   1.676   4.829
 9337WAT     H128253   1.727   1.663   4.859
 9337WAT     H228254   1.576   1.698   4.909
 9338WAT      O28255   4.551   7.469   5.390
 9338WAT     H128256   4.498   7.544   5.430
 9338WAT     H228257   4.620   7.506   5.329
 9339WAT      O28258   4.493   6.313   3.322
 9339WAT     H128259   4.416   6.250   3.318
 9339WAT     H228260   4.458   6.407   3.329
 9340WAT      O28261   2.323   9.298   1.258
 9340WAT     H128262   2.406   9.251   1.225
 9340WAT     H228263   2.274   9.238   1.321
 9341WAT      O28264   5.967   8.369   3.265
 9341WAT     H128265   5.967   8.303   3.190
 9341WAT     H228266   5.876   8.371   3.307
 9342WAT      O28267   4.270   3.422   9.177
 9342WAT     H128268   4.260   3.400   9.274
 9342WAT     H228269   4.182   3.456   9.142
 9343WAT      O28270   3.018   2.408   6.820
 9343WAT     H128271   3.022   2.383   6.723
 9343WAT     H228272   3.024   2.325   6.876
 9344WAT      O28273   5.823   8.525   6.179
 9344WAT     H128274   5.871   8.455   6.231
 9344WAT     H228275   5.839   8.614   6.221
 9345WAT      O28276   3.407   2.804   4.124
 9345WAT     H128277   3.450   2.870   4.064
 9345WAT     H228278   3.414   2.712   4.084
 9346WAT      O28279   1.780   9.786   8.470
 9346WAT     H128280   1.833   9.703   8.485
 9346WAT     H228281   1.794   9.818   8.376
 9347WAT      O28282   4.184   8.442   2.373
 9347WAT     H128283   4.106   8.385   2.398
 9347WAT     H228284   4.163   8.492   2.289
 9348WAT      O28285   2.748   3.226   7.165
 9348WAT     H128286   2.791   3.225   7.075
 9348WAT     H228287   2.671   3.290   7.164
 9349WAT      O28288   8.471   5.235   6.933
 9349WAT     H128289   8.428   5.215   6.845
 9349WAT     H228290   8.464   5.333   6.951
 9350WAT      O28291   4.550   9.214   3.276
 9350WAT     H128292   4.563   9.280   3.202
 9350WAT     H228293   4.558   9.260   3.364
 9351WAT      O28294   8.602   5.558   8.958
 9351WAT     H128295   8.568   5.522   8.872
 9351WAT     H228296   8.701   5.542   8.965
 9352WAT      O28297   2.033   9.757   6.946
 9352WAT     H128298   2.020   9.684   7.013
 9352WAT     H228299   2.011   9.845   6.988
 9353WAT      O28300   1.088   3.049   7.235
 9353WAT     H128301   1.086   3.142   7.199
 9353WAT     H228302   0.999   3.027   7.275
 9354WAT      O28303   7.049   0.354   3.925
 9354WAT     H128304   7.097   0.409   3.857
 9354WAT     H228305   6.969   0.403   3.958
 9355WAT      O28306   4.466   3.961   5.687
 9355WAT     H128307   4.534   4.025   5.651
 9355WAT     H228308   4.386   4.012   5.720
 9356WAT      O28309   1.348   4.595   3.854
 9356WAT     H128310   1.289   4.669   3.887
 9356WAT     H228311   1.433   4.594   3.908
 9357WAT      O28312   2.872   0.206   2.385
 9357WAT     H128313   2.777   0.205   2.354
 9357WAT     H228314   2.920   0.283   2.343
 9358WAT      O28315   8.707   6.129   4.398
 9358WAT     H128316   8.709   6.200   4.328
 9358WAT     H228317   8.790   6.134   4.453
 9359WAT      O28318   4.427   4.865   9.527
 9359WAT     H128319   4.509   4.832   9.573
 9359WAT     H228320   4.357   4.887   9.595
 9360WAT      O28321   4.665   8.687   1.327
 9360WAT     H128322   4.719   8.604   1.313
 9360WAT     H228323   4.588   8.688   1.263
 9361WAT      O28324   7.715   7.854   2.380
 9361WAT     H128325   7.721   7.954   2.390
 9361WAT     H228326   7.628   7.830   2.339
 9362WAT      O28327   5.397   4.656   6.160
 9362WAT     H128328   5.473   4.591   6.156
 9362WAT     H228329   5.380   4.682   6.255
 9363WAT      O28330   7.275   8.225   3.300
 9363WAT     H128331   7.372   8.242   3.280
 9363WAT     H228332   7.253   8.130   3.278
 9364WAT      O28333   1.312   0.739   0.758
 9364WAT     H128334   1.254   0.684   0.817
 9364WAT     H228335   1.391   0.774   0.810
 9365WAT      O28336   7.512   8.446   0.178
 9365WAT     H128337   7.588   8.427   0.239
 9365WAT     H228338   7.525   8.536   0.135
 9366WAT      O28339   0.575   3.745   2.773
 9366WAT     H128340   0.669   3.713   2.783
 9366WAT     H228341   0.547   3.795   2.854
 9367WAT      O28342   4.644   5.327   7.707
 9367WAT     H128343   4.634   5.406   7.768
 9367WAT     H228344   4.560   5.314   7.655
 9368WAT      O28345   3.185   1.158   1.224
 9368WAT     H128346   3.198   1.226   1.152
 9368WAT     H228347   3.171   1.204   1.312
 9369WAT      O28348   9.716   9.654   8.975
 9369WAT     H128349   9.801   9.616   9.012
 9369WAT     H228350   9.729   9.750   8.950
 9370WAT      O28351   3.859   8.065   8.101
 9370WAT     H128352   3.900   8.096   8.015
 9370WAT     H228353   3.914   8.097   8.177
 9371WAT      O28354   4.024   5.661   5.420
 9371WAT     H128355   4.069   5.687   5.334
 9371WAT     H228356   4.085   5.683   5.496
 9372WAT      O28357   9.299   8.943   1.636
 9372WAT     H128358   9.314   8.910   1.543
 9372WAT     H228359   9.359   9.021   1.654
 9373WAT      O28360   2.082   3.523   0.201
 9373WAT     H128361   2.110   3.427   0.211
 9373WAT     H228362   2.020   3.531   0.123
 9374WAT      O28363   7.133   5.595   9.240
 9374WAT     H128364   7.063   5.667   9.237
 9374WAT     H228365   7.114   5.527   9.169
 9375WAT      O28366   1.763   9.821   5.114
 9375WAT     H128367   1.762   9.918   5.093
 9375WAT     H228368   1.856   9.793   5.137
 9376WAT      O28369   5.291   4.255   7.297
 9376WAT     H128370   5.305   4.220   7.204
 9376WAT     H228371   5.380   4.267   7.342
 9377WAT      O28372   7.953   6.489   9.007
 9377WAT     H128373   7.919   6.396   9.025
 9377WAT     H228374   7.963   6.502   8.908
 9378WAT      O28375   3.614   5.887   9.738
 9378WAT     H128376   3.702   5.839   9.740
 9378WAT     H228377   3.629   5.982   9.709
 9379WAT      O28378   5.088   2.708   0.705
 9379WAT     H128379   5.096   2.750   0.614
 9379WAT     H228380   5.004   2.654   0.709
 9380WAT      O28381   9.217   1.294   8.951
 9380WAT     H128382   9.139   1.260   9.004
 9380WAT     H228383   9.281   1.218   8.933
 9381WAT      O28384   3.889   0.112   0.185
 9381WAT     H128385   3.988   0.118   0.173
 9381WAT     H228386   3.865   0.021   0.220
 9382WAT      O28387   2.257   4.419   1.587
 9382WAT     H128388   2.212   4.468   1.662
 9382WAT     H228389   2.337   4.371   1.623
 9383WAT      O28390   3.419   3.046   5.643
 9383WAT     H128391   3.335   2.992   5.646
 9383WAT     H228392   3.440   3.071   5.549
 9384WAT      O28393   2.218   3.511   8.336
 9384WAT     H128394   2.166   3.475   8.258
 9384WAT     H228395   2.155   3.548   8.404
 9385WAT      O28396   8.577   0.191   5.385
 9385WAT     H128397   8.480   0.174   5.398
 9385WAT     H228398   8.618   0.222   5.471
 9386WAT      O28399   2.854   4.616   8.402
 9386WAT     H128400   2.877   4.697   8.456
 9386WAT     H228401   2.938   4.572   8.370
 9387WAT      O28402   9.021   9.497   0.415
 9387WAT     H128403   9.038   9.594   0.435
 9387WAT     H228404   9.108   9.450   0.398
 9388WAT      O28405   5.849   6.715   5.047
 9388WAT     H128406   5.844   6.775   4.967
 9388WAT     H228407   5.778   6.645   5.041
 9389WAT      O28408   2.167   4.704   5.203
 9389WAT     H128409   2.147   4.616   5.161
 9389WAT     H228410   2.235   4.752   5.148
 9390WAT      O28411   8.038   9.109   1.455
 9390WAT     H128412   8.103   9.133   1.382
 9390WAT     H228413   7.996   9.192   1.491
 9391WAT      O28414   2.088   3.730   1.335
 9391WAT     H128415   2.092   3.690   1.427
 9391WAT     H228416   1.998   3.715   1.296
 9392WAT      O28417   5.978   9.014   0.522
 9392WAT     H128418   5.952   8.958   0.600
 9392WAT     H228419   6.072   8.993   0.494
 9393WAT      O28420   6.127   8.804   1.716
 9393WAT     H128421   6.114   8.801   1.815
 9393WAT     H228422   6.177   8.887   1.691
 9394WAT      O28423   2.353   3.690   4.827
 9394WAT     H128424   2.382   3.637   4.747
 9394WAT     H228425   2.376   3.786   4.813
 9395WAT      O28426   9.420   7.732   0.276
 9395WAT     H128427   9.349   7.700   0.339
 9395WAT     H228428   9.377   7.759   0.189
 9396WAT      O28429   5.329   0.930   7.557
 9396WAT     H128430   5.307   1.022   7.525
 9396WAT     H228431   5.296   0.919   7.651
 9397WAT      O28432   3.958   4.141   4.784
 9397WAT     H128433   4.000   4.142   4.693
 9397WAT     H228434   4.027   4.167   4.852
 9398WAT      O28435   8.949   5.647   8.121
 9398WAT     H128436   8.855   5.649   8.088
 9398WAT     H228437   8.954   5.690   8.211
 9399WAT      O28438   0.749   6.065   0.720
 9399WAT     H128439   0.726   6.003   0.645
 9399WAT     H228440   0.823   6.026   0.774
 9400WAT      O28441   4.717   1.815   4.840
 9400WAT     H128442   4.641   1.750   4.847
 9400WAT     H228443   4.804   1.766   4.844
 9401WAT      O28444   0.615   4.384   9.635
 9401WAT     H128445   0.699   4.336   9.662
 9401WAT     H228446   0.549   4.379   9.709
 9402WAT      O28447   8.734   2.097   3.181
 9402WAT     H128448   8.727   2.014   3.236
 9402WAT     H228449   8.642   2.133   3.162
 9403WAT      O28450   1.782   3.463   5.303
 9403WAT     H128451   1.829   3.387   5.258
 9403WAT     H228452   1.835   3.547   5.290
 9404WAT      O28453   1.977   5.108   2.910
 9404WAT     H128454   2.034   5.165   2.969
 9404WAT     H228455   1.900   5.161   2.877
 9405WAT      O28456   9.560   4.885   8.872
 9405WAT     H128457   9.488   4.918   8.812
 9405WAT     H228458   9.608   4.808   8.828
 9406WAT      O28459   0.612   2.972   4.243
 9406WAT     H128460   0.580   3.061   4.275
 9406WAT     H228461   0.534   2.911   4.230
 9407WAT      O28462   6.649   6.508   6.750
 9407WAT     H128463   6.573   6.496   6.686
 9407WAT     H228464   6.730   6.463   6.713
 9408WAT      O28465   3.361   1.697   5.914
 9408WAT     H128466   3.352   1.628   5.842
 9408WAT     H228467   3.446   1.683   5.964
 9409WAT      O28468   4.497   7.428   3.838
 9409WAT     H128469   4.562   7.502   3.817
 9409WAT     H228470   4.476   7.378   3.754
 9410WAT      O28471   5.120   3.534   4.098
 9410WAT     H128472   5.192   3.568   4.158
 9410WAT     H228473   5.105   3.436   4.115
 9411WAT      O28474   8.102   5.895   2.125
 9411WAT     H128475   8.030   5.964   2.132
 9411WAT     H228476   8.130   5.867   2.217
 9412WAT      O28477   1.882   6.404   9.855
 9412WAT     H128478   1.874   6.381   9.952
 9412WAT     H228479   1.926   6.329   9.806
 9413WAT      O28480   9.121   8.547   2.533
 9413WAT     H128481   9.215   8.549   2.501
 9413WAT     H228482   9.112   8.603   2.616
 9414WAT      O28483   2.124   6.241   2.470
 9414WAT     H128484   2.173   6.327   2.482
 9414WAT     H228485   2.123   6.190   2.556
 9415WAT      O28486   3.093   5.643   8.805
 9415WAT     H128487   2.996   5.666   8.802
 9415WAT     H228488   3.146   5.726   8.823
 9416WAT      O28489   1.441   8.940   5.956
 9416WAT     H128490   1.350   8.931   5.916
 9416WAT     H228491   1.446   9.028   6.005
 9417WAT      O28492   6.380   3.576   6.385
 9417WAT     H128493   6.284   3.565   6.359
 9417WAT     H228494   6.432   3.498   6.350
 9418WAT      O28495   8.724   4.663   1.759
 9418WAT     H128496   8.757   4.628   1.671
 9418WAT     H228497   8.786   4.635   1.832
 9419WAT      O28498   7.897   1.267   7.832
 9419WAT     H128499   7.911   1.314   7.919
 9419WAT     H228500   7.931   1.325   7.757
 9420WAT      O28501   5.567   8.019   1.308
 9420WAT     H128502   5.576   8.041   1.406
 9420WAT     H228503   5.522   8.094   1.261
 9421WAT      O28504   9.640   4.708   9.398
 9421WAT     H128505   9.637   4.622   9.450
 9421WAT     H228506   9.689   4.693   9.313
 9422WAT      O28507   5.312   1.141   1.737
 9422WAT     H128508   5.347   1.175   1.824
 9422WAT     H228509   5.383   1.086   1.691
 9423WAT      O28510   5.851   6.138   2.855
 9423WAT     H128511   5.876   6.127   2.759
 9423WAT     H228512   5.924   6.102   2.913
 9424WAT      O28513   6.798   2.842   5.487
 9424WAT     H128514   6.882   2.867   5.534
 9424WAT     H228515   6.808   2.856   5.389
 9425WAT      O28516   5.758   4.490   1.031
 9425WAT     H128517   5.742   4.576   1.080
 9425WAT     H228518   5.824   4.506   0.958
 9426WAT      O28519   4.815   4.242   2.964
 9426WAT     H128520   4.795   4.220   3.060
 9426WAT     H228521   4.890   4.184   2.932
 9427WAT      O28522   0.854   2.122   6.720
 9427WAT     H128523   0.860   2.175   6.804
 9427WAT     H228524   0.937   2.066   6.710
 9428WAT      O28525   5.437   6.489   2.673
 9428WAT     H128526   5.351   6.464   2.717
 9428WAT     H228527   5.512   6.473   2.738
 9429WAT      O28528   7.349   9.216   1.961
 9429WAT     H128529   7.407   9.297   1.951
 9429WAT     H228530   7.346   9.166   1.874
 9430WAT      O28531   6.575   4.392   5.367
 9430WAT     H128532   6.653   4.375   5.306
 9430WAT     H228533   6.607   4.438   5.450
 9431WAT      O28534   3.868   8.057   3.731
 9431WAT     H128535   3.830   8.102   3.811
 9431WAT     H228536   3.845   7.960   3.732
 9432WAT      O28537   8.760   3.958   5.337
 9432WAT     H128538   8.833   3.920   5.280
 9432WAT     H228539   8.773   4.057   5.347
 9433WAT      O28540   5.442   8.839   7.699
 9433WAT     H128541   5.458   8.749   7.658
 9433WAT     H228542   5.457   8.910   7.629
 9434WAT      O28543   3.813   3.311   4.007
 9434WAT     H128544   3.890   3.312   4.071
 9434WAT     H228545   3.777   3.218   3.999
 9435WAT      O28546   0.795   4.927   5.610
 9435WAT     H128547   0.802   4.947   5.707
 9435WAT     H228548   0.881   4.889   5.577
 9436WAT      O28549   3.153   9.682   7.656
 9436WAT     H128550   3.069   9.647   7.616
 9436WAT     H228551   3.172   9.774   7.620
 9437WAT      O28552   1.156   1.508   9.212
 9437WAT     H128553   1.212   1.514   9.129
 9437WAT     H228554   1.120   1.598   9.235
 9438WAT      O28555   1.173   6.774   6.579
 9438WAT     H128556   1.257   6.828   6.580
 9438WAT     H228557   1.151   6.748   6.485
 9439WAT      O28558   0.615   6.364   4.050
 9439WAT     H128559   0.543   6.322   3.994
 9439WAT     H228560   0.664   6.432   3.995
 9440WAT      O28561   6.523   8.176   9.197
 9440WAT     H128562   6.614   8.169   9.239
 9440WAT     H228563   6.491   8.271   9.204
 9441WAT      O28564   7.056   2.521   1.370
 9441WAT     H128565   7.117   2.582   1.318
 9441WAT     H228566   7.086   2.426   1.358
 9442WAT      O28567   7.331   9.540   5.160
 9442WAT     H128568   7.362   9.445   5.163
 9442WAT     H228569   7.231   9.542   5.158
 9443WAT      O28570   5.747   1.602   9.696
 9443WAT     H128571   5.753   1.650   9.608
 9443WAT     H228572   5.770   1.666   9.770
 9444WAT      O28573   3.263   8.938   6.168
 9444WAT     H128574   3.209   8.959   6.088
 9444WAT     H228575   3.307   9.021   6.202
 9445WAT      O28576   6.798   1.310   4.173
 9445WAT     H128577   6.819   1.240   4.241
 9445WAT     H228578   6.882   1.340   4.129
 9446WAT      O28579   9.620   7.378   4.781
 9446WAT     H128580   9.699   7.345   4.730
 9446WAT     H228581   9.600   7.314   4.856
 9447WAT      O28582   7.048   4.882   4.223
 9447WAT     H128583   7.114   4.823   4.176
 9447WAT     H228584   7.069   4.885   4.321
 9448WAT      O28585   9.700   3.770   0.972
 9448WAT     H128586   9.626   3.817   1.020
 9448WAT     H228587   9.685   3.777   0.873
 9449WAT      O28588   1.431   7.654   3.043
 9449WAT     H128589   1.397   7.735   2.995
 9449WAT     H228590   1.514   7.677   3.094
 9450WAT      O28591   3.926   4.499   6.019
 9450WAT     H128592   3.865   4.435   5.972
 9450WAT     H228593   4.000   4.525   5.957
 9451WAT      O28594   2.101   3.476   7.639
 9451WAT     H128595   2.014   3.496   7.683
 9451WAT     H228596   2.158   3.558   7.637
 9452WAT      O28597   4.591   6.989   7.135
 9452WAT     H128598   4.596   6.996   7.035
 9452WAT     H228599   4.651   6.915   7.166
 9453WAT      O28600   8.658   2.220   8.946
 9453WAT     H128601   8.602   2.160   8.888
 9453WAT     H228602   8.725   2.268   8.889
 9454WAT      O28603   8.600   4.355   0.812
 9454WAT     H128604   8.570   4.303   0.732
 9454WAT     H228605   8.549   4.324   0.893
 9455WAT      O28606   9.406   6.564   9.140
 9455WAT     H128607   9.321   6.519   9.112
 9455WAT     H228608   9.484   6.516   9.100
 9456WAT      O28609   9.535   5.876   3.661
 9456WAT     H128610   9.602   5.902   3.730
 9456WAT     H228611   9.454   5.935   3.670
 9457WAT      O28612   9.271   9.108   2.712
 9457WAT     H128613   9.314   9.034   2.660
 9457WAT     H228614   9.224   9.070   2.792
 9458WAT      O28615   7.559   7.847   7.333
 9458WAT     H128616   7.553   7.937   7.290
 9458WAT     H228617   7.644   7.802   7.305
 9459WAT      O28618   6.207   0.038   1.680
 9459WAT     H128619   6.183   0.132   1.655
 9459WAT     H228620   6.293   0.039   1.731
 9460WAT      O28621   4.599   4.246   2.802
 9460WAT     H128622   4.585   4.345   2.796
 9460WAT     H228623   4.671   4.227   2.869
 9461WAT      O28624   0.471   1.086   5.769
 9461WAT     H128625   0.569   1.068   5.761
 9461WAT     H228626   0.436   1.039   5.850
 9462WAT      O28627   4.444   9.442   8.188
 9462WAT     H128628   4.509   9.371   8.215
 9462WAT     H228629   4.484   9.532   8.206
 9463WAT      O28630   7.124   7.199   7.626
 9463WAT     H128631   7.118   7.299   7.627
 9463WAT     H228632   7.032   7.160   7.631
 9464WAT      O28633   1.415   5.000   0.226
 9464WAT     H128634   1.422   4.974   0.323
 9464WAT     H228635   1.421   5.100   0.218
 9465WAT      O28636   8.195   1.005   7.154
 9465WAT     H128637   8.235   1.096   7.155
 9465WAT     H228638   8.206   0.965   7.063
 9466WAT      O28639   8.364   0.907   6.641
 9466WAT     H128640   8.389   0.819   6.681
 9466WAT     H228641   8.426   0.977   6.674
 9467WAT      O28642   6.747   2.902   3.853
 9467WAT     H128643   6.806   2.905   3.934
 9467WAT     H228644   6.802   2.908   3.770
 9468WAT      O28645   3.316   8.378   5.636
 9468WAT     H128646   3.280   8.356   5.545
 9468WAT     H228647   3.241   8.401   5.697
 9469WAT      O28648   7.362   1.814   6.190
 9469WAT     H128649   7.344   1.912   6.193
 9469WAT     H228650   7.288   1.765   6.237
 9470WAT      O28651   3.981   4.098   8.180
 9470WAT     H128652   3.947   4.007   8.155
 9470WAT     H228653   3.955   4.118   8.274
 9471WAT      O28654   8.019   1.438   0.614
 9471WAT     H128655   8.102   1.492   0.627
 9471WAT     H228656   8.033   1.373   0.540
 9472WAT      O28657   0.969   2.367   1.715
 9472WAT     H128658   0.884   2.368   1.662
 9472WAT     H228659   1.004   2.274   1.718
 9473WAT      O28660   0.277   7.843   7.130
 9473WAT     H128661   0.261   7.928   7.081
 9473WAT     H228662   0.253   7.855   7.227
 9474WAT      O28663   8.527   3.074   9.283
 9474WAT     H128664   8.610   3.028   9.317
 9474WAT     H228665   8.450   3.050   9.342
 9475WAT      O28666   1.669   8.136   8.606
 9475WAT     H128667   1.573   8.136   8.579
 9475WAT     H228668   1.722   8.190   8.542
 9476WAT      O28669   6.884   9.647   2.152
 9476WAT     H128670   6.950   9.669   2.224
 9476WAT     H228671   6.806   9.600   2.192
 9477WAT      O28672   8.994   4.905   4.776
 9477WAT     H128673   9.041   4.881   4.692
 9477WAT     H228674   9.021   4.842   4.849
 9478WAT      O28675   5.277   9.523   4.766
 9478WAT     H128676   5.228   9.464   4.831
 9478WAT     H228677   5.309   9.468   4.689
 9479WAT      O28678   4.875   7.420   7.975
 9479WAT     H128679   4.823   7.475   7.909
 9479WAT     H228680   4.819   7.342   8.003
 9480WAT      O28681   0.101   9.164   0.779
 9480WAT     H128682   0.110   9.164   0.679
 9480WAT     H228683   0.084   9.071   0.810
 9481WAT      O28684   2.106   6.795   5.552
 9481WAT     H128685   2.193   6.843   5.540
 9481WAT     H228686   2.107   6.709   5.502
 9482WAT      O28687   3.348   3.089   2.675
 9482WAT     H128688   3.309   3.181   2.666
 9482WAT     H228689   3.278   3.025   2.706
 9483WAT      O28690   1.521   0.438   0.527
 9483WAT     H128691   1.564   0.350   0.509
 9483WAT     H228692   1.580   0.494   0.585
 9484WAT      O28693   0.575   6.102   2.672
 9484WAT     H128694   0.585   6.052   2.758
 9484WAT     H228695   0.639   6.178   2.670
 9485WAT      O28696   1.953   8.273   9.665
 9485WAT     H128697   2.017   8.272   9.587
 9485WAT     H228698   2.004   8.289   9.749
 9486WAT      O28699   2.887   1.608   1.081
 9486WAT     H128700   2.896   1.707   1.087
 9486WAT     H228701   2.973   1.569   1.046
 9487WAT      O28702   4.022   0.924   5.923
 9487WAT     H128703   4.110   0.939   5.878
 9487WAT     H228704   3.958   0.997   5.897
 9488WAT      O28705   1.245   3.446   5.780
 9488WAT     H128706   1.286   3.406   5.698
 9488WAT     H228707   1.153   3.411   5.793
 9489WAT      O28708   0.579   6.966   2.328
 9489WAT     H128709   0.631   7.041   2.287
 9489WAT     H228710   0.640   6.891   2.350
 9490WAT      O28711   7.746   8.224   9.487
 9490WAT     H128712   7.726   8.150   9.423
 9490WAT     H228713   7.675   8.229   9.556
 9491WAT      O28714   2.140   2.770   8.133
 9491WAT     H128715   2.135   2.770   8.233
 9491WAT     H228716   2.157   2.677   8.101
 9492WAT      O28717   9.436   2.826   0.306
 9492WAT     H128718   9.472   2.891   0.373
 9492WAT     H228719   9.454   2.860   0.214
 9493WAT      O28720   2.185   2.680   4.167
 9493WAT     H128721   2.275   2.680   4.210
 9493WAT     H228722   2.141   2.591   4.183
 9494WAT      O28723   1.791   5.387   9.658
 9494WAT     H128724   1.700   5.419   9.631
 9494WAT     H228725   1.835   5.343   9.579
 9495WAT      O28726   6.621   0.217   4.239
 9495WAT     H128727   6.603   0.149   4.309
 9495WAT     H228728   6.543   0.280   4.232
 9496WAT      O28729   6.816   6.978   1.209
 9496WAT     H128730   6.796   6.882   1.189
 9496WAT     H228731   6.908   6.985   1.248
 9497WAT      O28732   5.861   8.392   2.809
 9497WAT     H128733   5.944   8.444   2.824
 9497WAT     H228734   5.783   8.454   2.801
 9498WAT      O28735   7.639   2.713   1.256
 9498WAT     H128736   7.727   2.756   1.273
 9498WAT     H228737   7.571   2.750   1.319
 9499WAT      O28738   5.337   8.871   5.913
 9499WAT     H128739   5.401   8.803   5.950
 9499WAT     H228740   5.389   8.946   5.872
 9500WAT      O28741   2.414   7.350   2.053
 9500WAT     H128742   2.323   7.374   2.087
 9500WAT     H228743   2.473   7.430   2.055
 9501WAT      O28744   7.428   7.844   8.335
 9501WAT     H128745   7.516   7.803   8.361
 9501WAT     H228746   7.354   7.782   8.357
 9502WAT      O28747   0.674   6.463   5.878
 9502WAT     H128748   0.714   6.409   5.952
 9502WAT     H228749   0.687   6.560   5.897
 9503WAT      O28750   9.622   8.910   2.315
 9503WAT     H128751   9.604   8.862   2.229
 9503WAT     H228752   9.705   8.965   2.306
 9504WAT      O28753   1.522   9.344   1.937
 9504WAT     H128754   1.433   9.389   1.948
 9504WAT     H228755   1.590   9.410   1.905
 9505WAT      O28756   4.239   8.724   1.951
 9505WAT     H128757   4.184   8.647   1.919
 9505WAT     H228758   4.263   8.710   2.047
 9506WAT      O28759   9.120   4.086   1.628
 9506WAT     H128760   9.183   4.164   1.631
 9506WAT     H228761   9.116   4.050   1.536
 9507WAT      O28762   5.632   2.574   2.719
 9507WAT     H128763   5.553   2.555   2.776
 9507WAT     H228764   5.715   2.572   2.775
 9508WAT      O28765   8.288   1.332   7.672
 9508WAT     H128766   8.310   1.409   7.732
 9508WAT     H228767   8.372   1.288   7.641
 9509WAT      O28768   9.373   7.768   8.693
 9509WAT     H128769   9.392   7.730   8.783
 9509WAT     H228770   9.402   7.702   8.623
 9510WAT      O28771   9.583   0.540   0.949
 9510WAT     H128772   9.649   0.574   0.883
 9510WAT     H228773   9.537   0.617   0.994
 9511WAT      O28774   6.645   7.031   2.450
 9511WAT     H128775   6.711   7.054   2.521
 9511WAT     H228776   6.682   7.055   2.361
 9512WAT      O28777   8.919   0.087   5.358
 9512WAT     H128778   8.933   0.032   5.440
 9512WAT     H228779   8.921   0.184   5.382
 9513WAT      O28780   3.858   0.601   1.876
 9513WAT     H128781   3.927   0.529   1.886
 9513WAT     H228782   3.768   0.558   1.866
 9514WAT      O28783   7.897   7.142   6.817
 9514WAT     H128784   7.966   7.202   6.776
 9514WAT     H228785   7.807   7.168   6.783
 9515WAT      O28786   6.938   1.490   3.166
 9515WAT     H128787   6.966   1.531   3.253
 9515WAT     H228788   6.886   1.557   3.113
 9516WAT      O28789   3.879   8.183   5.219
 9516WAT     H128790   3.824   8.145   5.145
 9516WAT     H228791   3.884   8.116   5.294
 9517WAT      O28792   5.064   0.558   8.209
 9517WAT     H128793   5.049   0.521   8.118
 9517WAT     H228794   4.981   0.550   8.263
 9518WAT      O28795   7.961   1.822   9.734
 9518WAT     H128796   7.911   1.740   9.704
 9518WAT     H228797   7.974   1.883   9.655
 9519WAT      O28798   4.044   9.358   3.112
 9519WAT     H128799   3.973   9.357   3.042
 9519WAT     H228800   4.084   9.267   3.121
 9520WAT      O28801   6.453   9.829   4.930
 9520WAT     H128802   6.454   9.792   5.023
 9520WAT     H228803   6.488   9.923   4.931
 9521WAT      O28804   9.058   0.720   4.794
 9521WAT     H128805   9.156   0.729   4.775
 9521WAT     H228806   9.033   0.623   4.796
 9522WAT      O28807   3.085   1.458   7.601
 9522WAT     H128808   3.029   1.402   7.662
 9522WAT     H228809   3.140   1.399   7.543
 9523WAT      O28810   7.907   6.136   0.805
 9523WAT     H128811   7.900   6.232   0.834
 9523WAT     H228812   7.971   6.129   0.729
 9524WAT      O28813   3.241   6.866   1.540
 9524WAT     H128814   3.173   6.904   1.603
 9524WAT     H228815   3.230   6.767   1.535
 9525WAT      O28816   8.040   1.937   9.488
 9525WAT     H128817   8.111   2.008   9.496
 9525WAT     H228818   8.082   1.853   9.453
 9526WAT      O28819   6.837   8.603   8.783
 9526WAT     H128820   6.895   8.579   8.705
 9526WAT     H228821   6.889   8.591   8.868
 9527WAT      O28822   7.131   5.698   1.024
 9527WAT     H128823   7.074   5.780   1.031
 9527WAT     H228824   7.097   5.639   0.951
 9528WAT      O28825   4.531   9.637   3.682
 9528WAT     H128826   4.611   9.697   3.670
 9528WAT     H228827   4.451   9.681   3.641
 9529WAT      O28828   1.935   8.524   7.101
 9529WAT     H128829   1.838   8.515   7.126
 9529WAT     H228830   1.991   8.508   7.183
 9530WAT      O28831   1.630   5.810   9.753
 9530WAT     H128832   1.631   5.808   9.653
 9530WAT     H228833   1.699   5.748   9.789
 9531WAT      O28834   1.067   1.405   1.960
 9531WAT     H128835   1.096   1.312   1.980
 9531WAT     H228836   1.147   1.459   1.933
 9532WAT      O28837   8.404   9.335   9.354
 9532WAT     H128838   8.346   9.298   9.282
 9532WAT     H228839   8.409   9.435   9.345
 9533WAT      O28840   2.762   1.777   7.998
 9533WAT     H128841   2.716   1.838   7.933
 9533WAT     H228842   2.737   1.682   7.978
 9534WAT      O28843   4.253   4.878   9.752
 9534WAT     H128844   4.160   4.899   9.721
 9534WAT     H228845   4.259   4.781   9.775
 9535WAT      O28846   2.502   5.654   2.123
 9535WAT     H128847   2.459   5.744   2.122
 9535WAT     H228848   2.432   5.583   2.129
 9536WAT      O28849   2.464   0.417   5.509
 9536WAT     H128850   2.420   0.441   5.595
 9536WAT     H228851   2.525   0.339   5.522
 9537WAT      O28852   8.403   5.688   9.090
 9537WAT     H128853   8.427   5.780   9.122
 9537WAT     H228854   8.480   5.648   9.041
 9538WAT      O28855   2.490   2.969   5.865
 9538WAT     H128856   2.406   2.932   5.825
 9538WAT     H228857   2.508   2.925   5.952
 9539WAT      O28858   6.463   9.217   2.956
 9539WAT     H128859   6.520   9.176   2.885
 9539WAT     H228860   6.429   9.306   2.924
 9540WAT      O28861   5.575   9.729   9.090
 9540WAT     H128862   5.623   9.732   9.178
 9540WAT     H228863   5.532   9.818   9.073
 9541WAT      O28864   8.886   9.334   2.097
 9541WAT     H128865   8.855   9.395   2.025
 9541WAT     H228866   8.821   9.337   2.173
 9542WAT      O28867   0.785   1.438   1.531
 9542WAT     H128868   0.861   1.390   1.574
 9542WAT     H228869   0.698   1.399   1.563
 9543WAT      O28870   6.836   2.505   6.457
 9543WAT     H128871   6.931   2.531   6.468
 9543WAT     H228872   6.825   2.452   6.373
 9544WAT      O28873   1.765   3.934   9.428
 9544WAT     H128874   1.846   3.896   9.383
 9544WAT     H228875   1.780   3.937   9.527
 9545WAT      O28876   8.631   9.649   5.418
 9545WAT     H128877   8.631   9.741   5.457
 9545WAT     H228878   8.677   9.586   5.481
 9546WAT      O28879   8.703   1.103   2.531
 9546WAT     H128880   8.685   1.173   2.601
 9546WAT     H228881   8.623   1.044   2.522
 9547WAT      O28882   6.424   0.490   1.298
 9547WAT     H128883   6.454   0.577   1.336
 9547WAT     H228884   6.492   0.419   1.319
 9548WAT      O28885   6.716   3.200   5.198
 9548WAT     H128886   6.633   3.244   5.164
 9548WAT     H228887   6.793   3.227   5.141
 9549WAT      O28888   1.341   7.231   9.339
 9549WAT     H128889   1.243   7.227   9.356
 9549WAT     H228890   1.363   7.181   9.255
 9550WAT      O28891   6.404   2.810   7.079
 9550WAT     H128892   6.441   2.855   7.161
 9550WAT     H228893   6.306   2.830   7.071
 9551WAT      O28894   7.314   8.332   9.079
 9551WAT     H128895   7.365   8.254   9.040
 9551WAT     H228896   7.230   8.298   9.121
 9552WAT      O28897   6.755   2.570   5.587
 9552WAT     H128898   6.797   2.660   5.583
 9552WAT     H228899   6.683   2.563   5.518
 9553WAT      O28900   3.702   8.684   0.816
 9553WAT     H128901   3.766   8.760   0.800
 9553WAT     H228902   3.754   8.602   0.840
 9554WAT      O28903   2.839   8.446   3.354
 9554WAT     H128904   2.741   8.447   3.372
 9554WAT     H228905   2.856   8.425   3.258
 9555WAT      O28906   7.430   3.058   1.151
 9555WAT     H128907   7.416   3.136   1.089
 9555WAT     H228908   7.458   2.978   1.097
 9556WAT      O28909   2.031   0.855   7.698
 9556WAT     H128910   2.075   0.777   7.742
 9556WAT     H228911   2.098   0.907   7.646
 9557WAT      O28912   8.934   7.959   4.209
 9557WAT     H128913   8.964   7.962   4.114
 9557WAT     H228914   8.971   8.038   4.259
 9558WAT      O28915   0.316   2.782   7.364
 9558WAT     H128916   0.255   2.861   7.369
 9558WAT     H228917   0.405   2.811   7.329
 9559WAT      O28918   2.275   2.043   9.090
 9559WAT     H128919   2.261   2.100   9.171
 9559WAT     H228920   2.237   2.089   9.010
 9560WAT      O28921   9.861   6.912   0.549
 9560WAT     H128922   9.810   6.827   0.533
 9560WAT     H228923   9.929   6.923   0.477
 9561WAT      O28924   1.848   7.745   0.750
 9561WAT     H128925   1.770   7.689   0.778
 9561WAT     H228926   1.815   7.826   0.700
 9562WAT      O28927   3.282   4.050   0.951
 9562WAT     H128928   3.374   4.037   0.987
 9562WAT     H228929   3.277   4.137   0.901
 9563WAT      O28930   2.930   2.812   8.489
 9563WAT     H128931   2.904   2.905   8.513
 9563WAT     H228932   3.030   2.806   8.479
 9564WAT      O28933   7.941   3.519   8.040
 9564WAT     H128934   7.925   3.436   7.987
 9564WAT     H228935   7.956   3.494   8.136
 9565WAT      O28936   2.918   0.345   9.500
 9565WAT     H128937   2.899   0.338   9.402
 9565WAT     H228938   2.930   0.253   9.539
 9566WAT      O28939   7.415   9.189   4.536
 9566WAT     H128940   7.321   9.219   4.555
 9566WAT     H228941   7.478   9.266   4.548
 9567WAT      O28942   2.151   2.661   7.770
 9567WAT     H128943   2.121   2.604   7.846
 9567WAT     H228944   2.163   2.605   7.688
 9568WAT      O28945   0.109   0.747   3.143
 9568WAT     H128946   0.170   0.827   3.138
 9568WAT     H228947   0.163   0.664   3.126
 9569WAT      O28948   3.559   0.294   1.562
 9569WAT     H128949   3.607   0.361   1.505
 9569WAT     H228950   3.474   0.268   1.517
 9570WAT      O28951   6.678   1.854   9.601
 9570WAT     H128952   6.615   1.785   9.636
 9570WAT     H228953   6.701   1.833   9.506
 9571WAT      O28954   9.159   0.465   5.350
 9571WAT     H128955   9.179   0.536   5.417
 9571WAT     H228956   9.243   0.413   5.330
 9572WAT      O28957   4.414   8.742   0.542
 9572WAT     H128958   4.435   8.835   0.512
 9572WAT     H228959   4.487   8.681   0.511
 9573WAT      O28960   6.832   7.375   0.045
 9573WAT     H128961   6.873   7.456   0.086
 9573WAT     H228962   6.743   7.398   0.006
 9574WAT      O28963   0.288   3.671   4.863
 9574WAT     H128964   0.385   3.652   4.874
 9574WAT     H228965   0.261   3.745   4.926
 9575WAT      O28966   5.823   4.701   0.086
 9575WAT     H128967   5.904   4.729   0.137
 9575WAT     H228968   5.741   4.730   0.137
 9576WAT      O28969   6.800   3.932   9.790
 9576WAT     H128970   6.817   3.993   9.868
 9576WAT     H228971   6.887   3.906   9.748
 9577WAT      O28972   7.791   2.904   6.021
 9577WAT     H128973   7.699   2.936   6.039
 9577WAT     H228974   7.850   2.924   6.100
 9578WAT      O28975   1.412   2.673   9.490
 9578WAT     H128976   1.346   2.748   9.499
 9578WAT     H228977   1.365   2.592   9.456
 9579WAT      O28978   5.199   8.822   4.146
 9579WAT     H128979   5.125   8.783   4.091
 9579WAT     H228980   5.214   8.917   4.118
 9580WAT      O28981   0.172   1.593   5.878
 9580WAT     H128982   0.163   1.494   5.887
 9580WAT     H228983   0.241   1.626   5.942
 9581WAT      O28984   5.460   7.089   9.071
 9581WAT     H128985   5.406   7.026   9.016
 9581WAT     H228986   5.558   7.072   9.056
 9582WAT      O28987   5.685   9.637   8.552
 9582WAT     H128988   5.631   9.720   8.570
 9582WAT     H228989   5.714   9.597   8.639
 9583WAT      O28990   3.084   5.864   1.111
 9583WAT     H128991   3.008   5.837   1.051
 9583WAT     H228992   3.049   5.881   1.203
 9584WAT      O28993   1.793   1.405   1.396
 9584WAT     H128994   1.742   1.319   1.387
 9584WAT     H228995   1.748   1.464   1.463
 9585WAT      O28996   6.471   4.577   6.718
 9585WAT     H128997   6.556   4.576   6.664
 9585WAT     H228998   6.393   4.589   6.657
 9586WAT      O28999   5.544   5.397   8.915
 9586WAT     H129000   5.468   5.459   8.938
 9586WAT     H229001   5.629   5.435   8.950
 9587WAT      O29002   5.342   5.469   3.588
 9587WAT     H129003   5.359   5.417   3.504
 9587WAT     H229004   5.334   5.406   3.665
 9588WAT      O29005   8.328   4.512   3.606
 9588WAT     H129006   8.234   4.527   3.576
 9588WAT     H229007   8.327   4.468   3.696
 9589WAT      O29008   4.199   3.701   8.173
 9589WAT     H129009   4.173   3.694   8.269
 9589WAT     H229010   4.256   3.782   8.160
 9590WAT      O29011   9.221   8.558   9.298
 9590WAT     H129012   9.179   8.536   9.385
 9590WAT     H229013   9.258   8.474   9.256
 9591WAT      O29014   2.593   7.006   9.807
 9591WAT     H129015   2.582   7.043   9.715
 9591WAT     H229016   2.632   6.914   9.802
 9592WAT      O29017   0.889   2.419   9.265
 9592WAT     H129018   0.933   2.492   9.213
 9592WAT     H229019   0.885   2.336   9.209
 9593WAT      O29020   8.287   9.268   3.725
 9593WAT     H129021   8.310   9.357   3.684
 9593WAT     H229022   8.194   9.242   3.698
 9594WAT      O29023   1.519   3.790   4.668
 9594WAT     H129024   1.552   3.699   4.642
 9594WAT     H229025   1.485   3.838   4.587
 9595WAT      O29026   5.405   4.149   7.050
 9595WAT     H129027   5.388   4.051   7.042
 9595WAT     H229028   5.348   4.198   6.983
 9596WAT      O29029   5.357   4.736   3.490
 9596WAT     H129030   5.424   4.701   3.425
 9596WAT     H229031   5.334   4.665   3.556
 9597WAT      O29032   4.844   4.524   8.800
 9597WAT     H129033   4.829   4.622   8.784
 9597WAT     H229034   4.759   4.474   8.782
 9598WAT      O29035   1.823   1.011   4.361
 9598WAT     H129036   1.801   0.918   4.331
 9598WAT     H229037   1.793   1.024   4.455
 9599WAT      O29038   3.237   7.359   2.242
 9599WAT     H129039   3.308   7.429   2.252
 9599WAT     H229040   3.149   7.398   2.266
 9600WAT      O29041   6.862   5.152   1.385
 9600WAT     H129042   6.880   5.070   1.440
 9600WAT     H229043   6.769   5.185   1.403
 9601WAT      O29044   9.237   3.578   0.265
 9601WAT     H129045   9.186   3.560   0.181
 9601WAT     H229046   9.279   3.493   0.298
 9602WAT      O29047   5.374   4.304   3.545
 9602WAT     H129048   5.302   4.348   3.492
 9602WAT     H229049   5.460   4.308   3.495
 9603WAT      O29050   0.907   1.669   1.554
 9603WAT     H129051   0.960   1.686   1.471
 9603WAT     H229052   0.831   1.608   1.534
 9604WAT      O29053   9.617   7.993   3.648
 9604WAT     H129054   9.591   7.905   3.607
 9604WAT     H229055   9.716   7.995   3.662
 9605WAT      O29056   5.875   0.583   6.044
 9605WAT     H129057   5.814   0.643   6.097
 9605WAT     H229058   5.854   0.488   6.066
 9606WAT      O29059   7.042   9.292   9.279
 9606WAT     H129060   7.074   9.243   9.198
 9606WAT     H229061   6.952   9.331   9.261
 9607WAT      O29062   0.265   4.323   2.819
 9607WAT     H129063   0.226   4.242   2.776
 9607WAT     H229064   0.222   4.405   2.782
 9608WAT      O29065   5.007   7.432   4.642
 9608WAT     H129066   4.988   7.484   4.724
 9608WAT     H229067   4.923   7.388   4.610
 9609WAT      O29068   2.857   1.634   2.951
 9609WAT     H129069   2.873   1.730   2.975
 9609WAT     H229070   2.758   1.618   2.944
 9610WAT      O29071   2.131   8.184   2.289
 9610WAT     H129072   2.066   8.194   2.213
 9610WAT     H229073   2.092   8.223   2.372
 9611WAT      O29074   1.493   8.730   5.075
 9611WAT     H129075   1.459   8.638   5.060
 9611WAT     H229076   1.447   8.794   5.013
 9612WAT      O29077   8.318   1.790   2.293
 9612WAT     H129078   8.242   1.838   2.337
 9612WAT     H229079   8.348   1.842   2.213
 9613WAT      O29080   0.571   9.344   9.131
 9613WAT     H129081   0.618   9.405   9.195
 9613WAT     H229082   0.592   9.249   9.154
 9614WAT      O29083   3.053   1.695   7.978
 9614WAT     H129084   2.965   1.738   8.000
 9614WAT     H229085   3.127   1.747   8.021
 9615WAT      O29086   9.751   5.328   4.436
 9615WAT     H129087   9.771   5.320   4.533
 9615WAT     H229088   9.813   5.394   4.394
 9616WAT      O29089   8.884   4.022   4.390
 9616WAT     H129090   8.857   3.928   4.409
 9616WAT     H229091   8.962   4.047   4.447
 9617WAT      O29092   5.627   0.205   4.119
 9617WAT     H129093   5.569   0.200   4.201
 9617WAT     H229094   5.680   0.121   4.111
 9618WAT      O29095   1.604   4.725   9.362
 9618WAT     H129096   1.662   4.643   9.366
 9618WAT     H229097   1.635   4.783   9.287
 9619WAT      O29098   2.266   7.223   7.815
 9619WAT     H129099   2.308   7.190   7.900
 9619WAT     H229100   2.257   7.147   7.751
 9620WAT      O29101   0.662   4.685   3.657
 9620WAT     H129102   0.599   4.629   3.604
 9620WAT     H229103   0.748   4.694   3.608
 9621WAT      O29104   1.198   5.344   3.155
 9621WAT     H129105   1.223   5.412   3.085
 9621WAT     H229106   1.247   5.363   3.239
 9622WAT      O29107   2.993   5.978   2.799
 9622WAT     H129108   2.898   6.008   2.792
 9622WAT     H229109   3.002   5.914   2.876
 9623WAT      O29110   5.119   7.573   8.029
 9623WAT     H129111   5.039   7.518   8.005
 9623WAT     H229112   5.132   7.572   8.129
 9624WAT      O29113   1.147   9.640   6.984
 9624WAT     H129114   1.051   9.614   6.984
 9624WAT     H229115   1.172   9.675   6.894
 9625WAT      O29116   5.225   2.306   6.771
 9625WAT     H129117   5.279   2.254   6.837
 9625WAT     H229118   5.251   2.279   6.678
 9626WAT      O29119   0.364   9.585   3.473
 9626WAT     H129120   0.285   9.535   3.439
 9626WAT     H229121   0.432   9.593   3.400
 9627WAT      O29122   2.854   3.066   3.567
 9627WAT     H129123   2.841   3.064   3.666
 9627WAT     H229124   2.869   2.973   3.533
 9628WAT      O29125   4.379   4.183   6.532
 9628WAT     H129126   4.304   4.246   6.552
 9628WAT     H229127   4.401   4.188   6.434
 9629WAT      O29128   0.692   1.657   8.801
 9629WAT     H129129   0.740   1.717   8.866
 9629WAT     H229130   0.758   1.596   8.758
 9630WAT      O29131   2.581   6.212   4.497
 9630WAT     H129132   2.552   6.298   4.457
 9630WAT     H229133   2.518   6.139   4.470
 9631WAT      O29134   5.989   6.118   8.424
 9631WAT     H129135   5.928   6.137   8.348
 9631WAT     H229136   6.015   6.022   8.423
 9632WAT      O29137   5.085   8.221   1.788
 9632WAT     H129138   5.137   8.277   1.852
 9632WAT     H229139   5.022   8.163   1.839
 9633WAT      O29140   5.149   1.793   0.605
 9633WAT     H129141   5.118   1.719   0.666
 9633WAT     H229142   5.145   1.880   0.654
 9634WAT      O29143   6.516   8.991   2.509
 9634WAT     H129144   6.542   8.904   2.551
 9634WAT     H229145   6.458   8.974   2.429
 9635WAT      O29146   4.441   7.757   7.927
 9635WAT     H129147   4.533   7.740   7.892
 9635WAT     H229148   4.448   7.800   8.017
 9636WAT      O29149   8.634   4.394   5.213
 9636WAT     H129150   8.578   4.464   5.257
 9636WAT     H229151   8.581   4.348   5.142
 9637WAT      O29152   7.922   5.634   0.229
 9637WAT     H129153   7.883   5.566   0.166
 9637WAT     H229154   7.920   5.598   0.322
 9638WAT      O29155   5.134   2.006   1.249
 9638WAT     H129156   5.129   1.990   1.151
 9638WAT     H229157   5.198   2.081   1.267
 9639WAT      O29158   2.097   8.892   7.280
 9639WAT     H129159   2.121   8.803   7.319
 9639WAT     H229160   2.180   8.940   7.252
 9640WAT      O29161   3.860   3.559   3.882
 9640WAT     H129162   3.810   3.634   3.926
 9640WAT     H229163   3.828   3.472   3.919
 9641WAT      O29164   8.623   2.162   5.799
 9641WAT     H129165   8.554   2.215   5.749
 9641WAT     H229166   8.712   2.177   5.757
 9642WAT      O29167   0.697   7.841   9.341
 9642WAT     H129168   0.778   7.786   9.318
 9642WAT     H229169   0.623   7.819   9.278
 9643WAT      O29170   1.505   2.889   7.660
 9643WAT     H129171   1.468   2.949   7.589
 9643WAT     H229172   1.469   2.916   7.750
 9644WAT      O29173   8.299   4.413   3.980
 9644WAT     H129174   8.396   4.427   4.000
 9644WAT     H229175   8.247   4.494   4.006
 9645WAT      O29176   3.155   2.847   7.284
 9645WAT     H129177   3.178   2.751   7.268
 9645WAT     H229178   3.208   2.881   7.362
 9646WAT      O29179   8.693   7.049   6.587
 9646WAT     H129180   8.775   7.103   6.570
 9646WAT     H229181   8.619   7.108   6.618
 9647WAT      O29182   8.013   9.358   0.054
 9647WAT     H129183   7.993   9.274   0.104
 9647WAT     H229184   8.030   9.335  -0.042
 9648WAT      O29185   1.076   6.977   0.380
 9648WAT     H129186   0.978   6.956   0.376
 9648WAT     H229187   1.093   7.064   0.333
 9649WAT      O29188   1.899   8.207   6.391
 9649WAT     H129189   1.954   8.288   6.410
 9649WAT     H229190   1.823   8.232   6.330
 9650WAT      O29191   1.922   8.607   2.753
 9650WAT     H129192   1.993   8.671   2.724
 9650WAT     H229193   1.844   8.659   2.790
 9651WAT      O29194   8.627   6.866   3.850
 9651WAT     H129195   8.678   6.781   3.836
 9651WAT     H229196   8.532   6.844   3.873
 9652WAT      O29197   2.232   9.337   2.013
 9652WAT     H129198   2.247   9.311   1.917
 9652WAT     H229199   2.270   9.266   2.073
 9653WAT      O29200   2.031   8.949   6.226
 9653WAT     H129201   1.963   8.934   6.298
 9653WAT     H229202   2.106   8.882   6.236
 9654WAT      O29203   9.792   3.906   5.748
 9654WAT     H129204   9.845   3.976   5.700
 9654WAT     H229205   9.812   3.910   5.846
 9655WAT      O29206   9.014   8.064   5.126
 9655WAT     H129207   8.970   8.004   5.059
 9655WAT     H229208   9.104   8.028   5.149
 9656WAT      O29209   6.898   8.547   2.591
 9656WAT     H129210   6.936   8.610   2.659
 9656WAT     H229211   6.828   8.491   2.634
 9657WAT      O29212   2.320   4.868   1.725
 9657WAT     H129213   2.369   4.938   1.672
 9657WAT     H229214   2.385   4.805   1.766
 9658WAT      O29215   3.863   0.965   0.618
 9658WAT     H129216   3.775   0.920   0.603
 9658WAT     H229217   3.919   0.908   0.679
 9659WAT      O29218   2.042   1.681   0.645
 9659WAT     H129219   2.022   1.762   0.590
 9659WAT     H229220   2.109   1.704   0.716
 9660WAT      O29221   1.153   9.021   0.525
 9660WAT     H129222   1.199   8.987   0.607
 9660WAT     H229223   1.056   9.033   0.544
 9661WAT      O29224   9.632   0.256   1.303
 9661WAT     H129225   9.645   0.234   1.206
 9661WAT     H229226   9.563   0.327   1.312
 9662WAT      O29227   3.830   6.290   0.983
 9662WAT     H129228   3.849   6.299   0.885
 9662WAT     H229229   3.750   6.231   0.995
 9663WAT      O29230   8.900   2.147   5.456
 9663WAT     H129231   8.873   2.239   5.426
 9663WAT     H229232   8.821   2.086   5.452
 9664WAT      O29233   6.634   9.799   5.741
 9664WAT     H129234   6.712   9.754   5.698
 9664WAT     H229235   6.550   9.773   5.694
 9665WAT      O29236   9.145   9.721   4.048
 9665WAT     H129237   9.128   9.622   4.053
 9665WAT     H229238   9.230   9.742   4.095
 9666WAT      O29239   5.722   3.342   5.927
 9666WAT     H129240   5.646   3.324   5.864
 9666WAT     H229241   5.776   3.258   5.937
 9667WAT      O29242   2.221   7.960   3.314
 9667WAT     H129243   2.197   7.995   3.223
 9667WAT     H229244   2.182   7.868   3.325
 9668WAT      O29245   7.577   2.038   4.323
 9668WAT     H129246   7.591   1.964   4.389
 9668WAT     H229247   7.494   2.020   4.270
 9669WAT      O29248   0.613   7.329   7.741
 9669WAT     H129249   0.539   7.395   7.758
 9669WAT     H229250   0.591   7.276   7.658
 9670WAT      O29251   4.159   1.664   7.299
 9670WAT     H129252   4.194   1.656   7.392
 9670WAT     H229253   4.159   1.574   7.255
 9671WAT      O29254   7.954   8.376   4.191
 9671WAT     H129255   8.051   8.381   4.168
 9671WAT     H229256   7.914   8.467   4.185
 9672WAT      O29257   3.355   5.223   3.277
 9672WAT     H129258   3.377   5.238   3.373
 9672WAT     H229259   3.416   5.153   3.239
 9673WAT      O29260   6.109   6.659   0.509
 9673WAT     H129261   6.187   6.608   0.546
 9673WAT     H229262   6.055   6.696   0.584
 9674WAT      O29263   2.849   1.511   7.487
 9674WAT     H129264   2.778   1.443   7.507
 9674WAT     H229265   2.927   1.496   7.546
 9675WAT      O29266   2.667   8.018   9.091
 9675WAT     H129267   2.647   8.026   8.993
 9675WAT     H229268   2.759   8.052   9.109
 9676WAT      O29269   8.687   1.305   7.864
 9676WAT     H129270   8.767   1.287   7.806
 9676WAT     H229271   8.650   1.218   7.897
 9677WAT      O29272   8.510   5.105   8.652
 9677WAT     H129273   8.439   5.066   8.592
 9677WAT     H229274   8.553   5.183   8.607
 9678WAT      O29275   4.404   5.012   2.818
 9678WAT     H129276   4.424   4.993   2.914
 9678WAT     H229277   4.408   4.927   2.766
 9679WAT      O29278   2.439   5.773   3.753
 9679WAT     H129279   2.418   5.677   3.735
 9679WAT     H229280   2.538   5.784   3.768
 9680WAT      O29281   1.167   6.013   5.122
 9680WAT     H129282   1.089   6.062   5.083
 9680WAT     H229283   1.134   5.937   5.179
 9681WAT      O29284   4.164   8.231   6.801
 9681WAT     H129285   4.178   8.152   6.860
 9681WAT     H229286   4.159   8.202   6.706
 9682WAT      O29287   1.662   8.874   1.653
 9682WAT     H129288   1.752   8.905   1.684
 9682WAT     H229289   1.670   8.836   1.561
 9683WAT      O29290   8.907   0.274   1.140
 9683WAT     H129291   8.847   0.327   1.080
 9683WAT     H229292   8.938   0.192   1.092
 9684WAT      O29293   1.580   4.046   9.259
 9684WAT     H129294   1.654   4.000   9.308
 9684WAT     H229295   1.495   3.994   9.269
 9685WAT      O29296   7.698   9.073   2.469
 9685WAT     H129297   7.734   9.105   2.557
 9685WAT     H229298   7.773   9.069   2.402
 9686WAT      O29299   0.029   1.830   7.702
 9686WAT     H129300   0.048   1.817   7.800
 9686WAT     H229301   0.072   1.756   7.650
 9687WAT      O29302   0.749   0.845   6.778
 9687WAT     H129303   0.770   0.828   6.681
 9687WAT     H229304   0.764   0.942   6.798
 9688WAT      O29305   2.241   7.663   5.069
 9688WAT     H129306   2.201   7.677   5.159
 9688WAT     H229307   2.322   7.604   5.077
 9689WAT      O29308   5.576   7.342   0.277
 9689WAT     H129309   5.497   7.314   0.222
 9689WAT     H229310   5.606   7.265   0.332
 9690WAT      O29311   3.678   8.666   4.077
 9690WAT     H129312   3.588   8.708   4.087
 9690WAT     H229313   3.717   8.691   3.989
 9691WAT      O29314   2.500   3.490   8.912
 9691WAT     H129315   2.444   3.465   8.991
 9691WAT     H229316   2.545   3.577   8.929
 9692WAT      O29317   5.211   2.299   7.877
 9692WAT     H129318   5.129   2.292   7.934
 9692WAT     H229319   5.197   2.246   7.793
 9693WAT      O29320   8.786   0.399   6.861
 9693WAT     H129321   8.740   0.464   6.801
 9693WAT     H229322   8.884   0.416   6.861
 9694WAT      O29323   4.802   1.235   8.817
 9694WAT     H129324   4.774   1.294   8.893
 9694WAT     H229325   4.721   1.209   8.764
 9695WAT      O29326   7.675   0.849   0.940
 9695WAT     H129327   7.674   0.753   0.968
 9695WAT     H229328   7.612   0.863   0.864
 9696WAT      O29329   7.208   1.932   1.479
 9696WAT     H129330   7.229   1.988   1.400
 9696WAT     H229331   7.122   1.883   1.463
 9697WAT      O29332   3.653   8.152   0.164
 9697WAT     H129333   3.743   8.109   0.165
 9697WAT     H229334   3.582   8.082   0.169
 9698WAT      O29335   2.951   4.001   4.085
 9698WAT     H129336   3.017   3.977   4.013
 9698WAT     H229337   2.887   4.069   4.049
 9699WAT      O29338   8.503   0.448   8.488
 9699WAT     H129339   8.488   0.546   8.501
 9699WAT     H229340   8.502   0.428   8.390
 9700WAT      O29341   3.302   9.565   0.168
 9700WAT     H129342   3.278   9.602   0.258
 9700WAT     H229343   3.223   9.572   0.107
 9701WAT      O29344   9.230   2.552   6.784
 9701WAT     H129345   9.300   2.605   6.832
 9701WAT     H229346   9.275   2.489   6.720
 9702WAT      O29347   8.558   3.574   2.892
 9702WAT     H129348   8.562   3.477   2.916
 9702WAT     H229349   8.577   3.630   2.972
 9703WAT      O29350   2.934   6.907   1.608
 9703WAT     H129351   2.931   6.899   1.508
 9703WAT     H229352   2.899   6.997   1.635
 9704WAT      O29353   3.682   0.090   4.708
 9704WAT     H129354   3.759   0.153   4.713
 9704WAT     H229355   3.617   0.122   4.640
 9705WAT      O29356   9.352   6.009   4.524
 9705WAT     H129357   9.322   6.014   4.619
 9705WAT     H229358   9.449   6.033   4.518
 9706WAT      O29359   9.452   3.805   2.960
 9706WAT     H129360   9.407   3.877   2.906
 9706WAT     H229361   9.456   3.833   3.056
 9707WAT      O29362   6.907   5.463   2.760
 9707WAT     H129363   6.827   5.472   2.819
 9707WAT     H229364   6.975   5.532   2.784
 9708WAT      O29365   8.725   2.424   7.882
 9708WAT     H129366   8.668   2.501   7.911
 9708WAT     H229367   8.763   2.378   7.962
 9709WAT      O29368   0.658   1.513   0.197
 9709WAT     H129369   0.649   1.554   0.288
 9709WAT     H229370   0.631   1.580   0.128
 9710WAT      O29371   0.036   3.200   4.452
 9710WAT     H129372   0.100   3.237   4.385
 9710WAT     H229373   0.076   3.121   4.497
 9711WAT      O29374   6.944   8.626   0.311
 9711WAT     H129375   7.022   8.579   0.270
 9711WAT     H229376   6.937   8.719   0.274
 9712WAT      O29377   5.207   4.255   2.735
 9712WAT     H129378   5.210   4.157   2.756
 9712WAT     H229379   5.113   4.288   2.742
 9713WAT      O29380   6.151   1.542   7.842
 9713WAT     H129381   6.105   1.629   7.861
 9713WAT     H229382   6.144   1.521   7.744
 9714WAT      O29383   2.256   5.215   9.663
 9714WAT     H129384   2.208   5.290   9.708
 9714WAT     H229385   2.269   5.238   9.566
 9715WAT      O29386   8.230   2.925   2.379
 9715WAT     H129387   8.242   3.021   2.404
 9715WAT     H229388   8.296   2.901   2.307
 9716WAT      O29389   0.484   8.538   8.633
 9716WAT     H129390   0.465   8.495   8.545
 9716WAT     H229391   0.463   8.473   8.706
 9717WAT      O29392   9.214   9.404   7.538
 9717WAT     H129393   9.261   9.423   7.624
 9717WAT     H229394   9.277   9.359   7.475
 9718WAT      O29395   8.892   3.703   4.444
 9718WAT     H129396   8.954   3.692   4.367
 9718WAT     H229397   8.804   3.659   4.423
 9719WAT      O29398   2.799   2.351   5.684
 9719WAT     H129399   2.847   2.428   5.726
 9719WAT     H229400   2.712   2.337   5.730
 9720WAT      O29401   3.580   9.789   9.338
 9720WAT     H129402   3.621   9.698   9.353
 9720WAT     H229403   3.491   9.793   9.385
 9721WAT      O29404   7.587   2.094   3.986
 9721WAT     H129405   7.502   2.146   3.990
 9721WAT     H229406   7.657   2.146   3.937
 9722WAT      O29407   5.724   7.597   5.999
 9722WAT     H129408   5.796   7.651   5.957
 9722WAT     H229409   5.687   7.647   6.078
 9723WAT      O29410   8.315   0.908   0.766
 9723WAT     H129411   8.405   0.875   0.739
 9723WAT     H229412   8.262   0.930   0.685
 9724WAT      O29413   0.013   3.046   1.232
 9724WAT     H129414  -0.019   3.089   1.147
 9724WAT     H229415   0.063   3.114   1.286
 9725WAT      O29416   6.891   2.245   4.127
 9725WAT     H129417   6.947   2.251   4.044
 9725WAT     H229418   6.927   2.307   4.196
 9726WAT      O29419   1.562   1.541   3.870
 9726WAT     H129420   1.573   1.530   3.771
 9726WAT     H229421   1.626   1.480   3.917
 9727WAT      O29422   8.450   4.768   5.920
 9727WAT     H129423   8.375   4.739   5.980
 9727WAT     H229424   8.458   4.703   5.845
 9728WAT      O29425   4.848   7.237   4.533
 9728WAT     H129426   4.872   7.173   4.606
 9728WAT     H229427   4.822   7.185   4.451
 9729WAT      O29428   9.254   0.100   1.747
 9729WAT     H129429   9.225   0.082   1.653
 9729WAT     H229430   9.205   0.040   1.809
 9730WAT      O29431   6.296   1.984   3.679
 9730WAT     H129432   6.222   1.981   3.747
 9730WAT     H229433   6.261   1.954   3.590
 9731WAT      O29434   8.246   0.905   6.053
 9731WAT     H129435   8.215   0.825   6.002
 9731WAT     H229436   8.215   0.897   6.148
 9732WAT      O29437   9.049   1.854   4.011
 9732WAT     H129438   9.066   1.774   3.953
 9732WAT     H229439   8.961   1.894   3.988
 9733WAT      O29440   8.625   8.985   3.797
 9733WAT     H129441   8.693   8.957   3.865
 9733WAT     H229442   8.538   8.939   3.816
 9734WAT      O29443   4.278   8.403   0.321
 9734WAT     H129444   4.273   8.502   0.333
 9734WAT     H229445   4.347   8.382   0.252
 9735WAT      O29446   4.930   5.893   9.716
 9735WAT     H129447   4.888   5.960   9.655
 9735WAT     H229448   4.966   5.939   9.797
 9736WAT      O29449   6.710   1.976   4.937
 9736WAT     H129450   6.729   1.893   4.990
 9736WAT     H229451   6.659   1.952   4.854
 9737WAT      O29452   1.193   8.767   3.405
 9737WAT     H129453   1.118   8.829   3.380
 9737WAT     H229454   1.169   8.674   3.376
 9738WAT      O29455   9.285   6.306   7.313
 9738WAT     H129456   9.382   6.292   7.334
 9738WAT     H229457   9.260   6.400   7.334
 9739WAT      O29458   4.186   0.822   4.690
 9739WAT     H129459   4.186   0.739   4.746
 9739WAT     H229460   4.264   0.880   4.716
 9740WAT      O29461   2.331   1.747   5.159
 9740WAT     H129462   2.369   1.836   5.135
 9740WAT     H229463   2.315   1.743   5.257
 9741WAT      O29464   1.134   4.292   1.272
 9741WAT     H129465   1.219   4.344   1.263
 9741WAT     H229466   1.092   4.282   1.181
 9742WAT      O29467   0.079   3.521   7.050
 9742WAT     H129468   0.097   3.534   6.952
 9742WAT     H229469   0.150   3.566   7.104
 9743WAT      O29470   4.371   4.691   2.947
 9743WAT     H129471   4.411   4.677   2.856
 9743WAT     H229472   4.379   4.787   2.973
 9744WAT      O29473   3.096   1.731   0.191
 9744WAT     H129474   3.056   1.719   0.099
 9744WAT     H229475   3.070   1.820   0.227
 9745WAT      O29476   1.817   2.502   0.352
 9745WAT     H129477   1.873   2.427   0.316
 9745WAT     H229478   1.845   2.588   0.311
 9746WAT      O29479   0.838   6.362   6.080
 9746WAT     H129480   0.903   6.297   6.040
 9746WAT     H229481   0.888   6.430   6.134
 9747WAT      O29482   5.132   3.979   9.291
 9747WAT     H129483   5.083   4.049   9.342
 9747WAT     H229484   5.082   3.958   9.207
 9748WAT      O29485   8.887   2.291   0.505
 9748WAT     H129486   8.801   2.241   0.493
 9748WAT     H229487   8.875   2.385   0.474
 9749WAT      O29488   7.805   6.806   2.751
 9749WAT     H129489   7.717   6.795   2.797
 9749WAT     H229490   7.879   6.800   2.818
 9750WAT      O29491   1.872   6.507   2.470
 9750WAT     H129492   1.895   6.451   2.391
 9750WAT     H229493   1.900   6.601   2.454
 9751WAT      O29494   7.877   1.394   8.071
 9751WAT     H129495   7.847   1.488   8.056
 9751WAT     H229496   7.923   1.387   8.159
 9752WAT      O29497   9.674   3.047   4.362
 9752WAT     H129498   9.734   3.127   4.374
 9752WAT     H229499   9.665   2.999   4.449
 9753WAT      O29500   3.326   5.121   2.326
 9753WAT     H129501   3.403   5.138   2.263
 9753WAT     H229502   3.240   5.134   2.277
 9754WAT      O29503   5.361   8.282   3.195
 9754WAT     H129504   5.265   8.299   3.217
 9754WAT     H229505   5.398   8.213   3.257
 9755WAT      O29506   1.055   4.742   8.081
 9755WAT     H129507   1.019   4.798   8.006
 9755WAT     H229508   1.107   4.665   8.043
 9756WAT      O29509   4.291   0.571   8.911
 9756WAT     H129510   4.356   0.521   8.968
 9756WAT     H229511   4.198   0.537   8.928
 9757WAT      O29512   0.425   3.924   1.147
 9757WAT     H129513   0.416   3.833   1.188
 9757WAT     H229514   0.346   3.943   1.089
 9758WAT      O29515   1.031   6.723   8.513
 9758WAT     H129516   0.943   6.713   8.467
 9758WAT     H229517   1.017   6.718   8.612
 9759WAT      O29518   5.796   6.255   9.896
 9759WAT     H129519   5.844   6.230   9.812
 9759WAT     H229520   5.701   6.278   9.875
 9760WAT      O29521   1.813   4.644   5.441
 9760WAT     H129522   1.845   4.577   5.508
 9760WAT     H229523   1.723   4.678   5.468
 9761WAT      O29524   1.857   3.829   6.357
 9761WAT     H129525   1.829   3.826   6.453
 9761WAT     H229526   1.785   3.874   6.303
 9762WAT      O29527   7.355   9.127   3.117
 9762WAT     H129528   7.329   9.222   3.138
 9762WAT     H229529   7.276   9.067   3.132
 9763WAT      O29530   1.540   2.364   1.966
 9763WAT     H129531   1.614   2.430   1.975
 9763WAT     H229532   1.555   2.287   2.028
 9764WAT      O29533   2.135   7.313   7.023
 9764WAT     H129534   2.162   7.407   7.040
 9764WAT     H229535   2.036   7.304   7.030
 9765WAT      O29536   9.873   6.863   0.835
 9765WAT     H129537   9.789   6.809   0.837
 9765WAT     H229538   9.880   6.912   0.748
 9766WAT      O29539   9.534   0.159   0.007
 9766WAT     H129540   9.626   0.176  -0.028
 9766WAT     H229541   9.511   0.228   0.076
 9767WAT      O29542   7.081   1.805   8.046
 9767WAT     H129543   7.058   1.885   7.992
 9767WAT     H229544   6.998   1.751   8.063
 9768WAT      O29545   3.839   2.142   1.279
 9768WAT     H129546   3.828   2.174   1.185
 9768WAT     H229547   3.911   2.074   1.283
 9769WAT      O29548   2.353   5.562   8.847
 9769WAT     H129549   2.360   5.651   8.803
 9769WAT     H229550   2.362   5.490   8.777
 9770WAT      O29551   9.337   5.177   6.443
 9770WAT     H129552   9.264   5.147   6.382
 9770WAT     H229553   9.425   5.171   6.396
 9771WAT      O29554   6.907   7.920   8.021
 9771WAT     H129555   6.862   7.844   8.070
 9771WAT     H229556   6.979   7.959   8.079
 9772WAT      O29557   3.295   5.716   3.203
 9772WAT     H129558   3.325   5.656   3.277
 9772WAT     H229559   3.373   5.740   3.146
 9773WAT      O29560   9.675   7.453   9.681
 9773WAT     H129561   9.766   7.427   9.713
 9773WAT     H229562   9.681   7.531   9.619
 9774WAT      O29563   1.951   7.347   1.913
 9774WAT     H129564   1.956   7.375   1.817
 9774WAT     H229565   1.970   7.425   1.972
 9775WAT      O29566   1.758   5.406   7.696
 9775WAT     H129567   1.832   5.339   7.706
 9775WAT     H229568   1.671   5.358   7.683
 9776WAT      O29569   8.405   5.149   2.312
 9776WAT     H129570   8.313   5.135   2.348
 9776WAT     H229571   8.400   5.205   2.229
 9777WAT      O29572   0.737   5.248   6.981
 9777WAT     H129573   0.760   5.156   6.949
 9777WAT     H229574   0.708   5.304   6.903
 9778WAT      O29575   2.719   2.500   2.168
 9778WAT     H129576   2.714   2.406   2.135
 9778WAT     H229577   2.667   2.508   2.254
 9779WAT      O29578   2.338   1.154   2.138
 9779WAT     H129579   2.406   1.227   2.140
 9779WAT     H229580   2.280   1.161   2.220
 9780WAT      O29581   1.363   0.922   2.542
 9780WAT     H129582   1.412   0.913   2.456
 9780WAT     H229583   1.265   0.934   2.525
 9781WAT      O29584   6.236   2.448   4.155
 9781WAT     H129585   6.291   2.430   4.236
 9781WAT     H229586   6.296   2.465   4.077
 9782WAT      O29587   6.902   0.658   3.531
 9782WAT     H129588   6.911   0.687   3.626
 9782WAT     H229589   6.976   0.699   3.477
 9783WAT      O29590   0.970   4.760   4.717
 9783WAT     H129591   0.915   4.841   4.695
 9783WAT     H229592   0.958   4.737   4.814
 9784WAT      O29593   9.593   0.461   5.218
 9784WAT     H129594   9.528   0.397   5.258
 9784WAT     H229595   9.643   0.416   5.143
 9785WAT      O29596   8.056   3.233   1.613
 9785WAT     H129597   8.138   3.275   1.573
 9785WAT     H229598   8.002   3.303   1.660
 9786WAT      O29599   0.554   3.467   3.549
 9786WAT     H129600   0.565   3.473   3.648
 9786WAT     H229601   0.644   3.463   3.506
 9787WAT      O29602   3.358   2.519   5.459
 9787WAT     H129603   3.373   2.618   5.452
 9787WAT     H229604   3.430   2.478   5.515
 9788WAT      O29605   3.234   0.537   6.919
 9788WAT     H129606   3.148   0.578   6.889
 9788WAT     H229607   3.270   0.478   6.846
 9789WAT      O29608   1.500   0.040   6.954
 9789WAT     H129609   1.487  -0.058   6.967
 9789WAT     H229610   1.449   0.069   6.872
 9790WAT      O29611   0.839   5.008   3.528
 9790WAT     H129612   0.772   4.947   3.488
 9790WAT     H229613   0.900   4.957   3.589
 9791WAT      O29614   2.127   6.352   0.639
 9791WAT     H129615   2.061   6.424   0.619
 9791WAT     H229616   2.092   6.296   0.715
 9792WAT      O29617   4.386   7.038   8.242
 9792WAT     H129618   4.379   7.074   8.149
 9792WAT     H229619   4.315   6.970   8.257
 9793WAT      O29620   6.475   2.955   7.293
 9793WAT     H129621   6.522   2.911   7.370
 9793WAT     H229622   6.434   3.041   7.324
 9794WAT      O29623   0.598   4.736   7.428
 9794WAT     H129624   0.576   4.686   7.511
 9794WAT     H229625   0.567   4.684   7.348
 9795WAT      O29626   9.304   2.544   5.409
 9795WAT     H129627   9.326   2.458   5.457
 9795WAT     H229628   9.316   2.621   5.472
 9796WAT      O29629   0.245   7.378   5.226
 9796WAT     H129630   0.177   7.330   5.281
 9796WAT     H229631   0.242   7.476   5.246
 9797WAT      O29632   0.559   6.332   2.386
 9797WAT     H129633   0.476   6.286   2.417
 9797WAT     H229634   0.624   6.265   2.351
 9798WAT      O29635   4.307   3.774   3.566
 9798WAT     H129636   4.398   3.735   3.548
 9798WAT     H229637   4.294   3.782   3.665
 9799WAT      O29638   4.568   5.040   1.599
 9799WAT     H129639   4.579   4.941   1.588
 9799WAT     H229640   4.472   5.065   1.582
 9800WAT      O29641   1.877   9.164   4.649
 9800WAT     H129642   1.882   9.177   4.748
 9800WAT     H229643   1.826   9.239   4.607
 9801WAT      O29644   7.899   6.708   3.549
 9801WAT     H129645   7.942   6.725   3.638
 9801WAT     H229646   7.953   6.753   3.478
 9802WAT      O29647   2.597   6.915   7.110
 9802WAT     H129648   2.672   6.949   7.167
 9802WAT     H229649   2.541   6.993   7.080
 9803WAT      O29650   0.449   6.110   6.594
 9803WAT     H129651   0.405   6.192   6.629
 9803WAT     H229652   0.382   6.054   6.545
 9804WAT      O29653   8.886   2.209   5.736
 9804WAT     H129654   8.909   2.177   5.643
 9804WAT     H229655   8.933   2.295   5.753
 9805WAT      O29656   3.234   4.184   7.882
 9805WAT     H129657   3.155   4.231   7.843
 9805WAT     H229658   3.316   4.239   7.867
 9806WAT      O29659   9.133   4.002   5.963
 9806WAT     H129660   9.093   3.912   5.979
 9806WAT     H229661   9.088   4.045   5.884
 9807WAT      O29662   8.878   8.575   0.829
 9807WAT     H129663   8.808   8.639   0.858
 9807WAT     H229664   8.964   8.596   0.875
 9808WAT      O29665   5.585   1.941   1.635
 9808WAT     H129666   5.536   1.855   1.622
 9808WAT     H229667   5.522   2.009   1.673
 9809WAT      O29668   6.151   5.660   2.255
 9809WAT     H129669   6.068   5.713   2.271
 9809WAT     H229670   6.227   5.699   2.307
 9810WAT      O29671   9.123   3.243   3.288
 9810WAT     H129672   9.092   3.169   3.228
 9810WAT     H229673   9.208   3.216   3.334
 9811WAT      O29674   2.079   1.454   9.429
 9811WAT     H129675   2.039   1.367   9.401
 9811WAT     H229676   2.144   1.439   9.504
 9812WAT      O29677   1.991   3.280   2.614
 9812WAT     H129678   1.996   3.299   2.712
 9812WAT     H229679   2.010   3.184   2.597
 9813WAT      O29680   2.984   8.764   9.315
 9813WAT     H129681   2.901   8.779   9.369
 9813WAT     H229682   3.039   8.692   9.358
 9814WAT      O29683   4.342   8.489   8.366
 9814WAT     H129684   4.306   8.514   8.456
 9814WAT     H229685   4.382   8.398   8.370
 9815WAT      O29686   6.719   8.895   6.081
 9815WAT     H129687   6.726   8.947   5.996
 9815WAT     H229688   6.757   8.804   6.068
 9816WAT      O29689   3.153   9.248   5.051
 9816WAT     H129690   3.227   9.186   5.024
 9816WAT     H229691   3.191   9.339   5.068
 9817WAT      O29692   2.416   4.510   3.526
 9817WAT     H129693   2.494   4.449   3.510
 9817WAT     H229694   2.345   4.462   3.577
 9818WAT      O29695   8.656   7.212   1.263
 9818WAT     H129696   8.669   7.305   1.228
 9818WAT     H229697   8.561   7.184   1.248
 9819WAT      O29698   9.018   5.877   1.709
 9819WAT     H129699   8.985   5.800   1.763
 9819WAT     H229700   9.110   5.858   1.676
 9820WAT      O29701   7.220   2.844   9.188
 9820WAT     H129702   7.277   2.766   9.215
 9820WAT     H229703   7.125   2.815   9.181
 9821WAT      O29704   7.846   4.853   8.726
 9821WAT     H129705   7.944   4.868   8.722
 9821WAT     H229706   7.812   4.875   8.818
 9822WAT      O29707   0.963   0.918   5.353
 9822WAT     H129708   0.871   0.946   5.383
 9822WAT     H229709   1.029   0.943   5.423
 9823WAT      O29710   5.848   4.565   5.526
 9823WAT     H129711   5.944   4.594   5.534
 9823WAT     H229712   5.839   4.470   5.557
 9824WAT      O29713   8.724   3.425   5.175
 9824WAT     H129714   8.692   3.423   5.270
 9824WAT     H229715   8.800   3.490   5.167
 9825WAT      O29716   9.588   9.728   1.857
 9825WAT     H129717   9.637   9.641   1.859
 9825WAT     H229718   9.529   9.732   1.776
 9826WAT      O29719   1.389   3.381   6.806
 9826WAT     H129720   1.397   3.285   6.779
 9826WAT     H229721   1.387   3.387   6.906
 9827WAT      O29722   6.700   6.454   3.888
 9827WAT     H129723   6.643   6.501   3.955
 9827WAT     H229724   6.712   6.359   3.916
 9828WAT      O29725   3.615   5.889   8.841
 9828WAT     H129726   3.704   5.909   8.880
 9828WAT     H229727   3.602   5.790   8.834
 9829WAT      O29728   4.110   0.957   6.599
 9829WAT     H129729   4.187   1.020   6.607
 9829WAT     H229730   4.047   0.971   6.675
 9830WAT      O29731   0.056   8.994   6.036
 9830WAT     H129732   0.095   9.061   6.099
 9830WAT     H229733   0.080   8.902   6.066
 9831WAT      O29734   3.536   5.168   9.263
 9831WAT     H129735   3.480   5.207   9.190
 9831WAT     H229736   3.485   5.172   9.349
 9832WAT      O29737   5.963   5.938   5.055
 9832WAT     H129738   6.038   5.987   5.099
 9832WAT     H229739   5.876   5.978   5.084
 9833WAT      O29740   8.499   2.926   8.727
 9833WAT     H129741   8.502   2.947   8.629
 9833WAT     H229742   8.586   2.954   8.769
 9834WAT      O29743   7.283   1.637   2.437
 9834WAT     H129744   7.325   1.550   2.411
 9834WAT     H229745   7.184   1.624   2.447
 9835WAT      O29746   0.942   8.256   4.864
 9835WAT     H129747   0.923   8.168   4.820
 9835WAT     H229748   0.856   8.300   4.890
 9836WAT      O29749   5.592   7.741   1.689
 9836WAT     H129750   5.685   7.717   1.661
 9836WAT     H229751   5.581   7.724   1.787
 9837WAT      O29752   4.091   9.450   3.657
 9837WAT     H129753   4.172   9.411   3.614
 9837WAT     H229754   4.117   9.532   3.708
 9838WAT      O29755   6.703   7.622   6.882
 9838WAT     H129756   6.788   7.663   6.914
 9838WAT     H229757   6.669   7.557   6.950
 9839WAT      O29758   7.285   3.940   1.218
 9839WAT     H129759   7.313   4.034   1.237
 9839WAT     H229760   7.359   3.878   1.244
 9840WAT      O29761   0.360   5.617   2.853
 9840WAT     H129762   0.412   5.535   2.831
 9840WAT     H229763   0.267   5.608   2.819
 9841WAT      O29764   0.486   5.853   1.274
 9841WAT     H129765   0.441   5.937   1.305
 9841WAT     H229766   0.563   5.832   1.334
 9842WAT      O29767   9.163   9.794   5.270
 9842WAT     H129768   9.109   9.877   5.262
 9842WAT     H229769   9.125   9.723   5.210
 9843WAT      O29770   3.277   3.624   1.264
 9843WAT     H129771   3.267   3.526   1.285
 9843WAT     H229772   3.205   3.652   1.201
 9844WAT      O29773   5.204   1.385   3.646
 9844WAT     H129774   5.268   1.453   3.680
 9844WAT     H229775   5.163   1.336   3.723
 9845WAT      O29776   9.827   7.283   4.650
 9845WAT     H129777   9.837   7.283   4.551
 9845WAT     H229778   9.896   7.224   4.691
 9846WAT      O29779   9.177   9.395   0.837
 9846WAT     H129780   9.255   9.349   0.795
 9846WAT     H229781   9.092   9.368   0.790
 9847WAT      O29782   0.496   1.512   7.875
 9847WAT     H129783   0.438   1.594   7.881
 9847WAT     H229784   0.580   1.534   7.826
 9848WAT      O29785   3.699   3.398   1.317
 9848WAT     H129786   3.657   3.366   1.232
 9848WAT     H229787   3.785   3.351   1.332
 9849WAT      O29788   3.696   4.014   3.632
 9849WAT     H129789   3.787   4.055   3.637
 9849WAT     H229790   3.640   4.045   3.709
 9850WAT      O29791   9.174   9.131   5.227
 9850WAT     H129792   9.218   9.170   5.145
 9850WAT     H229793   9.076   9.119   5.209
 9851WAT      O29794   0.946   4.404   4.423
 9851WAT     H129795   1.040   4.435   4.407
 9851WAT     H229796   0.901   4.466   4.487
 9852WAT      O29797   5.962   9.519   7.701
 9852WAT     H129798   6.032   9.544   7.768
 9852WAT     H229799   5.942   9.422   7.708
 9853WAT      O29800   0.921   7.723   9.233
 9853WAT     H129801   0.900   7.633   9.192
 9853WAT     H229802   0.983   7.710   9.310
 9854WAT      O29803   2.825   8.988   6.749
 9854WAT     H129804   2.881   9.067   6.774
 9854WAT     H229805   2.883   8.907   6.744
 9855WAT      O29806   9.200   5.031   1.839
 9855WAT     H129807   9.265   5.099   1.806
 9855WAT     H229808   9.165   4.978   1.763
 9856WAT      O29809   8.302   4.044   0.784
 9856WAT     H129810   8.268   4.013   0.695
 9856WAT     H229811   8.303   3.967   0.848
 9857WAT      O29812   3.210   0.838   5.618
 9857WAT     H129813   3.288   0.776   5.604
 9857WAT     H229814   3.131   0.804   5.566
 9858WAT      O29815   7.204   5.076   7.458
 9858WAT     H129816   7.198   5.080   7.558
 9858WAT     H229817   7.191   5.167   7.420
 9859WAT      O29818   9.398   7.653   2.291
 9859WAT     H129819   9.398   7.700   2.202
 9859WAT     H229820   9.441   7.563   2.281
 9860WAT      O29821   6.823   6.606   8.525
 9860WAT     H129822   6.781   6.696   8.534
 9860WAT     H229823   6.916   6.608   8.562
 9861WAT      O29824   5.114   2.587   9.660
 9861WAT     H129825   5.022   2.562   9.689
 9861WAT     H229826   5.179   2.570   9.734
 9862WAT      O29827   6.143   3.844   0.065
 9862WAT     H129828   6.171   3.829   0.160
 9862WAT     H229829   6.053   3.887   0.062
 9863WAT      O29830   6.379   4.455   2.767
 9863WAT     H129831   6.465   4.438   2.720
 9863WAT     H229832   6.397   4.498   2.856
 9864WAT      O29833   3.995   8.696   8.640
 9864WAT     H129834   4.016   8.749   8.722
 9864WAT     H229835   4.060   8.620   8.632
 9865WAT      O29836   7.895   6.090   1.760
 9865WAT     H129837   7.798   6.113   1.749
 9865WAT     H229838   7.942   6.099   1.672
 9866WAT      O29839   7.211   9.618   6.243
 9866WAT     H129840   7.215   9.628   6.343
 9866WAT     H229841   7.303   9.625   6.205
 9867WAT      O29842   7.299   6.334   0.041
 9867WAT     H129843   7.365   6.368  -0.026
 9867WAT     H229844   7.248   6.258   0.001
 9868WAT      O29845   8.266   4.519   0.861
 9868WAT     H129846   8.350   4.474   0.891
 9868WAT     H229847   8.193   4.452   0.850
 9869WAT      O29848   3.070   8.141   8.069
 9869WAT     H129849   2.998   8.199   8.029
 9869WAT     H229850   3.156   8.158   8.022
 9870WAT      O29851   3.519   1.154   2.159
 9870WAT     H129852   3.445   1.086   2.153
 9870WAT     H229853   3.481   1.241   2.190
 9871WAT      O29854   5.029   3.879   9.050
 9871WAT     H129855   5.007   3.784   9.075
 9871WAT     H229856   5.086   3.879   8.968
 9872WAT      O29857   9.132   9.406   1.915
 9872WAT     H129858   9.048   9.399   1.968
 9872WAT     H229859   9.161   9.314   1.887
 9873WAT      O29860   9.221   5.945   6.279
 9873WAT     H129861   9.258   5.852   6.274
 9873WAT     H229862   9.293   6.007   6.309
 9874WAT      O29863   0.454   6.047   3.323
 9874WAT     H129864   0.521   5.975   3.310
 9874WAT     H229865   0.477   6.102   3.403
 9875WAT      O29866   9.122   3.388   5.944
 9875WAT     H129867   9.206   3.377   5.996
 9875WAT     H229868   9.048   3.415   6.005
 9876WAT      O29869   9.668   4.755   6.536
 9876WAT     H129870   9.701   4.697   6.611
 9876WAT     H229871   9.703   4.719   6.449
 9877WAT      O29872   4.653   7.081   5.321
 9877WAT     H129873   4.608   7.037   5.243
 9877WAT     H229874   4.685   7.172   5.294
 9878WAT      O29875   1.628   0.626   7.781
 9878WAT     H129876   1.721   0.594   7.799
 9878WAT     H229877   1.587   0.570   7.709
 9879WAT      O29878   1.543   4.724   7.398
 9879WAT     H129879   1.575   4.818   7.416
 9879WAT     H229880   1.477   4.698   7.468
 9880WAT      O29881   2.081   5.755   4.500
 9880WAT     H129882   2.096   5.781   4.404
 9880WAT     H229883   1.983   5.741   4.515
 9881WAT      O29884   8.074   7.805   2.516
 9881WAT     H129885   8.128   7.736   2.469
 9881WAT     H229886   7.995   7.762   2.560
 9882WAT      O29887   3.960   9.288   7.526
 9882WAT     H129888   4.035   9.337   7.481
 9882WAT     H229889   3.944   9.327   7.616
 9883WAT      O29890   8.837   8.475   3.998
 9883WAT     H129891   8.870   8.380   4.000
 9883WAT     H229892   8.912   8.537   4.020
 9884WAT      O29893   7.348   8.879   4.337
 9884WAT     H129894   7.382   8.883   4.430
 9884WAT     H229895   7.404   8.936   4.277
 9885WAT      O29896   7.852   2.764   7.552
 9885WAT     H129897   7.894   2.838   7.603
 9885WAT     H229898   7.762   2.792   7.519
 9886WAT      O29899   3.965   4.034   2.481
 9886WAT     H129900   3.909   4.074   2.408
 9886WAT     H229901   4.036   4.099   2.508
 9887WAT      O29902   6.134   3.054   8.310
 9887WAT     H129903   6.119   2.985   8.239
 9887WAT     H229904   6.231   3.056   8.334
 9888WAT      O29905   7.391   6.445   0.924
 9888WAT     H129906   7.484   6.408   0.916
 9888WAT     H229907   7.366   6.492   0.840
 9889WAT      O29908   3.945   8.220   1.771
 9889WAT     H129909   3.858   8.182   1.739
 9889WAT     H229910   3.984   8.160   1.841
 9890WAT      O29911   1.653   0.398   7.363
 9890WAT     H129912   1.637   0.473   7.299
 9890WAT     H229913   1.637   0.311   7.318
 9891WAT      O29914   3.788   5.689   7.417
 9891WAT     H129915   3.818   5.687   7.512
 9891WAT     H229916   3.850   5.746   7.364
 9892WAT      O29917   8.267   0.622   7.406
 9892WAT     H129918   8.317   0.705   7.432
 9892WAT     H229919   8.204   0.644   7.331
 9893WAT      O29920   1.555   8.752   3.115
 9893WAT     H129921   1.530   8.840   3.155
 9893WAT     H229922   1.655   8.743   3.112
 9894WAT      O29923   6.801   8.928   1.242
 9894WAT     H129924   6.865   8.929   1.318
 9894WAT     H229925   6.765   8.835   1.231
 9895WAT      O29926   6.225   0.155   8.292
 9895WAT     H129927   6.234   0.149   8.192
 9895WAT     H229928   6.133   0.126   8.319
 9896WAT      O29929   5.856   4.221   6.753
 9896WAT     H129930   5.786   4.150   6.747
 9896WAT     H229931   5.875   4.257   6.661
 9897WAT      O29932   1.471   0.768   1.650
 9897WAT     H129933   1.426   0.810   1.728
 9897WAT     H229934   1.562   0.736   1.677
 9898WAT      O29935   1.566   7.569   4.264
 9898WAT     H129936   1.522   7.507   4.199
 9898WAT     H229937   1.649   7.607   4.222
 9899WAT      O29938   1.032   3.732   9.643
 9899WAT     H129939   1.126   3.753   9.667
 9899WAT     H229940   0.972   3.803   9.681
 9900WAT      O29941   9.343   7.201   3.499
 9900WAT     H129942   9.419   7.266   3.497
 9900WAT     H229943   9.310   7.186   3.406
 9901WAT      O29944   4.252   5.048   1.272
 9901WAT     H129945   4.281   5.115   1.204
 9901WAT     H229946   4.230   5.095   1.357
 9902WAT      O29947   5.747   7.310   3.087
 9902WAT     H129948   5.780   7.228   3.133
 9902WAT     H229949   5.686   7.360   3.149
 9903WAT      O29950   3.007   1.652   6.396
 9903WAT     H129951   2.978   1.562   6.430
 9903WAT     H229952   3.043   1.706   6.472
 9904WAT      O29953   1.381   4.738   8.992
 9904WAT     H129954   1.384   4.646   9.031
 9904WAT     H229955   1.363   4.804   9.065
 9905WAT      O29956   3.342   6.403   9.647
 9905WAT     H129957   3.354   6.346   9.727
 9905WAT     H229958   3.289   6.354   9.578
 9906WAT      O29959   4.006   6.167   8.478
 9906WAT     H129960   4.010   6.247   8.537
 9906WAT     H229961   4.085   6.108   8.497
 9907WAT      O29962   0.588   2.680   5.527
 9907WAT     H129963   0.611   2.585   5.506
 9907WAT     H229964   0.518   2.681   5.599
 9908WAT      O29965   3.418   7.130   5.964
 9908WAT     H129966   3.518   7.123   5.960
 9908WAT     H229967   3.386   7.194   5.895
 9909WAT      O29968   2.516   5.740   7.498
 9909WAT     H129969   2.585   5.791   7.549
 9909WAT     H229970   2.561   5.681   7.430
 9910WAT      O29971   6.684   0.563   1.982
 9910WAT     H129972   6.616   0.624   2.022
 9910WAT     H229973   6.766   0.562   2.040
 9911WAT      O29974   1.115   7.129   5.213
 9911WAT     H129975   1.052   7.179   5.154
 9911WAT     H229976   1.101   7.030   5.201
 9912WAT      O29977   6.236   2.258   5.554
 9912WAT     H129978   6.257   2.195   5.628
 9912WAT     H229979   6.308   2.254   5.485
 9913WAT      O29980   3.427   0.640   1.492
 9913WAT     H129981   3.366   0.688   1.428
 9913WAT     H229982   3.511   0.614   1.444
 9914WAT      O29983   5.336   2.305   3.377
 9914WAT     H129984   5.310   2.388   3.328
 9914WAT     H229985   5.416   2.264   3.334
 9915WAT      O29986   1.555   9.706   4.005
 9915WAT     H129987   1.458   9.684   3.995
 9915WAT     H229988   1.565   9.805   4.015
 9916WAT      O29989   0.827   1.684   3.814
 9916WAT     H129990   0.762   1.608   3.816
 9916WAT     H229991   0.913   1.653   3.772
 9917WAT      O29992   7.675   1.392   2.077
 9917WAT     H129993   7.775   1.392   2.076
 9917WAT     H229994   7.641   1.470   2.024
 9918WAT      O29995   7.982   1.742   1.485
 9918WAT     H129996   7.910   1.756   1.417
 9918WAT     H229997   7.988   1.823   1.544
 9919WAT      O29998   1.681   9.546   1.889
 9919WAT     H129999   1.746   9.532   1.964
 9919WAT     H230000   1.671   9.644   1.872
 9920WAT      O30001   4.649   4.968   5.015
 9920WAT     H130002   4.676   4.974   4.919
 9920WAT     H230003   4.559   4.927   5.023
 9921WAT      O30004   0.886   0.394   9.719
 9921WAT     H130005   0.787   0.382   9.710
 9921WAT     H230006   0.905   0.481   9.762
 9922WAT      O30007   0.187   6.786   3.443
 9922WAT     H130008   0.162   6.693   3.468
 9922WAT     H230009   0.140   6.812   3.359
 9923WAT      O30010   6.298   6.435   8.241
 9923WAT     H130011   6.200   6.415   8.241
 9923WAT     H230012   6.313   6.528   8.273
 9924WAT      O30013   4.090   3.770   7.718
 9924WAT     H130014   4.065   3.816   7.633
 9924WAT     H230015   4.109   3.838   7.789
 9925WAT      O30016   1.967   8.945   4.017
 9925WAT     H130017   1.879   8.985   4.042
 9925WAT     H230018   2.003   8.893   4.095
 9926WAT      O30019   0.818   4.007   3.054
 9926WAT     H130020   0.782   4.006   2.960
 9926WAT     H230021   0.917   3.992   3.051
 9927WAT      O30022   3.197   9.245   8.024
 9927WAT     H130023   3.273   9.182   8.036
 9927WAT     H230024   3.232   9.338   8.014
 9928WAT      O30025   4.205   5.838   5.998
 9928WAT     H130026   4.112   5.829   5.963
 9928WAT     H230027   4.207   5.905   6.072
 9929WAT      O30028   8.153   9.090   6.288
 9929WAT     H130029   8.126   9.006   6.240
 9929WAT     H230030   8.223   9.068   6.356
 9930WAT      O30031   1.059   1.217   1.520
 9930WAT     H130032   1.042   1.245   1.614
 9930WAT     H230033   1.092   1.296   1.467
 9931WAT      O30034   4.894   0.209   2.385
 9931WAT     H130035   4.966   0.143   2.362
 9931WAT     H230036   4.922   0.300   2.355
 9932WAT      O30037   8.645   2.796   1.116
 9932WAT     H130038   8.585   2.726   1.077
 9932WAT     H230039   8.723   2.811   1.054
 9933WAT      O30040   0.378   6.366   7.106
 9933WAT     H130041   0.355   6.328   7.016
 9933WAT     H230042   0.461   6.323   7.140
 9934WAT      O30043   4.064   9.245   6.778
 9934WAT     H130044   4.031   9.260   6.871
 9934WAT     H230045   4.141   9.306   6.760
 9935WAT      O30046   1.626   8.490   8.270
 9935WAT     H130047   1.531   8.459   8.271
 9935WAT     H230048   1.631   8.581   8.311
 9936WAT      O30049   2.432   0.437   1.148
 9936WAT     H130050   2.508   0.499   1.127
 9936WAT     H230051   2.345   0.482   1.129
 9937WAT      O30052   8.115   6.041   8.138
 9937WAT     H130053   8.051   6.101   8.187
 9937WAT     H230054   8.125   6.074   8.044
 9938WAT      O30055   3.977   8.385   4.148
 9938WAT     H130056   3.940   8.404   4.058
 9938WAT     H230057   3.908   8.403   4.218
 9939WAT      O30058   0.921   1.234   7.693
 9939WAT     H130059   0.859   1.182   7.752
 9939WAT     H230060   0.870   1.304   7.645
 9940WAT      O30061   6.924   9.272   5.720
 9940WAT     H130062   6.955   9.196   5.778
 9940WAT     H230063   6.991   9.346   5.722
 9941WAT      O30064   7.726   8.500   0.812
 9941WAT     H130065   7.648   8.490   0.750
 9941WAT     H230066   7.758   8.595   0.810
 9942WAT      O30067   8.185   5.252   9.784
 9942WAT     H130068   8.102   5.265   9.730
 9942WAT     H230069   8.216   5.340   9.819
 9943WAT      O30070   3.500   5.873   4.541
 9943WAT     H130071   3.557   5.878   4.624
 9943WAT     H230072   3.413   5.920   4.558
 9944WAT      O30073   7.128   7.167   8.154
 9944WAT     H130074   7.094   7.130   8.068
 9944WAT     H230075   7.187   7.246   8.135
 9945WAT      O30076   1.435   9.619   2.980
 9945WAT     H130077   1.488   9.641   3.062
 9945WAT     H230078   1.478   9.662   2.900
 9946WAT      O30079   0.867   5.849   2.752
 9946WAT     H130080   0.804   5.804   2.690
 9946WAT     H230081   0.952   5.870   2.704
 9947WAT      O30082   1.560   3.598   9.137
 9947WAT     H130083   1.463   3.589   9.161
 9947WAT     H230084   1.590   3.513   9.092
 9948WAT      O30085   4.123   3.744   4.318
 9948WAT     H130086   4.154   3.749   4.223
 9948WAT     H230087   4.066   3.823   4.340
 9949WAT      O30088   5.909   3.621   5.179
 9949WAT     H130089   5.831   3.662   5.227
 9949WAT     H230090   5.937   3.681   5.104
 9950WAT      O30091   0.388   2.032   4.010
 9950WAT     H130092   0.391   1.932   4.013
 9950WAT     H230093   0.299   2.063   4.044
 9951WAT      O30094   8.314   7.286   5.282
 9951WAT     H130095   8.226   7.253   5.317
 9951WAT     H230096   8.383   7.216   5.297
 9952WAT      O30097   5.437   5.178   8.639
 9952WAT     H130098   5.529   5.159   8.674
 9952WAT     H230099   5.389   5.092   8.622
 9953WAT      O30100   1.242   4.817   3.995
 9953WAT     H130101   1.160   4.868   3.966
 9953WAT     H230102   1.258   4.833   4.093
 9954WAT      O30103   3.658   5.885   4.111
 9954WAT     H130104   3.607   5.827   4.175
 9954WAT     H230105   3.608   5.970   4.096
 9955WAT      O30106   4.267   7.518   0.284
 9955WAT     H130107   4.215   7.440   0.319
 9955WAT     H230108   4.325   7.489   0.208
 9956WAT      O30109   9.640   5.851   5.031
 9956WAT     H130110   9.585   5.844   5.115
 9956WAT     H230111   9.597   5.798   4.959
 9957WAT      O30112   7.905   1.006   0.331
 9957WAT     H130113   7.903   0.906   0.331
 9957WAT     H230114   7.862   1.041   0.414
 9958WAT      O30115   0.136   0.074   2.306
 9958WAT     H130116   0.038   0.059   2.325
 9958WAT     H230117   0.186   0.075   2.392
 9959WAT      O30118   0.516   2.009   8.052
 9959WAT     H130119   0.436   1.976   8.002
 9959WAT     H230120   0.599   1.979   8.006
 9960WAT      O30121   0.374   7.762   0.717
 9960WAT     H130122   0.338   7.773   0.810
 9960WAT     H230123   0.453   7.821   0.704
 9961WAT      O30124   1.922   3.660   1.016
 9961WAT     H130125   1.866   3.728   0.969
 9961WAT     H230126   1.882   3.640   1.105
 9962WAT      O30127   7.088   3.101   0.171
 9962WAT     H130128   7.067   3.057   0.083
 9962WAT     H230129   7.029   3.181   0.182
 9963WAT      O30130   3.164   7.489   4.115
 9963WAT     H130131   3.099   7.524   4.048
 9963WAT     H230132   3.248   7.543   4.111
 9964WAT      O30133   8.661   7.482   3.730
 9964WAT     H130134   8.586   7.548   3.723
 9964WAT     H230135   8.625   7.390   3.716
 9965WAT      O30136   7.674   5.646   2.094
 9965WAT     H130137   7.614   5.605   2.163
 9965WAT     H230138   7.621   5.706   2.035
 9966WAT      O30139   1.833   1.659   2.699
 9966WAT     H130140   1.856   1.692   2.790
 9966WAT     H230141   1.827   1.560   2.699
 9967WAT      O30142   9.509   7.338   7.167
 9967WAT     H130143   9.513   7.333   7.067
 9967WAT     H230144   9.434   7.281   7.201
 9968WAT      O30145   6.060   7.446   4.069
 9968WAT     H130146   5.972   7.439   4.023
 9968WAT     H230147   6.084   7.542   4.083
 9969WAT      O30148   2.991   5.455   9.615
 9969WAT     H130149   2.908   5.420   9.571
 9969WAT     H230150   2.967   5.499   9.701
 9970WAT      O30151   4.053   6.733   3.123
 9970WAT     H130152   4.060   6.791   3.204
 9970WAT     H230153   3.982   6.664   3.138
 9971WAT      O30154   7.429   3.749   0.377
 9971WAT     H130155   7.396   3.675   0.319
 9971WAT     H230156   7.354   3.783   0.434
 9972WAT      O30157   5.748   9.669   6.701
 9972WAT     H130158   5.712   9.761   6.684
 9972WAT     H230159   5.673   9.603   6.697
 9973WAT      O30160   6.844   0.246   6.412
 9973WAT     H130161   6.751   0.211   6.405
 9973WAT     H230162   6.857   0.288   6.502
 9974WAT      O30163   0.930   5.501   6.810
 9974WAT     H130164   1.014   5.457   6.841
 9974WAT     H230165   0.908   5.578   6.870
 9975WAT      O30166   4.724   3.982   6.656
 9975WAT     H130167   4.812   4.025   6.675
 9975WAT     H230168   4.706   3.912   6.725
 9976WAT      O30169   1.978   0.616   3.434
 9976WAT     H130170   2.053   0.670   3.471
 9976WAT     H230171   2.007   0.571   3.350
 9977WAT      O30172   6.903   3.511   2.863
 9977WAT     H130173   6.945   3.422   2.845
 9977WAT     H230174   6.929   3.542   2.954
 9978WAT      O30175   7.743   5.275   9.327
 9978WAT     H130176   7.718   5.369   9.350
 9978WAT     H230177   7.661   5.222   9.308
 9979WAT      O30178   9.270   8.413   7.537
 9979WAT     H130179   9.305   8.414   7.630
 9979WAT     H230180   9.341   8.445   7.474
 9980WAT      O30181   8.869   0.428   5.717
 9980WAT     H130182   8.916   0.395   5.635
 9980WAT     H230183   8.874   0.528   5.719
 9981WAT      O30184   5.350   7.902   0.144
 9981WAT     H130185   5.323   7.991   0.107
 9981WAT     H230186   5.293   7.881   0.223
 9982WAT      O30187   1.687   8.117   3.589
 9982WAT     H130188   1.664   8.099   3.685
 9982WAT     H230189   1.785   8.102   3.575
 9983WAT      O30190   6.656   6.824   8.573
 9983WAT     H130191   6.566   6.811   8.614
 9983WAT     H230192   6.720   6.855   8.644
 9984WAT      O30193   0.426   2.183   7.685
 9984WAT     H130194   0.506   2.134   7.649
 9984WAT     H230195   0.354   2.117   7.708
 9985WAT      O30196   2.972   6.184   4.219
 9985WAT     H130197   2.924   6.161   4.304
 9985WAT     H230198   2.951   6.115   4.149
 9986WAT      O30199   3.700   3.998   9.010
 9986WAT     H130200   3.755   4.073   8.973
 9986WAT     H230201   3.727   3.980   9.105
 9987WAT      O30202   4.980   7.997   8.689
 9987WAT     H130203   4.926   7.944   8.754
 9987WAT     H230204   5.070   8.016   8.728
 9988WAT      O30205   5.160   8.516   6.352
 9988WAT     H130206   5.164   8.439   6.287
 9988WAT     H230207   5.110   8.488   6.434
 9989WAT      O30208   6.533   0.779   0.531
 9989WAT     H130209   6.503   0.684   0.542
 9989WAT     H230210   6.522   0.828   0.618
 9990WAT      O30211   8.013   7.566   7.164
 9990WAT     H130212   7.940   7.545   7.229
 9990WAT     H230213   8.099   7.529   7.197
 9991WAT      O30214   0.769   2.685   8.230
 9991WAT     H130215   0.765   2.783   8.249
 9991WAT     H230216   0.863   2.660   8.205
 9992WAT      O30217   0.459   7.629   7.220
 9992WAT     H130218   0.462   7.582   7.308
 9992WAT     H230219   0.371   7.675   7.210
 9993WAT      O30220   7.478   5.553   7.340
 9993WAT     H130221   7.541   5.609   7.288
 9993WAT     H230222   7.425   5.610   7.402
 9994WAT      O30223   0.867   5.164   0.075
 9994WAT     H130224   0.914   5.078   0.053
 9994WAT     H230225   0.784   5.171   0.020
 9995WAT      O30226   6.629   2.869   6.280
 9995WAT     H130227   6.534   2.865   6.311
 9995WAT     H230228   6.690   2.845   6.355
 9996WAT      O30229   0.771   8.334   0.080
 9996WAT     H130230   0.797   8.426   0.110
 9996WAT     H230231   0.700   8.299   0.141
 9997WAT      O30232   6.622   2.579   8.566
 9997WAT     H130233   6.645   2.547   8.474
 9997WAT     H230234   6.686   2.540   8.632
 9998WAT      O30235   6.665   0.503   4.036
 9998WAT     H130236   6.736   0.525   4.102
 9998WAT     H230237   6.705   0.456   3.957
 9999WAT      O30238   5.485   0.633   2.626
 9999WAT     H130239   5.456   0.622   2.721
 9999WAT     H230240   5.557   0.702   2.622
10000WAT      O30241   7.970   6.577   7.704
10000WAT     H130242   8.015   6.539   7.785
10000WAT     H230243   7.883   6.529   7.689
10001WAT      O30244   5.525   1.866   6.354
10001WAT     H130245   5.536   1.920   6.437
10001WAT     H230246   5.612   1.862   6.305
10002WAT      O30247   9.638   1.248   4.976
10002WAT     H130248   9.682   1.335   4.997
10002WAT     H230249   9.657   1.182   5.049
10003WAT      O30250   5.591   4.263   5.410
10003WAT     H130251   5.602   4.259   5.509
10003WAT     H230252   5.577   4.358   5.382
10004WAT      O30253   3.421   6.862   8.264
10004WAT     H130254   3.474   6.790   8.309
10004WAT     H230255   3.342   6.884   8.320
10005WAT      O30256   6.042   1.811   7.854
10005WAT     H130257   5.945   1.824   7.836
10005WAT     H230258   6.088   1.900   7.854
10006WAT      O30259   9.108   4.348   4.995
10006WAT     H130260   9.153   4.435   4.975
10006WAT     H230261   9.173   4.273   4.981
10007WAT      O30262   6.143   3.583   3.037
10007WAT     H130263   6.224   3.624   3.079
10007WAT     H230264   6.085   3.543   3.108
10008WAT      O30265   8.170   1.228   4.564
10008WAT     H130266   8.173   1.265   4.471
10008WAT     H230267   8.078   1.241   4.602
10009WAT      O30268   6.526   6.337   1.381
10009WAT     H130269   6.507   6.253   1.433
10009WAT     H230270   6.440   6.381   1.356
10010WAT      O30271   5.124   1.802   5.070
10010WAT     H130272   5.189   1.798   4.994
10010WAT     H230273   5.046   1.743   5.051
10011WAT      O30274   9.751   5.555   2.321
10011WAT     H130275   9.757   5.654   2.335
10011WAT     H230276   9.763   5.509   2.409
10012WAT      O30277   5.983   5.050   1.079
10012WAT     H130278   5.955   5.140   1.113
10012WAT     H230279   5.974   4.983   1.152
10013WAT      O30280   7.767   0.456   8.415
10013WAT     H130281   7.832   0.390   8.378
10013WAT     H230282   7.686   0.408   8.449
10014WAT      O30283   8.466   4.577   5.314
10014WAT     H130284   8.374   4.543   5.297
10014WAT     H230285   8.462   4.676   5.330
10015WAT      O30286   4.940   2.273   1.994
10015WAT     H130287   5.006   2.268   1.919
10015WAT     H230288   4.967   2.210   2.066
10016WAT      O30289   7.554   6.756   0.826
10016WAT     H130290   7.622   6.821   0.793
10016WAT     H230291   7.551   6.757   0.926
10017WAT      O30292   0.804   4.910   2.087
10017WAT     H130293   0.757   4.955   2.163
10017WAT     H230294   0.830   4.818   2.114
10018WAT      O30295   4.032   7.559   7.034
10018WAT     H130296   3.952   7.616   7.015
10018WAT     H230297   4.003   7.463   7.040
10019WAT      O30298   1.164   1.842   4.371
10019WAT     H130299   1.162   1.804   4.463
10019WAT     H230300   1.235   1.796   4.317
10020WAT      O30301   6.598   7.787   0.446
10020WAT     H130302   6.693   7.754   0.447
10020WAT     H230303   6.560   7.783   0.538
10021WAT      O30304   3.411   7.264   4.314
10021WAT     H130305   3.349   7.187   4.328
10021WAT     H230306   3.415   7.319   4.398
10022WAT      O30307   7.180   9.590   6.551
10022WAT     H130308   7.267   9.541   6.557
10022WAT     H230309   7.106   9.532   6.584
10023WAT      O30310   2.087   2.523   7.982
10023WAT     H130311   1.987   2.526   7.971
10023WAT     H230312   2.118   2.428   7.973
10024WAT      O30313   5.767   9.261   4.491
10024WAT     H130314   5.714   9.198   4.435
10024WAT     H230315   5.705   9.317   4.546
10025WAT      O30316   2.436   0.045   7.674
10025WAT     H130317   2.368  -0.028   7.680
10025WAT     H230318   2.397   0.122   7.623
10026WAT      O30319   2.574   6.402   1.700
10026WAT     H130320   2.644   6.334   1.678
10026WAT     H230321   2.587   6.434   1.794
10027WAT      O30322   1.953   7.582   7.709
10027WAT     H130323   1.898   7.561   7.628
10027WAT     H230324   1.937   7.511   7.778
10028WAT      O30325   2.485   2.793   5.090
10028WAT     H130326   2.458   2.882   5.127
10028WAT     H230327   2.572   2.766   5.129
10029WAT      O30328   1.589   3.205   4.608
10029WAT     H130329   1.616   3.247   4.521
10029WAT     H230330   1.633   3.255   4.683
10030WAT      O30331   4.382   8.009   2.884
10030WAT     H130332   4.364   8.098   2.925
10030WAT     H230333   4.312   7.989   2.815
10031WAT      O30334   4.290   2.269   0.947
10031WAT     H130335   4.209   2.328   0.943
10031WAT     H230336   4.320   2.261   1.042
10032WAT      O30337   4.130   1.422   1.196
10032WAT     H130338   4.205   1.404   1.133
10032WAT     H230339   4.066   1.345   1.195
10033WAT      O30340   0.668   4.249   0.859
10033WAT     H130341   0.688   4.288   0.769
10033WAT     H230342   0.582   4.286   0.893
10034WAT      O30343   4.336   1.299   1.010
10034WAT     H130344   4.414   1.267   1.063
10034WAT     H230345   4.368   1.364   0.940
10035WAT      O30346   5.487   2.080   8.476
10035WAT     H130347   5.437   2.110   8.395
10035WAT     H230348   5.488   2.153   8.544
10036WAT      O30349   6.208   1.429   4.229
10036WAT     H130350   6.201   1.360   4.301
10036WAT     H230351   6.271   1.398   4.158
10037WAT      O30352   0.886   0.161   8.780
10037WAT     H130353   0.985   0.153   8.789
10037WAT     H230354   0.847   0.069   8.769
10038WAT      O30355   3.749   2.619   8.765
10038WAT     H130356   3.663   2.649   8.722
10038WAT     H230357   3.809   2.698   8.779
10039WAT      O30358   5.719   2.237   9.502
10039WAT     H130359   5.707   2.158   9.561
10039WAT     H230360   5.805   2.283   9.523
10040WAT      O30361   2.518   2.576   8.428
10040WAT     H130362   2.563   2.662   8.452
10040WAT     H230363   2.509   2.569   8.328
10041WAT      O30364   8.141   0.896   4.592
10041WAT     H130365   8.188   0.975   4.631
10041WAT     H230366   8.200   0.853   4.523
10042WAT      O30367   9.865   2.389   1.331
10042WAT     H130368   9.821   2.449   1.264
10042WAT     H230369   9.948   2.432   1.365
10043WAT      O30370   0.658   2.273   1.764
10043WAT     H130371   0.716   2.191   1.763
10043WAT     H230372   0.592   2.266   1.839
10044WAT      O30373   0.788   0.806   8.317
10044WAT     H130374   0.739   0.846   8.394
10044WAT     H230375   0.807   0.710   8.336
10045WAT      O30376   2.984   2.861   1.642
10045WAT     H130377   2.914   2.907   1.697
10045WAT     H230378   2.994   2.766   1.673
10046WAT      O30379   8.074   1.374   6.693
10046WAT     H130380   8.079   1.467   6.730
10046WAT     H230381   8.117   1.371   6.603
10047WAT      O30382   6.393   3.435   3.958
10047WAT     H130383   6.337   3.518   3.953
10047WAT     H230384   6.484   3.453   3.920
10048WAT      O30385   6.576   5.641   6.959
10048WAT     H130386   6.629   5.676   7.036
10048WAT     H230387   6.531   5.556   6.986
10049WAT      O30388   6.512   4.335   4.054
10049WAT     H130389   6.423   4.374   4.028
10049WAT     H230390   6.498   4.262   4.121
10050WAT      O30391   6.994   8.157   7.902
10050WAT     H130392   6.959   8.072   7.943
10050WAT     H230393   7.092   8.165   7.920
10051WAT      O30394   5.234   8.750   0.568
10051WAT     H130395   5.177   8.743   0.649
10051WAT     H230396   5.185   8.800   0.497
10052WAT      O30397   8.242   9.019   1.636
10052WAT     H130398   8.221   9.050   1.729
10052WAT     H230399   8.180   9.064   1.571
10053WAT      O30400   2.146   2.030   7.883
10053WAT     H130401   2.114   1.980   7.963
10053WAT     H230402   2.205   2.106   7.912
10054WAT      O30403   2.441   3.281   9.473
10054WAT     H130404   2.490   3.249   9.392
10054WAT     H230405   2.470   3.374   9.495
10055WAT      O30406   2.417   3.164   1.280
10055WAT     H130407   2.362   3.103   1.336
10055WAT     H230408   2.510   3.170   1.318
10056WAT      O30409   3.521   6.598   7.399
10056WAT     H130410   3.612   6.556   7.388
10056WAT     H230411   3.464   6.540   7.457
10057WAT      O30412   3.882   4.705   5.412
10057WAT     H130413   3.936   4.761   5.350
10057WAT     H230414   3.841   4.629   5.360
10058WAT      O30415   6.905   4.589   9.035
10058WAT     H130416   6.982   4.652   9.028
10058WAT     H230417   6.849   4.613   9.114
10059WAT      O30418   6.229   1.296   2.267
10059WAT     H130419   6.284   1.220   2.302
10059WAT     H230420   6.172   1.332   2.340
10060WAT      O30421   3.491   3.990   2.115
10060WAT     H130422   3.414   3.955   2.169
10060WAT     H230423   3.559   3.917   2.102
10061WAT      O30424   6.514   8.182   0.214
10061WAT     H130425   6.445   8.254   0.222
10061WAT     H230426   6.540   8.171   0.118
10062WAT      O30427   6.266   4.683   8.544
10062WAT     H130428   6.177   4.659   8.505
10062WAT     H230429   6.255   4.761   8.606
10063WAT      O30430   9.438   7.664   2.011
10063WAT     H130431   9.491   7.584   1.984
10063WAT     H230432   9.424   7.723   1.931
10064WAT      O30433   8.664   0.653   3.704
10064WAT     H130434   8.690   0.737   3.752
10064WAT     H230435   8.632   0.676   3.612
10065WAT      O30436   5.173   5.252   6.522
10065WAT     H130437   5.129   5.301   6.447
10065WAT     H230438   5.205   5.163   6.491
10066WAT      O30439   7.366   9.036   9.220
10066WAT     H130440   7.354   8.943   9.186
10066WAT     H230441   7.411   9.092   9.151
10067WAT      O30442   1.798   9.825   3.761
10067WAT     H130443   1.887   9.868   3.743
10067WAT     H230444   1.811   9.745   3.820
10068WAT      O30445   7.248   4.476   3.100
10068WAT     H130446   7.341   4.487   3.137
10068WAT     H230447   7.230   4.379   3.083
10069WAT      O30448   5.989   4.437   5.898
10069WAT     H130449   6.057   4.422   5.970
10069WAT     H230450   6.011   4.380   5.819
10070WAT      O30451   1.396   8.843   4.831
10070WAT     H130452   1.437   8.814   4.744
10070WAT     H230453   1.298   8.823   4.830
10071WAT      O30454   6.111   1.979   0.623
10071WAT     H130455   6.013   1.972   0.603
10071WAT     H230456   6.123   2.025   0.711
10072WAT      O30457   5.652   6.237   2.973
10072WAT     H130458   5.736   6.201   2.933
10072WAT     H230459   5.573   6.198   2.926
10073WAT      O30460   4.668   5.168   5.189
10073WAT     H130461   4.657   5.091   5.127
10073WAT     H230462   4.752   5.218   5.167
10074WAT      O30463   0.142   5.801   0.984
10074WAT     H130464   0.116   5.710   1.014
10074WAT     H230465   0.106   5.817   0.892
10075WAT      O30466   8.103   3.569   5.533
10075WAT     H130467   8.158   3.639   5.488
10075WAT     H230468   8.021   3.551   5.479
10076WAT      O30469   1.779   6.803   3.913
10076WAT     H130470   1.808   6.752   3.994
10076WAT     H230471   1.818   6.895   3.915
10077WAT      O30472   0.621   6.392   1.905
10077WAT     H130473   0.717   6.367   1.914
10077WAT     H230474   0.566   6.310   1.889
10078WAT      O30475   6.421   3.825   5.931
10078WAT     H130476   6.518   3.820   5.906
10078WAT     H230477   6.410   3.887   6.009
10079WAT      O30478   6.768   6.005   6.730
10079WAT     H130479   6.785   5.917   6.685
10079WAT     H230480   6.751   6.075   6.660
10080WAT      O30481   3.027   4.673   0.633
10080WAT     H130482   3.041   4.703   0.728
10080WAT     H230483   2.945   4.616   0.628
10081WAT      O30484   3.802   2.481   0.404
10081WAT     H130485   3.813   2.580   0.391
10081WAT     H230486   3.884   2.434   0.372
10082WAT      O30487   3.137   8.777   8.844
10082WAT     H130488   3.118   8.874   8.857
10082WAT     H230489   3.090   8.724   8.915
10083WAT      O30490   3.432   2.892   4.783
10083WAT     H130491   3.519   2.935   4.758
10083WAT     H230492   3.357   2.957   4.769
10084WAT      O30493   8.816   2.602   1.572
10084WAT     H130494   8.820   2.624   1.670
10084WAT     H230495   8.899   2.552   1.546
10085WAT      O30496   4.561   2.282   6.371
10085WAT     H130497   4.468   2.252   6.350
10085WAT     H230498   4.626   2.221   6.326
10086WAT      O30499   5.871   2.154   4.074
10086WAT     H130500   5.964   2.119   4.077
10086WAT     H230501   5.854   2.211   4.154
10087WAT      O30502   6.184   6.406   0.714
10087WAT     H130503   6.243   6.348   0.770
10087WAT     H230504   6.234   6.438   0.634
10088WAT      O30505   2.638   9.450   6.227
10088WAT     H130506   2.699   9.495   6.161
10088WAT     H230507   2.622   9.511   6.305
10089WAT      O30508   1.473   6.272   0.630
10089WAT     H130509   1.470   6.174   0.651
10089WAT     H230510   1.529   6.287   0.549
10090WAT      O30511   4.476   2.114   4.876
10090WAT     H130512   4.466   2.086   4.781
10090WAT     H230513   4.454   2.037   4.936
10091WAT      O30514   9.546   6.000   6.541
10091WAT     H130515   9.512   5.907   6.554
10091WAT     H230516   9.604   6.025   6.619
10092WAT      O30517   3.303   1.407   1.105
10092WAT     H130518   3.375   1.388   1.038
10092WAT     H230519   3.320   1.495   1.149
10093WAT      O30520   9.154   0.277   0.185
10093WAT     H130521   9.118   0.370   0.180
10093WAT     H230522   9.083   0.212   0.157
10094WAT      O30523   2.288   5.033   3.443
10094WAT     H130524   2.194   5.068   3.437
10094WAT     H230525   2.286   4.939   3.477
10095WAT      O30526   9.002   0.759   7.531
10095WAT     H130527   8.990   0.660   7.539
10095WAT     H230528   9.010   0.783   7.434
10096WAT      O30529   3.577   9.540   0.404
10096WAT     H130530   3.519   9.461   0.425
10096WAT     H230531   3.551   9.617   0.462
10097WAT      O30532   0.547   5.398   0.339
10097WAT     H130533   0.628   5.450   0.368
10097WAT     H230534   0.545   5.392   0.239
10098WAT      O30535   8.280   4.726   8.776
10098WAT     H130536   8.358   4.674   8.741
10098WAT     H230537   8.204   4.663   8.794
10099WAT      O30538   4.918   7.790   0.578
10099WAT     H130539   4.908   7.884   0.613
10099WAT     H230540   4.995   7.746   0.624
10100WAT      O30541   2.205   6.381   8.717
10100WAT     H130542   2.142   6.419   8.784
10100WAT     H230543   2.154   6.340   8.642
10101WAT      O30544   9.814   9.534   9.643
10101WAT     H130545   9.787   9.516   9.548
10101WAT     H230546   9.854   9.452   9.683
10102WAT      O30547   4.453   8.732   1.156
10102WAT     H130548   4.454   8.664   1.082
10102WAT     H230549   4.436   8.823   1.116
10103WAT      O30550   2.939   6.298   4.614
10103WAT     H130551   2.943   6.200   4.597
10103WAT     H230552   2.846   6.324   4.639
10104WAT      O30553   6.345   0.334   2.967
10104WAT     H130554   6.280   0.318   2.892
10104WAT     H230555   6.427   0.278   2.952
10105WAT      O30556   0.790   3.551   6.658
10105WAT     H130557   0.815   3.551   6.755
10105WAT     H230558   0.819   3.465   6.616
10106WAT      O30559   1.156   0.824   3.148
10106WAT     H130560   1.128   0.800   3.055
10106WAT     H230561   1.245   0.870   3.145
10107WAT      O30562   3.074   1.624   6.116
10107WAT     H130563   3.012   1.621   6.195
10107WAT     H230564   3.167   1.642   6.147
10108WAT      O30565   4.045   2.399   1.032
10108WAT     H130566   4.042   2.493   1.000
10108WAT     H230567   4.003   2.393   1.122
10109WAT      O30568   0.355   8.657   4.913
10109WAT     H130569   0.361   8.686   5.009
10109WAT     H230570   0.447   8.654   4.873
10110WAT      O30571   9.401   4.144   7.437
10110WAT     H130572   9.377   4.111   7.529
10110WAT     H230573   9.499   4.160   7.432
10111WAT      O30574   4.006   3.642   8.648
10111WAT     H130575   4.058   3.609   8.726
10111WAT     H230576   3.947   3.718   8.675
10112WAT      O30577   7.759   0.030   2.022
10112WAT     H130578   7.854   0.011   2.048
10112WAT     H230579   7.710  -0.056   2.008
10113WAT      O30580   7.410   4.621   2.488
10113WAT     H130581   7.478   4.642   2.558
10113WAT     H230582   7.408   4.522   2.473
10114WAT      O30583   4.615   2.612   7.493
10114WAT     H130584   4.517   2.630   7.490
10114WAT     H230585   4.665   2.699   7.497
10115WAT      O30586   7.013   5.502   6.457
10115WAT     H130587   7.026   5.600   6.472
10115WAT     H230588   6.928   5.473   6.501
10116WAT      O30589   2.302   2.452   5.983
10116WAT     H130590   2.244   2.415   6.056
10116WAT     H230591   2.390   2.480   6.021
10117WAT      O30592   1.122   0.670   4.778
10117WAT     H130593   1.215   0.651   4.808
10117WAT     H230594   1.095   0.605   4.707
10118WAT      O30595   9.238   5.043   5.128
10118WAT     H130596   9.232   5.003   5.219
10118WAT     H230597   9.333   5.071   5.110
10119WAT      O30598   7.845   5.797   4.865
10119WAT     H130599   7.863   5.722   4.929
10119WAT     H230600   7.841   5.884   4.915
10120WAT      O30601   2.635   1.699   1.817
10120WAT     H130602   2.716   1.729   1.869
10120WAT     H230603   2.590   1.625   1.866
10121WAT      O30604   3.828   8.464   5.176
10121WAT     H130605   3.898   8.486   5.108
10121WAT     H230606   3.834   8.367   5.198
10122WAT      O30607   5.304   7.017   6.714
10122WAT     H130608   5.358   6.966   6.647
10122WAT     H230609   5.329   7.114   6.710
10123WAT      O30610   5.975   4.422   4.655
10123WAT     H130611   6.021   4.389   4.572
10123WAT     H230612   6.001   4.364   4.732
10124WAT      O30613   9.825   9.635   8.383
10124WAT     H130614   9.891   9.665   8.314
10124WAT     H230615   9.756   9.706   8.396
10125WAT      O30616   8.352   7.610   0.285
10125WAT     H130617   8.309   7.534   0.236
10125WAT     H230618   8.432   7.642   0.235
10126WAT      O30619   6.931   1.987   0.766
10126WAT     H130620   6.892   2.076   0.742
10126WAT     H230621   6.873   1.942   0.834
10127WAT      O30622   1.274   8.577   9.049
10127WAT     H130623   1.236   8.492   9.087
10127WAT     H230624   1.360   8.598   9.096
10128WAT      O30625   0.494   9.789   2.067
10128WAT     H130626   0.527   9.706   2.113
10128WAT     H230627   0.479   9.861   2.135
10129WAT      O30628   1.730   8.620   1.743
10129WAT     H130629   1.702   8.707   1.702
10129WAT     H230630   1.824   8.600   1.716
10130WAT      O30631   0.914   2.487   9.805
10130WAT     H130632   0.874   2.472   9.715
10130WAT     H230633   0.850   2.539   9.862
10131WAT      O30634   8.163   5.086   0.378
10131WAT     H130635   8.247   5.139   0.388
10131WAT     H230636   8.125   5.101   0.287
10132WAT      O30637   9.451   9.796   7.914
10132WAT     H130638   9.523   9.775   7.980
10132WAT     H230639   9.459   9.736   7.835
10133WAT      O30640   5.607   6.440   6.757
10133WAT     H130641   5.576   6.534   6.766
10133WAT     H230642   5.685   6.424   6.817
10134WAT      O30643   9.298   4.037   9.348
10134WAT     H130644   9.206   4.073   9.365
10134WAT     H230645   9.315   4.034   9.250
10135WAT      O30646   0.787   4.719   8.970
10135WAT     H130647   0.756   4.656   8.899
10135WAT     H230648   0.886   4.712   8.979
10136WAT      O30649   6.385   1.076   5.786
10136WAT     H130650   6.343   1.065   5.876
10136WAT     H230651   6.335   1.145   5.734
10137WAT      O30652   6.252   3.712   6.780
10137WAT     H130653   6.268   3.617   6.752
10137WAT     H230654   6.337   3.753   6.813
10138WAT      O30655   3.958   6.015   0.502
10138WAT     H130656   3.934   6.035   0.597
10138WAT     H230657   3.955   5.917   0.487
10139WAT      O30658   2.613   1.261   1.301
10139WAT     H130659   2.665   1.209   1.368
10139WAT     H230660   2.520   1.224   1.295
10140WAT      O30661   6.288   0.504   8.234
10140WAT     H130662   6.310   0.452   8.316
10140WAT     H230663   6.190   0.525   8.233
10141WAT      O30664   4.544   0.227   9.222
10141WAT     H130665   4.643   0.237   9.237
10141WAT     H230666   4.504   0.173   9.296
10142WAT      O30667   3.198   9.031   1.016
10142WAT     H130668   3.196   9.066   1.109
10142WAT     H230669   3.237   9.100   0.955
10143WAT      O30670   7.249   8.151   7.951
10143WAT     H130671   7.292   8.078   8.005
10143WAT     H230672   7.305   8.170   7.871
10144WAT      O30673   9.573   2.419   0.610
10144WAT     H130674   9.625   2.339   0.582
10144WAT     H230675   9.477   2.393   0.622
10145WAT      O30676   5.800   7.735   9.155
10145WAT     H130677   5.771   7.664   9.219
10145WAT     H230678   5.789   7.702   9.061
10146WAT      O30679   2.824   1.879   8.227
10146WAT     H130680   2.782   1.835   8.148
10146WAT     H230681   2.889   1.816   8.270
10147WAT      O30682   4.291   3.372   0.800
10147WAT     H130683   4.282   3.299   0.868
10147WAT     H230684   4.201   3.410   0.779
10148WAT      O30685   2.030   8.793   2.589
10148WAT     H130686   1.993   8.851   2.516
10148WAT     H230687   2.117   8.755   2.560
10149WAT      O30688   0.554   7.800   4.025
10149WAT     H130689   0.494   7.874   3.994
10149WAT     H230690   0.544   7.721   3.964
10150WAT      O30691   0.381   1.923   8.780
10150WAT     H130692   0.369   1.870   8.696
10150WAT     H230693   0.337   2.013   8.769
10151WAT      O30694   6.429   7.250   1.746
10151WAT     H130695   6.367   7.257   1.668
10151WAT     H230696   6.379   7.268   1.830
10152WAT      O30697   6.132   4.398   9.729
10152WAT     H130698   6.182   4.351   9.655
10152WAT     H230699   6.159   4.358   9.817
10153WAT      O30700   9.326   5.164   5.798
10153WAT     H130701   9.245   5.183   5.743
10153WAT     H230702   9.369   5.079   5.768
10154WAT      O30703   9.313   8.946   8.435
10154WAT     H130704   9.302   8.959   8.336
10154WAT     H230705   9.233   8.898   8.470
10155WAT      O30706   5.621   0.320   3.862
10155WAT     H130707   5.711   0.288   3.833
10155WAT     H230708   5.610   0.304   3.960
10156WAT      O30709   8.170   0.921   3.293
10156WAT     H130710   8.160   1.020   3.298
10156WAT     H230711   8.149   0.880   3.381
10157WAT      O30712   4.691   6.981   4.155
10157WAT     H130713   4.597   6.949   4.168
10157WAT     H230714   4.698   7.029   4.067
10158WAT      O30715   3.084   2.770   6.527
10158WAT     H130716   3.126   2.837   6.588
10158WAT     H230717   3.022   2.816   6.463
10159WAT      O30718   3.510   9.743   7.795
10159WAT     H130719   3.571   9.663   7.795
10159WAT     H230720   3.439   9.730   7.726
10160WAT      O30721   6.817   2.971   7.269
10160WAT     H130722   6.765   3.014   7.195
10160WAT     H230723   6.769   2.889   7.300
10161WAT      O30724   6.722   8.533   8.469
10161WAT     H130725   6.815   8.509   8.499
10161WAT     H230726   6.708   8.500   8.375
10162WAT      O30727   4.757   1.555   4.007
10162WAT     H130728   4.757   1.515   3.915
10162WAT     H230729   4.669   1.597   4.026
10163WAT      O30730   1.277   9.510   8.610
10163WAT     H130731   1.331   9.466   8.682
10163WAT     H230732   1.310   9.480   8.521
10164WAT      O30733   3.304   7.448   3.580
10164WAT     H130734   3.328   7.352   3.563
10164WAT     H230735   3.235   7.476   3.513
10165WAT      O30736   1.574   9.762   6.306
10165WAT     H130737   1.510   9.717   6.367
10165WAT     H230738   1.537   9.764   6.213
10166WAT      O30739   7.738   4.505   4.870
10166WAT     H130740   7.669   4.497   4.942
10166WAT     H230741   7.753   4.602   4.849
10167WAT      O30742   3.605   7.415   2.385
10167WAT     H130743   3.670   7.385   2.316
10167WAT     H230744   3.553   7.336   2.418
10168WAT      O30745   0.637   1.796   3.373
10168WAT     H130746   0.713   1.858   3.389
10168WAT     H230747   0.626   1.781   3.275
10169WAT      O30748   1.485   1.683   6.629
10169WAT     H130749   1.581   1.709   6.637
10169WAT     H230750   1.474   1.614   6.558
10170WAT      O30751   3.386   2.469   0.636
10170WAT     H130752   3.480   2.445   0.659
10170WAT     H230753   3.385   2.547   0.573
10171WAT      O30754   7.235   9.111   5.153
10171WAT     H130755   7.158   9.167   5.184
10171WAT     H230756   7.320   9.161   5.170
10172WAT      O30757   7.095   3.123   3.236
10172WAT     H130758   7.115   3.026   3.222
10172WAT     H230759   7.133   3.176   3.161
10173WAT      O30760   3.744   0.684   5.279
10173WAT     H130761   3.749   0.619   5.203
10173WAT     H230762   3.747   0.633   5.366
10174WAT      O30763   9.391   2.453   8.599
10174WAT     H130764   9.356   2.381   8.539
10174WAT     H230765   9.342   2.449   8.687
10175WAT      O30766   5.029   4.107   2.895
10175WAT     H130767   5.087   4.154   2.962
10175WAT     H230768   5.085   4.046   2.840
10176WAT      O30769   2.016   3.309   7.321
10176WAT     H130770   2.086   3.364   7.275
10176WAT     H230771   2.003   3.342   7.414
10177WAT      O30772   4.828   4.568   3.398
10177WAT     H130773   4.921   4.560   3.434
10177WAT     H230774   4.830   4.617   3.311
10178WAT      O30775   9.247   3.275   9.787
10178WAT     H130776   9.213   3.185   9.812
10178WAT     H230777   9.347   3.278   9.799
10179WAT      O30778   7.310   7.287   7.128
10179WAT     H130779   7.251   7.208   7.115
10179WAT     H230780   7.389   7.261   7.184
10180WAT      O30781   3.432   2.422   7.723
10180WAT     H130782   3.471   2.340   7.681
10180WAT     H230783   3.370   2.467   7.659
10181WAT      O30784   6.625   9.410   7.838
10181WAT     H130785   6.619   9.444   7.932
10181WAT     H230786   6.582   9.476   7.777
10182WAT      O30787   0.877   5.933   5.898
10182WAT     H130788   0.966   5.889   5.888
10182WAT     H230789   0.838   5.910   5.987
10183WAT      O30790   7.678   2.254   2.791
10183WAT     H130791   7.717   2.290   2.707
10183WAT     H230792   7.717   2.163   2.809
10184WAT      O30793   1.513   0.912   3.713
10184WAT     H130794   1.417   0.899   3.738
10184WAT     H230795   1.534   0.859   3.631
10185WAT      O30796   6.603   9.646   8.795
10185WAT     H130797   6.642   9.731   8.830
10185WAT     H230798   6.604   9.648   8.695
10186WAT      O30799   3.478   4.258   6.447
10186WAT     H130800   3.567   4.292   6.479
10186WAT     H230801   3.420   4.239   6.526
10187WAT      O30802   4.878   6.613   9.124
10187WAT     H130803   4.860   6.603   9.222
10187WAT     H230804   4.943   6.543   9.095
10188WAT      O30805   6.666   2.789   8.752
10188WAT     H130806   6.644   2.726   8.678
10188WAT     H230807   6.667   2.883   8.716
10189WAT      O30808   9.038   1.757   0.117
10189WAT     H130809   8.976   1.717   0.184
10189WAT     H230810   9.003   1.738   0.025
10190WAT      O30811   9.573   3.175   5.432
10190WAT     H130812   9.671   3.193   5.435
10190WAT     H230813   9.528   3.217   5.510
10191WAT      O30814   0.864   7.167   6.057
10191WAT     H130815   0.842   7.259   6.025
10191WAT     H230816   0.906   7.114   5.982
10192WAT      O30817   0.163   7.132   4.752
10192WAT     H130818   0.242   7.194   4.755
10192WAT     H230819   0.180   7.059   4.686
10193WAT      O30820   5.350   2.056   8.913
10193WAT     H130821   5.448   2.039   8.898
10193WAT     H230822   5.297   1.980   8.875
10194WAT      O30823   9.526   7.639   7.491
10194WAT     H130824   9.522   7.632   7.392
10194WAT     H230825   9.576   7.561   7.528
10195WAT      O30826   9.473   8.232   0.427
10195WAT     H130827   9.397   8.255   0.366
10195WAT     H230828   9.538   8.173   0.380
10196WAT      O30829   2.051   9.509   8.869
10196WAT     H130830   2.028   9.458   8.952
10196WAT     H230831   1.998   9.594   8.867
10197WAT      O30832   7.745   4.576   3.295
10197WAT     H130833   7.703   4.637   3.363
10197WAT     H230834   7.711   4.599   3.204
10198WAT      O30835   2.487   3.265   9.748
10198WAT     H130836   2.574   3.227   9.780
10198WAT     H230837   2.486   3.266   9.648
10199WAT      O30838   5.049   2.638   4.703
10199WAT     H130839   4.989   2.645   4.783
10199WAT     H230840   5.118   2.567   4.719
10200WAT      O30841   9.725   8.144   3.081
10200WAT     H130842   9.797   8.211   3.060
10200WAT     H230843   9.761   8.077   3.147
10201WAT      O30844   2.787   8.717   4.421
10201WAT     H130845   2.767   8.657   4.498
10201WAT     H230846   2.712   8.713   4.355
10202WAT      O30847   8.142   8.356   9.681
10202WAT     H130848   8.105   8.325   9.768
10202WAT     H230849   8.242   8.354   9.685
10203WAT      O30850   6.675   4.504   2.763
10203WAT     H130851   6.720   4.553   2.837
10203WAT     H230852   6.676   4.560   2.680
10204WAT      O30853   2.414   0.197   7.126
10204WAT     H130854   2.485   0.130   7.150
10204WAT     H230855   2.400   0.196   7.027
10205WAT      O30856   0.881   1.723   8.386
10205WAT     H130857   0.925   1.651   8.332
10205WAT     H230858   0.781   1.712   8.381
10206WAT      O30859   2.449   4.254   8.254
10206WAT     H130860   2.387   4.333   8.252
10206WAT     H230861   2.542   4.284   8.233
10207WAT      O30862   5.708   9.264   1.781
10207WAT     H130863   5.672   9.277   1.873
10207WAT     H230864   5.808   9.254   1.786
10208WAT      O30865   4.605   6.606   4.459
10208WAT     H130866   4.662   6.683   4.429
10208WAT     H230867   4.514   6.640   4.483
10209WAT      O30868   3.848   7.268   5.396
10209WAT     H130869   3.754   7.243   5.375
10209WAT     H230870   3.898   7.187   5.427
10210WAT      O30871   0.717   7.233   6.317
10210WAT     H130872   0.794   7.188   6.271
10210WAT     H230873   0.752   7.293   6.390
10211WAT      O30874   4.322   5.164   1.563
10211WAT     H130875   4.354   5.251   1.525
10211WAT     H230876   4.286   5.179   1.655
10212WAT      O30877   0.073   7.476   2.221
10212WAT     H130878   0.146   7.460   2.154
10212WAT     H230879   0.114   7.500   2.309
10213WAT      O30880   3.819   7.870   5.045
10213WAT     H130881   3.722   7.845   5.050
10213WAT     H230882   3.829   7.958   4.999
10214WAT      O30883   8.283   0.184   8.866
10214WAT     H130884   8.314   0.213   8.775
10214WAT     H230885   8.190   0.218   8.882
10215WAT      O30886   3.301   1.693   8.820
10215WAT     H130887   3.396   1.720   8.832
10215WAT     H230888   3.258   1.681   8.909
10216WAT      O30889   8.197   6.774   2.762
10216WAT     H130890   8.284   6.728   2.741
10216WAT     H230891   8.189   6.857   2.707
10217WAT      O30892   4.543   7.628   7.169
10217WAT     H130893   4.502   7.682   7.242
10217WAT     H230894   4.594   7.552   7.208
10218WAT      O30895   0.750   8.345   3.445
10218WAT     H130896   0.724   8.431   3.401
10218WAT     H230897   0.846   8.349   3.471
10219WAT      O30898   3.863   3.819   1.737
10219WAT     H130899   3.838   3.773   1.652
10219WAT     H230900   3.961   3.808   1.754
10220WAT      O30901   8.872   0.007   4.760
10220WAT     H130902   8.858  -0.092   4.763
10220WAT     H230903   8.816   0.051   4.830
10221WAT      O30904   7.404   7.599   8.616
10221WAT     H130905   7.382   7.568   8.523
10221WAT     H230906   7.328   7.576   8.677
10222WAT      O30907   3.222   5.600   0.796
10222WAT     H130908   3.246   5.572   0.889
10222WAT     H230909   3.263   5.537   0.731
10223WAT      O30910   8.937   1.460   6.985
10223WAT     H130911   8.896   1.533   7.041
10223WAT     H230912   8.967   1.499   6.898
10224WAT      O30913   6.934   9.575   8.500
10224WAT     H130914   6.981   9.620   8.576
10224WAT     H230915   6.993   9.505   8.460
10225WAT      O30916   8.239   3.006   8.779
10225WAT     H130917   8.172   2.953   8.831
10225WAT     H230918   8.330   2.967   8.795
10226WAT      O30919   6.784   2.409   7.493
10226WAT     H130920   6.742   2.455   7.572
10226WAT     H230921   6.761   2.312   7.495
10227WAT      O30922  -0.001   8.506   8.251
10227WAT     H130923   0.052   8.429   8.286
10227WAT     H230924  -0.026   8.489   8.156
10228WAT      O30925   5.403   9.215   1.049
10228WAT     H130926   5.465   9.236   0.974
10228WAT     H230927   5.452   9.222   1.136
10229WAT      O30928   3.569   5.345   7.998
10229WAT     H130929   3.482   5.347   8.049
10229WAT     H230930   3.640   5.389   8.053
10230WAT      O30931   2.056   1.828   8.059
10230WAT     H130932   1.980   1.775   8.021
10230WAT     H230933   2.038   1.848   8.155
10231WAT      O30934   2.008   0.343   2.125
10231WAT     H130935   1.977   0.270   2.065
10231WAT     H230936   2.100   0.321   2.159
10232WAT      O30937   3.433   5.060   4.416
10232WAT     H130938   3.369   5.137   4.410
10232WAT     H230939   3.385   4.974   4.401
10233WAT      O30940   8.401   5.941   4.891
10233WAT     H130941   8.464   5.977   4.823
10233WAT     H230942   8.441   5.949   4.982
10234WAT      O30943   2.174   8.752   9.188
10234WAT     H130944   2.198   8.689   9.114
10234WAT     H230945   2.204   8.845   9.164
10235WAT      O30946   5.587   1.389   1.961
10235WAT     H130947   5.493   1.361   1.982
10235WAT     H230948   5.630   1.425   2.044
10236WAT      O30949   8.714   7.335   4.213
10236WAT     H130950   8.685   7.280   4.291
10236WAT     H230951   8.748   7.423   4.245
10237WAT      O30952   1.742   0.483   3.723
10237WAT     H130953   1.705   0.391   3.713
10237WAT     H230954   1.842   0.481   3.709
10238WAT      O30955   3.355   6.777   9.642
10238WAT     H130956   3.257   6.793   9.657
10238WAT     H230957   3.404   6.863   9.656
10239WAT      O30958   7.955   6.239   3.788
10239WAT     H130959   7.920   6.276   3.703
10239WAT     H230960   7.880   6.199   3.841
10240WAT      O30961   5.921   3.787   3.796
10240WAT     H130962   5.965   3.863   3.749
10240WAT     H230963   5.907   3.810   3.892
10241WAT      O30964   9.227   7.408   8.543
10241WAT     H130965   9.228   7.337   8.614
10241WAT     H230966   9.319   7.446   8.533
10242WAT      O30967   8.106   9.386   0.523
10242WAT     H130968   8.119   9.346   0.433
10242WAT     H230969   8.195   9.411   0.562
10243WAT      O30970   6.226   7.702   8.194
10243WAT     H130971   6.295   7.718   8.123
10243WAT     H230972   6.259   7.734   8.282
10244WAT      O30973   3.507   2.007   2.380
10244WAT     H130974   3.559   2.081   2.423
10244WAT     H230975   3.528   2.004   2.282
10245WAT      O30976   2.586   3.464   3.260
10245WAT     H130977   2.676   3.424   3.239
10245WAT     H230978   2.592   3.563   3.254
10246WAT      O30979   6.947   2.344   2.764
10246WAT     H130980   6.902   2.311   2.846
10246WAT     H230981   7.039   2.303   2.758
10247WAT      O30982   4.321   3.122   2.057
10247WAT     H130983   4.333   3.207   2.110
10247WAT     H230984   4.327   3.044   2.118
10248WAT      O30985   5.922   0.905   1.000
10248WAT     H130986   5.847   0.957   1.041
10248WAT     H230987   5.893   0.811   0.984
10249WAT      O30988   7.478   9.318   0.793
10249WAT     H130989   7.419   9.375   0.852
10249WAT     H230990   7.441   9.226   0.788
10250WAT      O30991   5.151   8.847   9.114
10250WAT     H130992   5.226   8.783   9.098
10250WAT     H230993   5.069   8.796   9.143
10251WAT      O30994   6.997   8.776   3.251
10251WAT     H130995   6.973   8.860   3.203
10251WAT     H230996   7.016   8.704   3.184
10252WAT      O30997   2.853   2.166   2.348
10252WAT     H130998   2.902   2.253   2.342
10252WAT     H230999   2.782   2.163   2.278
10253WAT      O31000   4.398   3.528   1.881
10253WAT     H131001   4.343   3.537   1.964
10253WAT     H231002   4.426   3.619   1.849
10254WAT      O31003   0.331   1.485   1.133
10254WAT     H131004   0.308   1.507   1.227
10254WAT     H231005   0.414   1.534   1.106
10255WAT      O31006   1.739   4.559   6.941
10255WAT     H131007   1.757   4.572   7.038
10255WAT     H231008   1.649   4.517   6.929
10256WAT      O31009   3.276   5.074   0.362
10256WAT     H131010   3.218   5.130   0.303
10256WAT     H231011   3.277   4.980   0.330
10257WAT      O31012   9.675   0.360   6.418
10257WAT     H131013   9.602   0.427   6.410
10257WAT     H231014   9.645   0.284   6.476
10258WAT      O31015   4.339   5.924   0.483
10258WAT     H131016   4.280   5.996   0.447
10258WAT     H231017   4.309   5.835   0.449
10259WAT      O31018   1.115   0.398   5.072
10259WAT     H131019   1.030   0.419   5.023
10259WAT     H231020   1.186   0.373   5.006
10260WAT      O31021   4.786   0.198   0.627
10260WAT     H131022   4.827   0.264   0.689
10260WAT     H231023   4.701   0.235   0.589
10261WAT      O31024   5.218   6.770   5.095
10261WAT     H131025   5.165   6.833   5.038
10261WAT     H231026   5.302   6.745   5.047
10262WAT      O31027   1.243   9.644   0.335
10262WAT     H131028   1.203   9.653   0.244
10262WAT     H231029   1.218   9.723   0.391
10263WAT      O31030   4.346   9.312   9.457
10263WAT     H131031   4.427   9.369   9.445
10263WAT     H231032   4.373   9.217   9.472
10264WAT      O31033   7.102   4.950   0.442
10264WAT     H131034   7.026   4.910   0.390
10264WAT     H231035   7.184   4.896   0.428
10265WAT      O31036   4.849   6.446   7.566
10265WAT     H131037   4.880   6.461   7.472
10265WAT     H231038   4.757   6.406   7.564
10266WAT      O31039   4.134   8.681   2.544
10266WAT     H131040   4.165   8.589   2.520
10266WAT     H231041   4.140   8.694   2.643
10267WAT      O31042   5.009   5.818   3.491
10267WAT     H131043   5.027   5.898   3.549
10267WAT     H231044   4.912   5.794   3.499
10268WAT      O31045   5.982   4.682   6.782
10268WAT     H131046   5.990   4.768   6.832
10268WAT     H231047   5.952   4.700   6.689
10269WAT      O31048   6.207   9.037   1.605
10269WAT     H131049   6.272   9.110   1.580
10269WAT     H231050   6.118   9.057   1.565
10270WAT      O31051   3.844   9.825   8.481
10270WAT     H131052   3.791   9.817   8.397
10270WAT     H231053   3.894   9.912   8.481
10271WAT      O31054   0.332   8.135   4.937
10271WAT     H131055   0.314   8.045   4.976
10271WAT     H231056   0.368   8.124   4.844
10272WAT      O31057   5.111   8.508   8.439
10272WAT     H131058   5.204   8.524   8.406
10272WAT     H231059   5.045   8.553   8.379
10273WAT      O31060   1.236   5.789   8.479
10273WAT     H131061   1.163   5.857   8.486
10273WAT     H231062   1.214   5.724   8.406
10274WAT      O31063   2.964   7.523   2.453
10274WAT     H131064   2.878   7.523   2.506
10274WAT     H231065   3.031   7.465   2.498
10275WAT      O31066   3.861   1.260   9.073
10275WAT     H131067   3.909   1.203   9.006
10275WAT     H231068   3.918   1.340   9.095
10276WAT      O31069   2.199   0.451   1.377
10276WAT     H131070   2.119   0.489   1.424
10276WAT     H231071   2.230   0.369   1.424
10277WAT      O31072   3.251   9.602   3.509
10277WAT     H131073   3.302   9.633   3.589
10277WAT     H231074   3.171   9.660   3.497
10278WAT      O31075   9.391   1.575   7.343
10278WAT     H131076   9.300   1.535   7.349
10278WAT     H231077   9.447   1.522   7.279
10279WAT      O31078   4.718   3.898   3.418
10279WAT     H131079   4.777   3.819   3.401
10279WAT     H231080   4.677   3.929   3.332
10280WAT      O31081   7.296   6.806   1.909
10280WAT     H131082   7.346   6.836   1.828
10280WAT     H231083   7.217   6.752   1.882
10281WAT      O31084   9.379   3.002   6.472
10281WAT     H131085   9.363   2.904   6.472
10281WAT     H231086   9.291   3.050   6.464
10282WAT      O31087   0.624   1.462   4.074
10282WAT     H131088   0.706   1.407   4.053
10282WAT     H231089   0.587   1.499   3.989
10283WAT      O31090   2.110   0.947   0.565
10283WAT     H131091   2.193   0.996   0.539
10283WAT     H231092   2.045   0.950   0.489
10284WAT      O31093   5.927   2.025   8.160
10284WAT     H131094   5.967   2.115   8.177
10284WAT     H231095   5.849   2.012   8.222
10285WAT      O31096   6.208   8.255   6.005
10285WAT     H131097   6.164   8.344   5.994
10285WAT     H231098   6.217   8.234   6.102
10286WAT      O31099   0.962   9.593   9.696
10286WAT     H131100   0.874   9.628   9.664
10286WAT     H231101   1.026   9.668   9.708
10287WAT      O31102   0.625   8.945   3.164
10287WAT     H131103   0.584   8.855   3.178
10287WAT     H231104   0.654   8.983   3.251
10288WAT      O31105   2.117   3.404   8.119
10288WAT     H131106   2.048   3.333   8.134
10288WAT     H231107   2.189   3.367   8.060
10289WAT      O31108   4.042   0.195   3.588
10289WAT     H131109   4.082   0.211   3.497
10289WAT     H231110   3.950   0.157   3.578
10290WAT      O31111   5.755   6.167   1.181
10290WAT     H131112   5.745   6.240   1.248
10290WAT     H231113   5.771   6.206   1.091
10291WAT      O31114   2.072   1.406   1.336
10291WAT     H131115   1.974   1.397   1.355
10291WAT     H231116   2.096   1.502   1.325
10292WAT      O31117   0.416   4.907   1.002
10292WAT     H131118   0.430   4.884   0.905
10292WAT     H231119   0.480   4.853   1.058
10293WAT      O31120   6.979   7.289   8.507
10293WAT     H131121   7.069   7.246   8.506
10293WAT     H231122   6.979   7.366   8.571
10294WAT      O31123   1.491   6.684   1.877
10294WAT     H131124   1.585   6.678   1.911
10294WAT     H231125   1.466   6.780   1.865
10295WAT      O31126   3.807   6.384   8.106
10295WAT     H131127   3.874   6.373   8.180
10295WAT     H231128   3.723   6.334   8.131
10296WAT      O31129   1.378   8.027   9.890
10296WAT     H131130   1.320   8.089   9.838
10296WAT     H231131   1.375   7.936   9.848
10297WAT      O31132   9.162   4.850   2.258
10297WAT     H131133   9.217   4.920   2.302
10297WAT     H231134   9.134   4.881   2.167
10298WAT      O31135   9.111   8.393   6.736
10298WAT     H131136   9.093   8.420   6.831
10298WAT     H231137   9.210   8.385   6.722
10299WAT      O31138   4.338   2.722   9.467
10299WAT     H131139   4.320   2.792   9.536
10299WAT     H231140   4.422   2.744   9.418
10300WAT      O31141   8.090   5.695   7.836
10300WAT     H131142   8.148   5.729   7.761
10300WAT     H231143   7.996   5.727   7.821
10301WAT      O31144   9.498   1.334   7.482
10301WAT     H131145   9.512   1.325   7.383
10301WAT     H231146   9.537   1.420   7.513
10302WAT      O31147   1.849   5.204   7.230
10302WAT     H131148   1.812   5.268   7.162
10302WAT     H231149   1.946   5.224   7.245
10303WAT      O31150   2.419   4.770   0.371
10303WAT     H131151   2.487   4.778   0.298
10303WAT     H231152   2.347   4.706   0.343
10304WAT      O31153   7.045   3.445   1.633
10304WAT     H131154   7.010   3.380   1.701
10304WAT     H231155   7.134   3.478   1.662
10305WAT      O31156   2.288   9.473   6.963
10305WAT     H131157   2.244   9.404   6.906
10305WAT     H231158   2.337   9.429   7.038
10306WAT      O31159   3.622   2.947   8.670
10306WAT     H131160   3.635   2.960   8.769
10306WAT     H231161   3.587   2.855   8.653
10307WAT      O31162   6.125   0.641   5.242
10307WAT     H131163   6.093   0.590   5.321
10307WAT     H231164   6.050   0.694   5.204
10308WAT      O31165   1.569   2.730   4.602
10308WAT     H131166   1.502   2.724   4.528
10308WAT     H231167   1.602   2.639   4.624
10309WAT      O31168   8.243   9.089   2.324
10309WAT     H131169   8.175   9.033   2.370
10309WAT     H231170   8.317   9.110   2.387
10310WAT      O31171   9.433   3.393   1.217
10310WAT     H131172   9.464   3.437   1.301
10310WAT     H231173   9.411   3.463   1.149
10311WAT      O31174   9.411   4.981   8.242
10311WAT     H131175   9.387   4.983   8.145
10311WAT     H231176   9.329   4.965   8.296
10312WAT      O31177   3.070   1.461   5.266
10312WAT     H131178   3.121   1.533   5.219
10312WAT     H231179   3.009   1.416   5.202
10313WAT      O31180   3.385   4.385   4.163
10313WAT     H131181   3.306   4.392   4.103
10313WAT     H231182   3.371   4.311   4.229
10314WAT      O31183   7.196   6.210   5.235
10314WAT     H131184   7.222   6.130   5.289
10314WAT     H231185   7.277   6.252   5.197
10315WAT      O31186   1.871   8.373   9.330
10315WAT     H131187   1.845   8.283   9.365
10315WAT     H231188   1.792   8.416   9.288
10316WAT      O31189   9.156   5.107   8.070
10316WAT     H131190   9.182   5.039   8.001
10316WAT     H231191   9.183   5.198   8.038
10317WAT      O31192   1.831   8.865   7.395
10317WAT     H131193   1.824   8.770   7.423
10317WAT     H231194   1.927   8.888   7.378
10318WAT      O31195   8.260   9.439   1.392
10318WAT     H131196   8.189   9.464   1.458
10318WAT     H231197   8.311   9.360   1.427
10319WAT      O31198   8.901   3.545   2.107
10319WAT     H131199   8.834   3.567   2.178
10319WAT     H231200   8.891   3.449   2.080
10320WAT      O31201   5.088   5.200   4.669
10320WAT     H131202   5.010   5.148   4.635
10320WAT     H231203   5.129   5.252   4.594
10321WAT      O31204   0.606   8.553   7.375
10321WAT     H131205   0.606   8.579   7.278
10321WAT     H231206   0.631   8.457   7.383
10322WAT      O31207   7.944   1.626   2.726
10322WAT     H131208   7.882   1.573   2.667
10322WAT     H231209   7.974   1.708   2.676
10323WAT      O31210   7.067   0.917   4.640
10323WAT     H131211   7.024   0.891   4.727
10323WAT     H231212   7.165   0.928   4.653
10324WAT      O31213   2.549   0.183   8.498
10324WAT     H131214   2.556   0.120   8.575
10324WAT     H231215   2.598   0.268   8.519
10325WAT      O31216   1.918   7.517   5.013
10325WAT     H131217   1.918   7.554   5.106
10325WAT     H231218   2.008   7.480   4.992
10326WAT      O31219   0.092   4.119   9.229
10326WAT     H131220   0.141   4.206   9.224
10326WAT     H231221   0.080   4.093   9.325
10327WAT      O31222   0.475   2.008   4.314
10327WAT     H131223   0.467   1.924   4.368
10327WAT     H231224   0.535   1.991   4.235
10328WAT      O31225   2.603   4.768   5.740
10328WAT     H131226   2.669   4.839   5.718
10328WAT     H231227   2.650   4.680   5.748
10329WAT      O31228   4.461   0.616   7.860
10329WAT     H131229   4.504   0.631   7.949
10329WAT     H231230   4.409   0.698   7.835
10330WAT      O31231   7.323   9.038   8.366
10330WAT     H131232   7.412   9.071   8.336
10330WAT     H231233   7.333   8.947   8.406
10331WAT      O31234   7.361   4.335   3.492
10331WAT     H131235   7.459   4.354   3.478
10331WAT     H231236   7.350   4.273   3.570
10332WAT      O31237   2.173   8.408   1.274
10332WAT     H131238   2.135   8.343   1.340
10332WAT     H231239   2.146   8.380   1.182
10333WAT      O31240   5.619   2.162   5.552
10333WAT     H131241   5.543   2.102   5.528
10333WAT     H231242   5.654   2.137   5.643
10334WAT      O31243   1.332   9.364   6.952
10334WAT     H131244   1.355   9.268   6.970
10334WAT     H231245   1.297   9.372   6.858
10335WAT      O31246   7.706   5.400   1.049
10335WAT     H131247   7.801   5.393   1.080
10335WAT     H231248   7.650   5.333   1.098
10336WAT      O31249   7.579   6.505   0.156
10336WAT     H131250   7.501   6.527   0.097
10336WAT     H231251   7.615   6.416   0.130
10337WAT      O31252   8.816   9.670   2.342
10337WAT     H131253   8.850   9.735   2.410
10337WAT     H231254   8.829   9.709   2.250
10338WAT      O31255   7.999   1.478   5.596
10338WAT     H131256   8.025   1.574   5.608
10338WAT     H231257   7.911   1.461   5.641
10339WAT      O31258   0.803   1.051   9.435
10339WAT     H131259   0.715   1.017   9.470
10339WAT     H231260   0.875   1.030   9.501
10340WAT      O31261   5.211   9.266   2.770
10340WAT     H131262   5.191   9.271   2.867
10340WAT     H231263   5.126   9.255   2.718
10341WAT      O31264   5.846   3.535   8.008
10341WAT     H131265   5.859   3.580   8.096
10341WAT     H231266   5.909   3.459   7.999
10342WAT      O31267   3.373   5.544   3.385
10342WAT     H131268   3.303   5.558   3.455
10342WAT     H231269   3.427   5.463   3.407
10343WAT      O31270   4.222   7.850   9.802
10343WAT     H131271   4.314   7.869   9.835
10343WAT     H231272   4.167   7.813   9.878
10344WAT      O31273   2.867   3.526   7.207
10344WAT     H131274   2.843   3.429   7.206
10344WAT     H231275   2.820   3.571   7.282
10345WAT      O31276   4.978   1.289   4.250
10345WAT     H131277   4.986   1.377   4.296
10345WAT     H231278   4.895   1.287   4.194
10346WAT      O31279   5.949   8.412   6.384
10346WAT     H131280   5.905   8.501   6.387
10346WAT     H231281   6.004   8.398   6.467
10347WAT      O31282   3.635   2.116   8.267
10347WAT     H131283   3.576   2.162   8.201
10347WAT     H231284   3.679   2.185   8.325
10348WAT      O31285   7.225   6.827   2.951
10348WAT     H131286   7.267   6.776   3.026
10348WAT     H231287   7.283   6.905   2.928
10349WAT      O31288   7.299   3.153   9.640
10349WAT     H131289   7.231   3.106   9.583
10349WAT     H231290   7.390   3.136   9.604
10350WAT      O31291   7.454   6.024   1.245
10350WAT     H131292   7.468   6.022   1.146
10350WAT     H231293   7.366   6.067   1.265
10351WAT      O31294   9.038   3.226   8.357
10351WAT     H131295   9.089   3.307   8.387
10351WAT     H231296   9.058   3.208   8.261
10352WAT      O31297   7.916   6.294   0.256
10352WAT     H131298   7.859   6.314   0.177
10352WAT     H231299   7.865   6.314   0.340
10353WAT      O31300   5.755   4.157   8.816
10353WAT     H131301   5.704   4.083   8.860
10353WAT     H231302   5.845   4.123   8.788
10354WAT      O31303   9.737   9.319   9.000
10354WAT     H131304   9.801   9.384   9.040
10354WAT     H231305   9.648   9.328   9.046
10355WAT      O31306   2.110   8.700   2.258
10355WAT     H131307   2.198   8.712   2.212
10355WAT     H231308   2.079   8.787   2.295
10356WAT      O31309   9.026   8.458   0.523
10356WAT     H131310   9.002   8.493   0.432
10356WAT     H231311   8.943   8.438   0.574
10357WAT      O31312   6.020   6.256   1.470
10357WAT     H131313   5.943   6.245   1.407
10357WAT     H231314   6.093   6.306   1.424
10358WAT      O31315   5.046   3.695   8.620
10358WAT     H131316   4.971   3.718   8.558
10358WAT     H231317   5.026   3.607   8.664
10359WAT      O31318   9.754   6.346   8.686
10359WAT     H131319   9.685   6.379   8.622
10359WAT     H231320   9.833   6.313   8.634
10360WAT      O31321   2.991   1.228   0.852
10360WAT     H131322   2.984   1.171   0.934
10360WAT     H231323   3.074   1.203   0.801
10361WAT      O31324   3.099   2.337   6.176
10361WAT     H131325   3.177   2.380   6.129
10361WAT     H231326   3.107   2.353   6.274
10362WAT      O31327   5.407   1.482   6.722
10362WAT     H131328   5.331   1.467   6.785
10362WAT     H231329   5.371   1.493   6.629
10363WAT      O31330   8.002   9.780   2.056
10363WAT     H131331   8.072   9.777   2.127
10363WAT     H231332   8.044   9.807   1.969
10364WAT      O31333   0.299   7.026   1.850
10364WAT     H131334   0.288   6.927   1.866
10364WAT     H231335   0.337   7.068   1.933
10365WAT      O31336   8.887   3.850   7.315
10365WAT     H131337   8.923   3.921   7.375
10365WAT     H231338   8.825   3.891   7.248
10366WAT      O31339   4.892   4.038   7.826
10366WAT     H131340   4.823   4.053   7.896
10366WAT     H231341   4.976   4.005   7.869
10367WAT      O31342   1.591   4.254   3.998
10367WAT     H131343   1.615   4.163   3.964
10367WAT     H231344   1.632   4.268   4.088
10368WAT      O31345   0.205   6.837   2.176
10368WAT     H131346   0.216   6.738   2.183
10368WAT     H231347   0.163   6.860   2.088
10369WAT      O31348   7.976   5.101   2.144
10369WAT     H131349   7.899   5.112   2.207
10369WAT     H231350   7.996   5.188   2.099
10370WAT      O31351   7.203   3.257   9.018
10370WAT     H131352   7.237   3.202   8.942
10370WAT     H231353   7.103   3.254   9.019
10371WAT      O31354   1.771   9.603   9.027
10371WAT     H131355   1.843   9.625   9.093
10371WAT     H231356   1.748   9.685   8.975
10372WAT      O31357   8.511   9.281   2.042
10372WAT     H131358   8.584   9.300   2.107
10372WAT     H231359   8.505   9.182   2.026
10373WAT      O31360   4.211   5.779   2.467
10373WAT     H131361   4.255   5.869   2.460
10373WAT     H231362   4.129   5.786   2.524
10374WAT      O31363   3.427   9.539   7.297
10374WAT     H131364   3.514   9.507   7.260
10374WAT     H231365   3.431   9.538   7.397
10375WAT      O31366   8.180   6.194   2.876
10375WAT     H131367   8.180   6.291   2.851
10375WAT     H231368   8.221   6.182   2.967
10376WAT      O31369   8.352   5.341   0.390
10376WAT     H131370   8.392   5.431   0.372
10376WAT     H231371   8.253   5.350   0.401
10377WAT      O31372   7.260   0.319   1.196
10377WAT     H131373   7.327   0.305   1.123
10377WAT     H231374   7.259   0.415   1.222
10378WAT      O31375   8.665   5.045   5.465
10378WAT     H131376   8.717   5.113   5.517
10378WAT     H231377   8.666   5.068   5.368
10379WAT      O31378   8.714   7.034   0.822
10379WAT     H131379   8.633   7.085   0.853
10379WAT     H231380   8.728   7.052   0.725
10380WAT      O31381   6.858   9.833   0.833
10380WAT     H131382   6.840   9.915   0.778
10380WAT     H231383   6.776   9.808   0.883
10381WAT      O31384   8.931   7.382   0.665
10381WAT     H131385   8.993   7.325   0.718
10381WAT     H231386   8.926   7.347   0.571
10382WAT      O31387   6.164   9.427   1.431
10382WAT     H131388   6.101   9.399   1.359
10382WAT     H231389   6.228   9.496   1.395
10383WAT      O31390   8.685   3.064   0.297
10383WAT     H131391   8.589   3.043   0.317
10383WAT     H231392   8.702   3.161   0.313
10384WAT      O31393   0.905   9.089   2.006
10384WAT     H131394   0.972   9.142   2.058
10384WAT     H231395   0.938   8.995   1.994
10385WAT      O31396   7.630   7.534   6.837
10385WAT     H131397   7.564   7.497   6.772
10385WAT     H231398   7.656   7.464   6.903
10386WAT      O31399   0.183   1.018   8.009
10386WAT     H131400   0.209   1.015   8.106
10386WAT     H231401   0.266   1.018   7.953
10387WAT      O31402   5.205   2.503   5.932
10387WAT     H131403   5.276   2.443   5.968
10387WAT     H231404   5.173   2.468   5.844
10388WAT      O31405   5.863   8.959   8.387
10388WAT     H131406   5.776   8.910   8.394
10388WAT     H231407   5.936   8.902   8.425
10389WAT      O31408   6.815   6.178   9.272
10389WAT     H131409   6.726   6.223   9.284
10389WAT     H231410   6.885   6.230   9.321
10390WAT      O31411   1.255   3.736   3.801
10390WAT     H131412   1.159   3.764   3.808
10390WAT     H231413   1.277   3.675   3.878
10391WAT      O31414   2.884   0.299   0.648
10391WAT     H131415   2.975   0.319   0.684
10391WAT     H231416   2.820   0.290   0.724
10392WAT      O31417   5.391   2.213   9.139
10392WAT     H131418   5.380   2.134   9.078
10392WAT     H231419   5.483   2.211   9.179
10393WAT      O31420   3.828   5.299   8.795
10393WAT     H131421   3.822   5.229   8.724
10393WAT     H231422   3.922   5.334   8.799
10394WAT      O31423   3.234   5.688   5.299
10394WAT     H131424   3.154   5.668   5.356
10394WAT     H231425   3.288   5.604   5.288
10395WAT      O31426   7.898   4.895   2.975
10395WAT     H131427   7.809   4.925   2.941
10395WAT     H231428   7.970   4.948   2.930
10396WAT      O31429   7.405   7.619   6.626
10396WAT     H131430   7.398   7.716   6.648
10396WAT     H231431   7.432   7.608   6.531
10397WAT      O31432   0.652   3.675   5.763
10397WAT     H131433   0.584   3.703   5.832
10397WAT     H231434   0.728   3.740   5.764
10398WAT      O31435   4.930   2.749   2.438
10398WAT     H131436   4.940   2.660   2.394
10398WAT     H231437   4.884   2.738   2.526
10399WAT      O31438   2.960   2.561   7.423
10399WAT     H131439   2.984   2.488   7.488
10399WAT     H231440   2.946   2.521   7.332
10400WAT      O31441   5.153   6.309   6.620
10400WAT     H131442   5.153   6.260   6.533
10400WAT     H231443   5.168   6.244   6.695
10401WAT      O31444   5.443   2.180   2.648
10401WAT     H131445   5.392   2.103   2.608
10401WAT     H231446   5.541   2.168   2.629
10402WAT      O31447   8.420   1.437   4.424
10402WAT     H131448   8.417   1.524   4.473
10402WAT     H231449   8.328   1.411   4.395
10403WAT      O31450   7.389   7.267   1.704
10403WAT     H131451   7.449   7.273   1.784
10403WAT     H231452   7.362   7.359   1.676
10404WAT      O31453   8.380   0.544   6.539
10404WAT     H131454   8.315   0.583   6.604
10404WAT     H231455   8.414   0.457   6.572
10405WAT      O31456   4.306   5.214   1.824
10405WAT     H131457   4.398   5.196   1.860
10405WAT     H231458   4.265   5.289   1.876
10406WAT      O31459   6.363   7.338   0.964
10406WAT     H131460   6.293   7.284   1.011
10406WAT     H231461   6.399   7.286   0.887
10407WAT      O31462   5.002   2.931   9.307
10407WAT     H131463   4.970   2.855   9.363
10407WAT     H231464   5.013   2.901   9.213
10408WAT      O31465   8.735   1.666   5.174
10408WAT     H131466   8.788   1.714   5.104
10408WAT     H231467   8.773   1.574   5.187
10409WAT      O31468   1.019   9.441   8.544
10409WAT     H131469   1.113   9.470   8.565
10409WAT     H231470   1.006   9.347   8.575
10410WAT      O31471   5.320   4.078   8.689
10410WAT     H131472   5.348   4.135   8.612
10410WAT     H231473   5.310   4.135   8.771
10411WAT      O31474   2.826   2.971   0.368
10411WAT     H131475   2.829   3.062   0.410
10411WAT     H231476   2.738   2.928   0.387
10412WAT      O31477   2.744   5.468   5.135
10412WAT     H131478   2.752   5.506   5.043
10412WAT     H231479   2.750   5.369   5.131
10413WAT      O31480   8.943   6.658   6.634
10413WAT     H131481   8.881   6.639   6.558
10413WAT     H231482   9.034   6.680   6.599
10414WAT      O31483   5.291   1.161   8.543
10414WAT     H131484   5.271   1.258   8.553
10414WAT     H231485   5.328   1.125   8.629
10415WAT      O31486   7.838   2.037   0.739
10415WAT     H131487   7.842   2.119   0.681
10415WAT     H231488   7.772   2.052   0.813
10416WAT      O31489   9.212   3.207   0.939
10416WAT     H131490   9.272   3.264   0.883
10416WAT     H231491   9.206   3.115   0.898
10417WAT      O31492   7.716   7.462   0.400
10417WAT     H131493   7.732   7.375   0.447
10417WAT     H231494   7.618   7.472   0.381
10418WAT      O31495   6.679   6.804   3.056
10418WAT     H131496   6.714   6.736   3.121
10418WAT     H231497   6.613   6.862   3.102
10419WAT      O31498   6.119   6.388   9.558
10419WAT     H131499   6.128   6.416   9.462
10419WAT     H231500   6.189   6.434   9.612
10420WAT      O31501   3.068   0.139   3.349
10420WAT     H131502   3.085   0.079   3.427
10420WAT     H231503   2.972   0.166   3.348
10421WAT      O31504   3.703   1.679   7.995
10421WAT     H131505   3.783   1.662   8.051
10421WAT     H231506   3.658   1.763   8.026
10422WAT      O31507   2.588   5.507   5.344
10422WAT     H131508   2.661   5.496   5.277
10422WAT     H231509   2.586   5.603   5.374
10423WAT      O31510   1.318   1.980   2.871
10423WAT     H131511   1.258   2.038   2.927
10423WAT     H231512   1.294   1.884   2.886
10424WAT      O31513   3.387   4.596   7.962
10424WAT     H131514   3.424   4.518   7.911
10424WAT     H231515   3.333   4.654   7.901
10425WAT      O31516   6.942   8.999   4.168
10425WAT     H131517   6.953   8.909   4.125
10425WAT     H231518   6.958   8.991   4.266
10426WAT      O31519   6.774   4.445   1.500
10426WAT     H131520   6.732   4.534   1.482
10426WAT     H231521   6.708   4.385   1.545
10427WAT      O31522   1.191   6.879   5.764
10427WAT     H131523   1.187   6.882   5.664
10427WAT     H231524   1.160   6.789   5.796
10428WAT      O31525   7.388   6.566   1.156
10428WAT     H131526   7.377   6.525   1.065
10428WAT     H231527   7.423   6.497   1.219
10429WAT      O31528   2.598   1.240   3.217
10429WAT     H131529   2.657   1.200   3.287
10429WAT     H231530   2.563   1.168   3.157
10430WAT      O31531   0.190   1.456   3.221
10430WAT     H131532   0.181   1.556   3.215
10430WAT     H231533   0.101   1.414   3.207
10431WAT      O31534   9.704   4.298   6.356
10431WAT     H131535   9.770   4.226   6.378
10431WAT     H231536   9.692   4.303   6.257
10432WAT      O31537   6.053   4.339   7.818
10432WAT     H131538   6.083   4.404   7.888
10432WAT     H231539   6.075   4.246   7.847
10433WAT      O31540   1.754   6.192   0.170
10433WAT     H131541   1.755   6.149   0.080
10433WAT     H231542   1.707   6.280   0.163
10434WAT      O31543   8.236   1.649   4.968
10434WAT     H131544   8.254   1.563   4.919
10434WAT     H231545   8.242   1.634   5.066
10435WAT      O31546   9.154   3.499   0.010
10435WAT     H131547   9.115   3.555  -0.063
10435WAT     H231548   9.181   3.410  -0.027
10436WAT      O31549   5.858   8.713   2.994
10436WAT     H131550   5.789   8.785   2.984
10436WAT     H231551   5.936   8.733   2.935
10437WAT      O31552   3.454   4.758   1.446
10437WAT     H131553   3.510   4.802   1.517
10437WAT     H231554   3.410   4.827   1.390
10438WAT      O31555   6.167   5.505   5.970
10438WAT     H131556   6.175   5.445   6.049
10438WAT     H231557   6.085   5.480   5.918
10439WAT      O31558   8.829   9.329   1.647
10439WAT     H131559   8.811   9.240   1.689
10439WAT     H231560   8.800   9.328   1.551
10440WAT      O31561   9.027   0.130   3.448
10440WAT     H131562   8.956   0.103   3.383
10440WAT     H231563   8.992   0.123   3.541
10441WAT      O31564   0.918   5.575   0.847
10441WAT     H131565   0.984   5.648   0.830
10441WAT     H231566   0.967   5.493   0.875
10442WAT      O31567   4.649   8.958   0.946
10442WAT     H131568   4.556   8.961   0.984
10442WAT     H231569   4.710   8.912   1.010
10443WAT      O31570   4.200   8.846   7.671
10443WAT     H131571   4.178   8.871   7.577
10443WAT     H231572   4.196   8.747   7.682
10444WAT      O31573   5.265   9.750   8.815
10444WAT     H131574   5.329   9.674   8.805
10444WAT     H231575   5.312   9.837   8.801
10445WAT      O31576   9.590   5.561   8.878
10445WAT     H131577   9.575   5.650   8.921
10445WAT     H231578   9.502   5.519   8.858
10446WAT      O31579   3.581   0.185   3.180
10446WAT     H131580   3.581   0.228   3.270
10446WAT     H231581   3.676   0.172   3.150
10447WAT      O31582   0.202   4.530   1.589
10447WAT     H131583   0.106   4.522   1.616
10447WAT     H231584   0.219   4.472   1.509
10448WAT      O31585   1.909   6.506   5.685
10448WAT     H131586   1.879   6.431   5.745
10448WAT     H231587   1.994   6.544   5.720
10449WAT      O31588   7.907   1.233   5.871
10449WAT     H131589   7.893   1.332   5.862
10449WAT     H231590   7.997   1.215   5.911
10450WAT      O31591   7.372   0.129   7.335
10450WAT     H131592   7.456   0.166   7.373
10450WAT     H231593   7.341   0.188   7.260
10451WAT      O31594   1.812   4.883   3.137
10451WAT     H131595   1.747   4.939   3.085
10451WAT     H231596   1.856   4.939   3.206
10452WAT      O31597   6.309   5.309   3.248
10452WAT     H131598   6.256   5.229   3.219
10452WAT     H231599   6.251   5.369   3.303
10453WAT      O31600   3.057   1.004   6.545
10453WAT     H131601   3.144   1.031   6.503
10453WAT     H231602   2.982   1.056   6.504
10454WAT      O31603   1.504   3.257   3.022
10454WAT     H131604   1.511   3.318   3.101
10454WAT     H231605   1.539   3.167   3.046
10455WAT      O31606   2.353   9.783   5.885
10455WAT     H131607   2.396   9.838   5.813
10455WAT     H231608   2.393   9.808   5.973
10456WAT      O31609   3.649   5.527   6.198
10456WAT     H131610   3.660   5.545   6.100
10456WAT     H231611   3.558   5.489   6.214
10457WAT      O31612   0.544   2.956   0.627
10457WAT     H131613   0.472   3.018   0.657
10457WAT     H231614   0.516   2.862   0.643
10458WAT      O31615   7.885   4.874   5.525
10458WAT     H131616   7.919   4.876   5.620
10458WAT     H231617   7.794   4.914   5.521
10459WAT      O31618   7.647   6.378   6.033
10459WAT     H131619   7.609   6.445   5.969
10459WAT     H231620   7.600   6.291   6.023
10460WAT      O31621   6.666   5.097   5.404
10460WAT     H131622   6.741   5.136   5.458
10460WAT     H231623   6.579   5.120   5.447
10461WAT      O31624   7.135   6.370   8.124
10461WAT     H131625   7.184   6.420   8.196
10461WAT     H231626   7.184   6.380   8.037
10462WAT      O31627   6.405   6.784   0.103
10462WAT     H131628   6.340   6.787   0.179
10462WAT     H231629   6.492   6.823   0.132
10463WAT      O31630   4.309   4.811   7.977
10463WAT     H131631   4.375   4.745   8.014
10463WAT     H231632   4.217   4.787   8.009
10464WAT      O31633   8.605   1.416   9.608
10464WAT     H131634   8.656   1.394   9.691
10464WAT     H231635   8.617   1.343   9.541
10465WAT      O31636   5.671   5.359   3.277
10465WAT     H131637   5.573   5.343   3.285
10465WAT     H231638   5.694   5.379   3.182
10466WAT      O31639   9.851   7.104   7.177
10466WAT     H131640   9.864   7.005   7.173
10466WAT     H231641   9.863   7.143   7.086
10467WAT      O31642   6.629   7.948   4.650
10467WAT     H131643   6.709   8.004   4.628
10467WAT     H231644   6.555   7.969   4.586
10468WAT      O31645   6.149   4.080   0.350
10468WAT     H131646   6.058   4.108   0.318
10468WAT     H231647   6.174   4.135   0.430
10469WAT      O31648   3.901   5.405   3.149
10469WAT     H131649   3.889   5.501   3.124
10469WAT     H231650   3.860   5.347   3.079
10470WAT      O31651   4.073   1.200   3.748
10470WAT     H131652   4.132   1.225   3.671
10470WAT     H231653   4.120   1.221   3.834
10471WAT      O31654   8.984   1.171   2.507
10471WAT     H131655   9.032   1.152   2.593
10471WAT     H231656   8.887   1.148   2.517
10472WAT      O31657   2.448   4.720   2.724
10472WAT     H131658   2.468   4.692   2.818
10472WAT     H231659   2.533   4.731   2.673
10473WAT      O31660   8.427   8.807   8.195
10473WAT     H131661   8.483   8.728   8.170
10473WAT     H231662   8.485   8.880   8.229
10474WAT      O31663   1.091   4.045   4.037
10474WAT     H131664   1.056   4.018   3.947
10474WAT     H231665   1.137   4.134   4.030
10475WAT      O31666   2.747   0.086   6.714
10475WAT     H131667   2.811   0.012   6.699
10475WAT     H231668   2.741   0.105   6.812
10476WAT      O31669   7.695   6.124   8.714
10476WAT     H131670   7.713   6.032   8.747
10476WAT     H231671   7.596   6.139   8.708
10477WAT      O31672   8.279   3.976   8.482
10477WAT     H131673   8.331   3.903   8.527
10477WAT     H231674   8.241   3.941   8.396
10478WAT      O31675   8.249   8.388   4.124
10478WAT     H131676   8.339   8.429   4.110
10478WAT     H231677   8.209   8.365   4.036
10479WAT      O31678   4.517   3.239   5.759
10479WAT     H131679   4.598   3.284   5.722
10479WAT     H231680   4.445   3.307   5.773
10480WAT      O31681   1.982   0.557   1.493
10480WAT     H131682   1.986   0.652   1.523
10480WAT     H231683   1.888   0.532   1.473
10481WAT      O31684   5.478   9.687   4.183
10481WAT     H131685   5.564   9.665   4.138
10481WAT     H231686   5.411   9.717   4.115
10482WAT      O31687   3.281   0.097   5.699
10482WAT     H131688   3.216   0.032   5.660
10482WAT     H231689   3.306   0.165   5.630
10483WAT      O31690   0.304   7.715   0.411
10483WAT     H131691   0.298   7.732   0.510
10483WAT     H231692   0.385   7.761   0.374
10484WAT      O31693   8.437   8.478   6.521
10484WAT     H131694   8.393   8.499   6.433
10484WAT     H231695   8.445   8.379   6.531
10485WAT      O31696   1.219   1.410   9.713
10485WAT     H131697   1.268   1.324   9.730
10485WAT     H231698   1.161   1.431   9.791
10486WAT      O31699   2.270   2.078   0.842
10486WAT     H131700   2.243   2.089   0.746
10486WAT     H231701   2.338   2.005   0.850
10487WAT      O31702   5.620   3.665   4.960
10487WAT     H131703   5.586   3.693   5.049
10487WAT     H231704   5.572   3.716   4.888
10488WAT      O31705   0.900   8.332   6.345
10488WAT     H131706   0.892   8.415   6.290
10488WAT     H231707   0.810   8.292   6.360
10489WAT      O31708   2.214   6.317   5.204
10489WAT     H131709   2.269   6.321   5.120
10489WAT     H231710   2.260   6.260   5.271
10490WAT      O31711   2.787   7.486   4.191
10490WAT     H131712   2.882   7.483   4.223
10490WAT     H231713   2.729   7.528   4.260
10491WAT      O31714   9.007   5.598   0.751
10491WAT     H131715   8.917   5.591   0.795
10491WAT     H231716   8.998   5.579   0.653
10492WAT      O31717   1.167   6.794   8.276
10492WAT     H131718   1.137   6.797   8.371
10492WAT     H231719   1.093   6.760   8.219
10493WAT      O31720   2.197   8.760   6.713
10493WAT     H131721   2.292   8.731   6.723
10493WAT     H231722   2.137   8.698   6.765
10494WAT      O31723   9.530   0.236   9.099
10494WAT     H131724   9.559   0.148   9.061
10494WAT     H231725   9.580   0.253   9.184
10495WAT      O31726   7.020   2.510   5.471
10495WAT     H131727   6.938   2.477   5.519
10495WAT     H231728   7.023   2.470   5.380
10496WAT      O31729   2.115   7.126   3.038
10496WAT     H131730   2.015   7.123   3.043
10496WAT     H231731   2.144   7.086   2.951
10497WAT      O31732   6.661   3.389   9.757
10497WAT     H131733   6.667   3.488   9.774
10497WAT     H231734   6.565   3.362   9.756
10498WAT      O31735   0.577   4.666   7.701
10498WAT     H131736   0.562   4.580   7.750
10498WAT     H231737   0.574   4.742   7.766
10499WAT      O31738   0.125   1.812   3.706
10499WAT     H131739   0.107   1.732   3.649
10499WAT     H231740   0.204   1.861   3.671
10500WAT      O31741   4.707   4.297   6.469
10500WAT     H131742   4.715   4.356   6.549
10500WAT     H231743   4.781   4.317   6.405
10501WAT      O31744   5.869   4.498   4.306
10501WAT     H131745   5.946   4.453   4.352
10501WAT     H231746   5.903   4.546   4.224
10502WAT      O31747   4.380   0.968   3.323
10502WAT     H131748   4.302   1.031   3.318
10502WAT     H231749   4.394   0.926   3.234
10503WAT      O31750   9.435   1.071   8.799
10503WAT     H131751   9.402   1.151   8.749
10503WAT     H231752   9.508   1.027   8.748
10504WAT      O31753   5.391   5.088   9.692
10504WAT     H131754   5.300   5.046   9.692
10504WAT     H231755   5.401   5.147   9.611
10505WAT      O31756   8.386   7.622   8.824
10505WAT     H131757   8.461   7.557   8.834
10505WAT     H231758   8.301   7.581   8.858
10506WAT      O31759   1.627   1.244   1.157
10506WAT     H131760   1.532   1.258   1.131
10506WAT     H231761   1.687   1.298   1.097
10507WAT      O31762   3.221   8.477   2.841
10507WAT     H131763   3.190   8.388   2.810
10507WAT     H231764   3.142   8.534   2.864
10508WAT      O31765   8.012   7.348   5.050
10508WAT     H131766   8.036   7.410   5.126
10508WAT     H231767   7.975   7.401   4.974
10509WAT      O31768   1.439   5.366   5.488
10509WAT     H131769   1.491   5.365   5.402
10509WAT     H231770   1.413   5.460   5.510
10510WAT      O31771   8.790   0.227   6.620
10510WAT     H131772   8.747   0.145   6.658
10510WAT     H231773   8.719   0.290   6.589
10511WAT      O31774   2.593   0.784   6.741
10511WAT     H131775   2.604   0.879   6.711
10511WAT     H231776   2.605   0.723   6.663
10512WAT      O31777   6.622   9.311   9.794
10512WAT     H131778   6.628   9.393   9.851
10512WAT     H231779   6.676   9.325   9.710
10513WAT      O31780   7.212   6.438   2.926
10513WAT     H131781   7.134   6.502   2.922
10513WAT     H231782   7.231   6.416   3.021
10514WAT      O31783   6.479   8.025   7.836
10514WAT     H131784   6.534   8.003   7.917
10514WAT     H231785   6.540   8.044   7.759
10515WAT      O31786   7.206   6.569   0.128
10515WAT     H131787   7.246   6.491   0.081
10515WAT     H231788   7.254   6.585   0.215
10516WAT      O31789   9.115   0.824   3.073
10516WAT     H131790   9.032   0.878   3.055
10516WAT     H231791   9.118   0.799   3.170
10517WAT      O31792   2.295   9.240   3.572
10517WAT     H131793   2.292   9.340   3.583
10517WAT     H231794   2.315   9.198   3.660
10518WAT      O31795   5.740   7.628   2.087
10518WAT     H131796   5.706   7.715   2.123
10518WAT     H231797   5.829   7.642   2.044
10519WAT      O31798   4.308   7.467   0.712
10519WAT     H131799   4.408   7.467   0.721
10519WAT     H231800   4.273   7.559   0.732
10520WAT      O31801   5.664   6.822   1.484
10520WAT     H131802   5.620   6.904   1.446
10520WAT     H231803   5.763   6.830   1.472
10521WAT      O31804   2.905   5.850   6.849
10521WAT     H131805   2.841   5.924   6.830
10521WAT     H231806   2.975   5.848   6.778
10522WAT      O31807   8.333   4.117   7.178
10522WAT     H131808   8.294   4.128   7.087
10522WAT     H231809   8.409   4.052   7.175
10523WAT      O31810   0.134   7.320   7.780
10523WAT     H131811   0.072   7.311   7.701
10523WAT     H231812   0.136   7.415   7.810
10524WAT      O31813   8.552   5.139   6.141
10524WAT     H131814   8.532   5.234   6.120
10524WAT     H231815   8.538   5.123   6.239
10525WAT      O31816   5.243   7.866   8.519
10525WAT     H131817   5.258   7.958   8.485
10525WAT     H231818   5.155   7.861   8.566
10526WAT      O31819   9.393   0.996   1.200
10526WAT     H131820   9.389   1.084   1.248
10526WAT     H231821   9.323   0.935   1.237
10527WAT      O31822   0.680   7.096   5.761
10527WAT     H131823   0.753   7.091   5.829
10527WAT     H231824   0.651   7.192   5.751
10528WAT      O31825   6.544   4.006   6.347
10528WAT     H131826   6.513   3.935   6.410
10528WAT     H231827   6.465   4.046   6.300
10529WAT      O31828   7.721   8.539   1.581
10529WAT     H131829   7.713   8.575   1.488
10529WAT     H231830   7.647   8.575   1.637
10530WAT      O31831   7.928   7.723   9.026
10530WAT     H131832   7.959   7.818   9.026
10530WAT     H231833   7.984   7.670   8.963
10531WAT      O31834   3.069   5.906   9.143
10531WAT     H131835   3.086   6.005   9.145
10531WAT     H231836   2.972   5.889   9.157
10532WAT      O31837   8.781   1.441   4.426
10532WAT     H131838   8.834   1.485   4.499
10532WAT     H231839   8.776   1.343   4.444
10533WAT      O31840   5.802   4.339   1.247
10533WAT     H131841   5.712   4.313   1.283
10533WAT     H231842   5.790   4.382   1.157
10534WAT      O31843   2.050   0.920   1.998
10534WAT     H131844   2.129   0.891   2.053
10534WAT     H231845   1.989   0.974   2.056
10535WAT      O31846   4.540   7.483   4.512
10535WAT     H131847   4.479   7.552   4.551
10535WAT     H231848   4.485   7.412   4.467
10536WAT      O31849   6.761   1.996   2.878
10536WAT     H131850   6.689   2.002   2.809
10536WAT     H231851   6.849   1.976   2.834
10537WAT      O31852   7.542   0.930   7.473
10537WAT     H131853   7.626   0.875   7.468
10537WAT     H231854   7.561   1.016   7.519
10538WAT      O31855   1.108   2.967   1.116
10538WAT     H131856   1.158   2.889   1.080
10538WAT     H231857   1.172   3.039   1.141
10539WAT      O31858   2.958   1.307   3.771
10539WAT     H131859   2.950   1.384   3.834
10539WAT     H231860   2.931   1.222   3.818
10540WAT      O31861   6.184   0.907   5.324
10540WAT     H131862   6.277   0.877   5.343
10540WAT     H231863   6.128   0.827   5.300
10541WAT      O31864   9.868   9.659   3.678
10541WAT     H131865   9.956   9.704   3.667
10541WAT     H231866   9.825   9.690   3.763
10542WAT      O31867   0.803   0.925   4.841
10542WAT     H131868   0.711   0.925   4.881
10542WAT     H231869   0.824   1.016   4.806
10543WAT      O31870   3.993   7.689   3.999
10543WAT     H131871   4.039   7.600   4.009
10543WAT     H231872   3.991   7.713   3.902
10544WAT      O31873   5.779   4.009   9.403
10544WAT     H131874   5.696   3.956   9.418
10544WAT     H231875   5.765   4.072   9.327
10545WAT      O31876   5.589   8.948   3.846
10545WAT     H131877   5.633   8.915   3.930
10545WAT     H231878   5.654   9.004   3.794
10546WAT      O31879   6.160   4.626   4.892
10546WAT     H131880   6.224   4.550   4.894
10546WAT     H231881   6.131   4.643   4.798
10547WAT      O31882   4.313   9.247   2.290
10547WAT     H131883   4.279   9.171   2.235
10547WAT     H231884   4.236   9.294   2.334
10548WAT      O31885   2.431   7.483   5.102
10548WAT     H131886   2.461   7.391   5.127
10548WAT     H231887   2.489   7.550   5.149
10549WAT      O31888   1.046   7.595   2.082
10549WAT     H131889   1.046   7.579   2.181
10549WAT     H231890   1.111   7.668   2.061
10550WAT      O31891   4.882   6.837   0.020
10550WAT     H131892   4.905   6.762  -0.042
10550WAT     H231893   4.788   6.826   0.052
10551WAT      O31894   6.638   3.330   5.928
10551WAT     H131895   6.585   3.251   5.960
10551WAT     H231896   6.698   3.302   5.854
10552WAT      O31897   8.292   2.729   9.345
10552WAT     H131898   8.336   2.665   9.407
10552WAT     H231899   8.319   2.823   9.368
10553WAT      O31900   7.426   2.809   8.044
10553WAT     H131901   7.526   2.806   8.055
10553WAT     H231902   7.403   2.847   7.955
10554WAT      O31903   2.318   5.278   3.581
10554WAT     H131904   2.308   5.191   3.533
10554WAT     H231905   2.228   5.321   3.590
10555WAT      O31906   8.540   6.906   5.512
10555WAT     H131907   8.514   6.855   5.595
10555WAT     H231908   8.639   6.916   5.509
10556WAT      O31909   5.485   8.022   4.057
10556WAT     H131910   5.485   7.936   4.005
10556WAT     H231911   5.579   8.049   4.077
10557WAT      O31912   7.768   4.582   5.337
10557WAT     H131913   7.799   4.497   5.294
10557WAT     H231914   7.677   4.606   5.302
10558WAT      O31915   0.294   5.938   7.124
10558WAT     H131916   0.267   5.848   7.157
10558WAT     H231917   0.220   6.003   7.140
10559WAT      O31918   1.411   5.635   5.515
10559WAT     H131919   1.411   5.666   5.420
10559WAT     H231920   1.321   5.650   5.556
10560WAT      O31921   5.190   5.031   7.159
10560WAT     H131922   5.138   4.946   7.165
10560WAT     H231923   5.126   5.108   7.150
10561WAT      O31924   7.420   3.611   8.504
10561WAT     H131925   7.499   3.614   8.565
10561WAT     H231926   7.451   3.605   8.409
10562WAT      O31927   6.743   1.715   4.360
10562WAT     H131928   6.699   1.803   4.344
10562WAT     H231929   6.695   1.666   4.433
10563WAT      O31930   4.443   5.262   3.747
10563WAT     H131931   4.348   5.233   3.743
10563WAT     H231932   4.465   5.316   3.666
10564WAT      O31933   8.423   8.600   3.731
10564WAT     H131934   8.436   8.541   3.652
10564WAT     H231935   8.480   8.569   3.806
10565WAT      O31936   5.222   0.711   6.900
10565WAT     H131937   5.250   0.718   6.804
10565WAT     H231938   5.303   0.711   6.958
10566WAT      O31939   8.970   8.471   9.642
10566WAT     H131940   9.049   8.441   9.588
10566WAT     H231941   8.935   8.557   9.604
10567WAT      O31942   8.353   4.063   7.735
10567WAT     H131943   8.263   4.085   7.698
10567WAT     H231944   8.403   4.005   7.672
10568WAT      O31945   5.142   6.419   4.983
10568WAT     H131946   5.047   6.391   4.967
10568WAT     H231947   5.158   6.426   5.081
10569WAT      O31948   2.993   0.130   0.414
10569WAT     H131949   2.970   0.202   0.480
10569WAT     H231950   2.949   0.045   0.443
10570WAT      O31951   8.720   9.014   9.630
10570WAT     H131952   8.644   9.012   9.565
10570WAT     H231953   8.782   9.088   9.606
10571WAT      O31954   5.813   2.399   9.107
10571WAT     H131955   5.775   2.461   9.039
10571WAT     H231956   5.911   2.386   9.089
10572WAT      O31957   6.129   7.600   6.103
10572WAT     H131958   6.093   7.636   6.017
10572WAT     H231959   6.227   7.619   6.109
10573WAT      O31960   5.128   1.848   9.022
10573WAT     H131961   5.137   1.852   9.122
10573WAT     H231962   5.057   1.783   8.997
10574WAT      O31963   4.564   8.577   8.218
10574WAT     H131964   4.630   8.515   8.178
10574WAT     H231965   4.477   8.529   8.231
10575WAT      O31966   8.189   0.641   9.631
10575WAT     H131967   8.187   0.585   9.713
10575WAT     H231968   8.148   0.730   9.650
10576WAT      O31969   3.569   1.602   6.051
10576WAT     H131970   3.611   1.693   6.059
10576WAT     H231971   3.636   1.532   6.076
10577WAT      O31972   0.734   7.335   3.607
10577WAT     H131973   0.646   7.377   3.630
10577WAT     H231974   0.778   7.388   3.534
10578WAT      O31975   2.826   6.979   7.224
10578WAT     H131976   2.796   7.000   7.317
10578WAT     H231977   2.926   6.989   7.219
10579WAT      O31978   8.645   3.757   4.791
10579WAT     H131979   8.739   3.732   4.765
10579WAT     H231980   8.647   3.806   4.878
10580WAT      O31981   7.657   3.125   0.796
10580WAT     H131982   7.703   3.144   0.710
10580WAT     H231983   7.611   3.037   0.791
10581WAT      O31984   9.868   4.838   2.190
10581WAT     H131985   9.928   4.832   2.110
10581WAT     H231986   9.876   4.755   2.244
10582WAT      O31987   2.644   4.614   1.180
10582WAT     H131988   2.658   4.576   1.089
10582WAT     H231989   2.556   4.661   1.183
10583WAT      O31990   5.137   4.669   2.504
10583WAT     H131991   5.124   4.642   2.600
10583WAT     H231992   5.121   4.590   2.445
10584WAT      O31993   5.861   4.977   6.072
10584WAT     H131994   5.817   4.919   6.003
10584WAT     H231995   5.803   5.056   6.091
10585WAT      O31996   1.273   2.485   2.819
10585WAT     H131997   1.206   2.412   2.835
10585WAT     H231998   1.332   2.494   2.899
10586WAT      O31999   5.096   8.578   8.973
10586WAT     H132000   5.170   8.601   8.909
10586WAT     H232001   5.010   8.616   8.939
10587WAT      O32002   2.283   8.258   5.895
10587WAT     H132003   2.380   8.274   5.914
10587WAT     H232004   2.266   8.268   5.797
10588WAT      O32005   3.595   4.333   8.968
10588WAT     H132006   3.594   4.433   8.978
10588WAT     H232007   3.689   4.302   8.956
10589WAT      O32008   6.838   0.566   4.221
10589WAT     H132009   6.853   0.625   4.300
10589WAT     H232010   6.902   0.592   4.148
10590WAT      O32011   3.461   0.143   6.773
10590WAT     H132012   3.553   0.134   6.812
10590WAT     H232013   3.446   0.070   6.707
10591WAT      O32014   3.698   8.768   8.550
10591WAT     H132015   3.783   8.737   8.593
10591WAT     H232016   3.625   8.704   8.569
10592WAT      O32017   9.533   0.901   7.370
10592WAT     H132018   9.631   0.897   7.355
10592WAT     H232019   9.511   0.978   7.430
10593WAT      O32020   0.460   0.185   4.434
10593WAT     H132021   0.490   0.242   4.358
10593WAT     H232022   0.360   0.183   4.437
10594WAT      O32023   4.911   6.928   3.501
10594WAT     H132024   4.877   6.998   3.565
10594WAT     H232025   5.002   6.954   3.470
10595WAT      O32026   7.810   5.272   7.351
10595WAT     H132027   7.728   5.273   7.408
10595WAT     H232028   7.885   5.317   7.399
10596WAT      O32029   4.864   7.222   1.560
10596WAT     H132030   4.888   7.147   1.498
10596WAT     H232031   4.937   7.235   1.627
10597WAT      O32032   5.498   6.022   2.548
10597WAT     H132033   5.585   5.991   2.585
10597WAT     H232034   5.514   6.099   2.486
10598WAT      O32035   4.852   9.302   8.723
10598WAT     H132036   4.868   9.333   8.817
10598WAT     H232037   4.849   9.380   8.662
10599WAT      O32038   0.470   6.649   4.932
10599WAT     H132039   0.408   6.726   4.917
10599WAT     H232040   0.452   6.609   5.022
10600WAT      O32041   9.215   2.066   4.673
10600WAT     H132042   9.174   2.067   4.764
10600WAT     H232043   9.168   2.132   4.614
10601WAT      O32044   6.034   9.030   5.401
10601WAT     H132045   5.945   9.013   5.443
10601WAT     H232046   6.022   9.059   5.306
10602WAT      O32047   2.720   3.271   8.789
10602WAT     H132048   2.662   3.293   8.867
10602WAT     H232049   2.781   3.196   8.812
10603WAT      O32050   3.483   3.981   1.358
10603WAT     H132051   3.516   3.918   1.429
10603WAT     H232052   3.515   4.074   1.379
10604WAT      O32053   4.990   7.907   2.874
10604WAT     H132054   5.016   7.838   2.806
10604WAT     H232055   4.987   7.997   2.831
10605WAT      O32056   7.924   1.420   4.175
10605WAT     H132057   7.889   1.514   4.171
10605WAT     H232058   7.986   1.404   4.099
10606WAT      O32059   6.964   2.735   3.284
10606WAT     H132060   6.896   2.712   3.215
10606WAT     H232061   6.918   2.763   3.368
10607WAT      O32062   4.611   2.109   2.712
10607WAT     H132063   4.632   2.048   2.788
10607WAT     H232064   4.543   2.065   2.652
10608WAT      O32065   2.134   5.897   1.010
10608WAT     H132066   2.204   5.877   1.078
10608WAT     H232067   2.060   5.950   1.053
10609WAT      O32068   0.908   3.068   5.894
10609WAT     H132069   0.934   3.122   5.814
10609WAT     H232070   0.932   2.973   5.879
10610WAT      O32071   5.436   2.146   9.678
10610WAT     H132072   5.418   2.167   9.774
10610WAT     H232073   5.517   2.088   9.671
10611WAT      O32074   2.053   0.779   9.206
10611WAT     H132075   2.100   0.866   9.188
10611WAT     H232076   2.118   0.714   9.245
10612WAT      O32077   8.153   8.486   6.617
10612WAT     H132078   8.231   8.426   6.631
10612WAT     H232079   8.172   8.550   6.542
10613WAT      O32080   8.129   0.284   4.886
10613WAT     H132081   8.163   0.248   4.973
10613WAT     H232082   8.192   0.355   4.853
10614WAT      O32083   1.937   4.851   5.146
10614WAT     H132084   2.001   4.793   5.196
10614WAT     H232085   1.884   4.794   5.083
10615WAT      O32086   9.010   6.140   5.209
10615WAT     H132087   9.041   6.190   5.289
10615WAT     H232088   9.073   6.066   5.188
10616WAT      O32089   4.843   4.590   1.683
10616WAT     H132090   4.834   4.557   1.777
10616WAT     H232091   4.859   4.689   1.684
10617WAT      O32092   3.374   1.728   0.468
10617WAT     H132093   3.300   1.672   0.505
10617WAT     H232094   3.339   1.819   0.446
10618WAT      O32095   6.928   1.478   9.566
10618WAT     H132096   6.933   1.382   9.592
10618WAT     H232097   6.936   1.486   9.467
10619WAT      O32098   0.425   3.434   5.300
10619WAT     H132099   0.449   3.343   5.334
10619WAT     H232100   0.434   3.501   5.374
10620WAT      O32101   1.171   3.496   5.327
10620WAT     H132102   1.184   3.584   5.373
10620WAT     H232103   1.170   3.510   5.228
10621WAT      O32104   0.662   5.472   6.613
10621WAT     H132105   0.732   5.473   6.684
10621WAT     H232106   0.632   5.565   6.594
10622WAT      O32107   3.627   3.955   8.744
10622WAT     H132108   3.626   3.941   8.843
10622WAT     H232109   3.549   3.908   8.703
10623WAT      O32110   3.021   2.628   1.821
10623WAT     H132111   3.018   2.646   1.920
10623WAT     H232112   2.942   2.572   1.796
10624WAT      O32113   2.254   1.979   0.038
10624WAT     H132114   2.254   1.879   0.035
10624WAT     H232115   2.335   2.014  -0.009
10625WAT      O32116   7.494   2.397   4.184
10625WAT     H132117   7.527   2.380   4.276
10625WAT     H232118   7.403   2.356   4.173
10626WAT      O32119   9.784   6.930   7.875
10626WAT     H132120   9.863   6.892   7.924
10626WAT     H232121   9.772   7.026   7.900
10627WAT      O32122   7.628   0.229   0.013
10627WAT     H132123   7.644   0.228   0.112
10627WAT     H232124   7.569   0.152  -0.012
10628WAT      O32125   9.545   3.716   4.868
10628WAT     H132126   9.632   3.760   4.845
10628WAT     H232127   9.529   3.639   4.806
10629WAT      O32128   4.197   7.670   2.586
10629WAT     H132129   4.152   7.708   2.505
10629WAT     H232130   4.164   7.577   2.601
10630WAT      O32131   5.827   3.594   9.228
10630WAT     H132132   5.778   3.538   9.162
10630WAT     H232133   5.770   3.609   9.309
10631WAT      O32134   1.535   4.773   8.288
10631WAT     H132135   1.631   4.797   8.292
10631WAT     H232136   1.524   4.676   8.311
10632WAT      O32137   7.617   2.698   5.273
10632WAT     H132138   7.649   2.666   5.184
10632WAT     H232139   7.585   2.793   5.265
10633WAT      O32140   0.046   0.977   0.805
10633WAT     H132141   0.123   0.914   0.808
10633WAT     H232142  -0.004   0.964   0.719
10634WAT      O32143   1.315   4.136   0.443
10634WAT     H132144   1.247   4.063   0.443
10634WAT     H232145   1.407   4.096   0.448
10635WAT      O32146   2.027   2.979   0.254
10635WAT     H132147   1.964   3.036   0.305
10635WAT     H232148   2.117   3.023   0.248
10636WAT      O32149   4.616   5.507   8.087
10636WAT     H132150   4.678   5.519   8.009
10636WAT     H232151   4.574   5.417   8.082
10637WAT      O32152   6.728   0.331   7.394
10637WAT     H132153   6.727   0.425   7.359
10637WAT     H232154   6.708   0.332   7.491
10638WAT      O32155   0.439   5.784   4.468
10638WAT     H132156   0.345   5.813   4.485
10638WAT     H232157   0.461   5.796   4.371
10639WAT      O32158   9.358   2.710   6.942
10639WAT     H132159   9.337   2.800   6.902
10639WAT     H232160   9.456   2.701   6.954
10640WAT      O32161   3.426   6.630   8.775
10640WAT     H132162   3.503   6.608   8.714
10640WAT     H232163   3.408   6.728   8.772
10641WAT      O32164   8.075   0.887   9.694
10641WAT     H132165   8.118   0.965   9.740
10641WAT     H232166   7.985   0.914   9.660
10642WAT      O32167   5.139   0.786   2.425
10642WAT     H132168   5.219   0.732   2.401
10642WAT     H232169   5.094   0.744   2.505
10643WAT      O32170   9.844   0.622   2.934
10643WAT     H132171   9.835   0.682   2.855
10643WAT     H232172   9.884   0.673   3.010
10644WAT      O32173   2.363   8.798   6.986
10644WAT     H132174   2.417   8.735   6.931
10644WAT     H232175   2.269   8.802   6.953
10645WAT      O32176   5.431   4.989   7.670
10645WAT     H132177   5.360   4.919   7.658
10645WAT     H232178   5.422   5.031   7.760
10646WAT      O32179   2.435   4.649   8.080
10646WAT     H132180   2.350   4.609   8.115
10646WAT     H232181   2.466   4.597   8.001
10647WAT      O32182   4.945   6.023   2.958
10647WAT     H132183   4.969   6.075   3.040
10647WAT     H232184   4.986   5.932   2.962
10648WAT      O32185   3.755   7.148   6.911
10648WAT     H132186   3.657   7.134   6.915
10648WAT     H232187   3.799   7.103   6.989
10649WAT      O32188   7.118   9.778   8.272
10649WAT     H132189   7.149   9.853   8.214
10649WAT     H232190   7.151   9.691   8.236
10650WAT      O32191   0.474   9.349   2.794
10650WAT     H132192   0.415   9.421   2.758
10650WAT     H232193   0.521   9.303   2.719
10651WAT      O32194   7.187   3.272   4.470
10651WAT     H132195   7.232   3.225   4.395
10651WAT     H232196   7.093   3.295   4.444
10652WAT      O32197   2.049   9.157   5.339
10652WAT     H132198   2.148   9.173   5.328
10652WAT     H232199   2.015   9.104   5.261
10653WAT      O32200   4.707   9.051   7.353
10653WAT     H132201   4.687   9.017   7.445
10653WAT     H232202   4.746   9.143   7.360
10654WAT      O32203   7.669   4.579   8.143
10654WAT     H132204   7.581   4.544   8.178
10654WAT     H232205   7.729   4.600   8.220
10655WAT      O32206   1.969   7.943   9.172
10655WAT     H132207   1.996   7.924   9.266
10655WAT     H232208   2.001   7.869   9.113
10656WAT      O32209   4.095   0.111   7.197
10656WAT     H132210   4.192   0.094   7.214
10656WAT     H232211   4.040   0.045   7.247
10657WAT      O32212   0.957   5.238   0.338
10657WAT     H132213   0.889   5.310   0.347
10657WAT     H232214   0.949   5.196   0.247
10658WAT      O32215   9.434   4.885   1.975
10658WAT     H132216   9.374   4.807   1.959
10658WAT     H232217   9.446   4.936   1.890
10659WAT      O32218   0.104   1.670   1.626
10659WAT     H132219   0.185   1.654   1.681
10659WAT     H232220   0.088   1.768   1.617
10660WAT      O32221   2.302   6.282   1.496
10660WAT     H132222   2.235   6.271   1.422
10660WAT     H232223   2.394   6.286   1.457
10661WAT      O32224   1.625   4.211   0.812
10661WAT     H132225   1.672   4.285   0.861
10661WAT     H232226   1.635   4.226   0.714
10662WAT      O32227   2.028   4.207   7.332
10662WAT     H132228   2.100   4.142   7.305
10662WAT     H232229   1.985   4.175   7.417
10663WAT      O32230   5.020   6.321   7.070
10663WAT     H132231   5.018   6.396   7.004
10663WAT     H232232   4.969   6.243   7.033
10664WAT      O32233   7.180   5.076   4.786
10664WAT     H132234   7.264   5.121   4.755
10664WAT     H232235   7.201   4.983   4.816
10665WAT      O32236   5.902   7.826   9.561
10665WAT     H132237   5.955   7.840   9.645
10665WAT     H232238   5.828   7.893   9.557
10666WAT      O32239   2.698   9.087   2.080
10666WAT     H132240   2.667   9.060   2.171
10666WAT     H232241   2.677   9.183   2.065
10667WAT      O32242   3.422   3.777   0.709
10667WAT     H132243   3.440   3.741   0.618
10667WAT     H232244   3.327   3.758   0.734
10668WAT      O32245   7.219   2.995   1.889
10668WAT     H132246   7.142   3.038   1.843
10668WAT     H232247   7.202   2.993   1.988
10669WAT      O32248   9.033   5.814   3.755
10669WAT     H132249   9.078   5.741   3.806
10669WAT     H232250   8.933   5.804   3.762
10670WAT      O32251   1.709   6.664   6.231
10670WAT     H132252   1.753   6.749   6.202
10670WAT     H232253   1.633   6.685   6.293
10671WAT      O32254   5.835   1.869   4.119
10671WAT     H132255   5.827   1.968   4.108
10671WAT     H232256   5.750   1.826   4.087
10672WAT      O32257   1.364   9.820   8.797
10672WAT     H132258   1.401   9.827   8.704
10672WAT     H232259   1.372   9.725   8.828
10673WAT      O32260   1.697   2.950   0.087
10673WAT     H132261   1.787   2.931   0.048
10673WAT     H232262   1.629   2.894   0.041
10674WAT      O32263   8.458   6.080   4.271
10674WAT     H132264   8.553   6.106   4.292
10674WAT     H232265   8.457   6.016   4.194
10675WAT      O32266   4.549   0.337   5.137
10675WAT     H132267   4.576   0.241   5.144
10675WAT     H232268   4.477   0.356   5.203
10676WAT      O32269   7.143   6.196   9.397
10676WAT     H132270   7.139   6.102   9.363
10676WAT     H232271   7.105   6.199   9.490
10677WAT      O32272   7.882   7.663   3.152
10677WAT     H132273   7.897   7.566   3.171
10677WAT     H232274   7.869   7.675   3.054
10678WAT      O32275   3.893   9.547   5.105
10678WAT     H132276   3.813   9.599   5.078
10678WAT     H232277   3.868   9.481   5.176
10679WAT      O32278   5.079   8.992   3.730
10679WAT     H132279   5.003   8.947   3.684
10679WAT     H232280   5.112   9.067   3.673
10680WAT      O32281   0.307   5.961   2.159
10680WAT     H132282   0.295   6.038   2.096
10680WAT     H232283   0.257   5.978   2.243
10681WAT      O32284   0.949   3.792   3.378
10681WAT     H132285   0.956   3.714   3.440
10681WAT     H232286   0.944   3.760   3.284
10682WAT      O32287   1.836   4.291   9.793
10682WAT     H132288   1.917   4.347   9.779
10682WAT     H232289   1.796   4.268   9.704
10683WAT      O32290   0.731   1.250   0.426
10683WAT     H132291   0.701   1.342   0.454
10683WAT     H232292   0.820   1.256   0.382
10684WAT      O32293   9.832   8.411   2.393
10684WAT     H132294   9.883   8.432   2.476
10684WAT     H232295   9.789   8.321   2.402
10685WAT      O32296   9.163   7.181   1.263
10685WAT     H132297   9.206   7.139   1.342
10685WAT     H232298   9.177   7.123   1.182
10686WAT      O32299   4.453   3.873   3.953
10686WAT     H132300   4.524   3.940   3.933
10686WAT     H232301   4.472   3.828   4.040
10687WAT      O32302   9.111   0.253   9.369
10687WAT     H132303   9.024   0.209   9.390
10687WAT     H232304   9.154   0.207   9.291
10688WAT      O32305   8.677   8.609   9.574
10688WAT     H132306   8.613   8.559   9.517
10688WAT     H232307   8.655   8.594   9.670
10689WAT      O32308   1.941   3.702   5.258
10689WAT     H132309   2.010   3.756   5.305
10689WAT     H232310   1.875   3.762   5.214
10690WAT      O32311   5.637   8.774   5.925
10690WAT     H132312   5.583   8.781   5.841
10690WAT     H232313   5.695   8.855   5.935
10691WAT      O32314   2.053   6.991   5.743
10691WAT     H132315   1.964   7.031   5.767
10691WAT     H232316   2.041   6.928   5.667
10692WAT      O32317   0.580   1.637   9.868
10692WAT     H132318   0.510   1.706   9.849
10692WAT     H232319   0.587   1.575   9.789
10693WAT      O32320   0.254   5.964   8.698
10693WAT     H132321   0.227   5.924   8.786
10693WAT     H232322   0.196   6.043   8.679
10694WAT      O32323   7.966   1.533   4.617
10694WAT     H132324   7.972   1.499   4.711
10694WAT     H232325   7.908   1.472   4.563
10695WAT      O32326   2.718   1.379   4.142
10695WAT     H132327   2.774   1.298   4.157
10695WAT     H232328   2.734   1.445   4.216
10696WAT      O32329   7.210   0.638   5.527
10696WAT     H132330   7.195   0.540   5.541
10696WAT     H232331   7.232   0.681   5.615
10697WAT      O32332   8.946   8.486   3.688
10697WAT     H132333   8.908   8.457   3.776
10697WAT     H232334   9.041   8.457   3.682
10698WAT      O32335   3.546   9.825   2.001
10698WAT     H132336   3.495   9.742   2.020
10698WAT     H232337   3.641   9.814   2.031
10699WAT      O32338   5.117   2.754   4.334
10699WAT     H132339   5.118   2.799   4.424
10699WAT     H232340   5.090   2.658   4.345
10700WAT      O32341   4.851   1.779   6.500
10700WAT     H132342   4.752   1.785   6.489
10700WAT     H232343   4.878   1.683   6.506
10701WAT      O32344   3.301   1.078   6.402
10701WAT     H132345   3.376   1.137   6.373
10701WAT     H232346   3.337   0.991   6.435
10702WAT      O32347   6.995   3.589   5.782
10702WAT     H132348   6.943   3.590   5.867
10702WAT     H232349   6.959   3.519   5.720
10703WAT      O32350   7.369   3.179   8.303
10703WAT     H132351   7.388   3.141   8.394
10703WAT     H232352   7.455   3.185   8.251
10704WAT      O32353   1.337   3.411   0.486
10704WAT     H132354   1.270   3.405   0.559
10704WAT     H232355   1.379   3.322   0.471
10705WAT      O32356   7.631   3.627   0.765
10705WAT     H132357   7.556   3.684   0.801
10705WAT     H232358   7.687   3.682   0.702
10706WAT      O32359   4.426   9.347   5.113
10706WAT     H132360   4.373   9.320   5.194
10706WAT     H232361   4.503   9.404   5.142
10707WAT      O32362   9.327   2.618   8.100
10707WAT     H132363   9.256   2.562   8.142
10707WAT     H232364   9.305   2.715   8.113
10708WAT      O32365   9.527   9.318   9.198
10708WAT     H132366   9.452   9.269   9.153
10708WAT     H232367   9.492   9.404   9.236
10709WAT      O32368   8.085   2.495   4.361
10709WAT     H132369   8.049   2.510   4.454
10709WAT     H232370   8.012   2.459   4.303
10710WAT      O32371   9.488   9.153   1.678
10710WAT     H132372   9.569   9.098   1.659
10710WAT     H232373   9.500   9.245   1.643
10711WAT      O32374   1.097   8.561   9.522
10711WAT     H132375   1.061   8.469   9.538
10711WAT     H232376   1.192   8.554   9.491
10712WAT      O32377   4.016   1.495   9.618
10712WAT     H132378   4.083   1.454   9.556
10712WAT     H232379   4.062   1.559   9.679
10713WAT      O32380   7.582   0.157   2.506
10713WAT     H132381   7.606   0.158   2.409
10713WAT     H232382   7.531   0.240   2.529
10714WAT      O32383   9.701   7.696   1.645
10714WAT     H132384   9.601   7.700   1.644
10714WAT     H232385   9.735   7.688   1.551
10715WAT      O32386   4.790   1.680   2.868
10715WAT     H132387   4.846   1.674   2.951
10715WAT     H232388   4.740   1.595   2.855
10716WAT      O32389   1.964   3.028   6.863
10716WAT     H132390   1.920   2.967   6.797
10716WAT     H232391   2.055   3.053   6.830
10717WAT      O32392   4.720   2.332   5.124
10717WAT     H132393   4.628   2.293   5.124
10717WAT     H232394   4.719   2.417   5.177
10718WAT      O32395   3.132   9.615   4.948
10718WAT     H132396   3.035   9.600   4.969
10718WAT     H232397   3.188   9.576   5.021
10719WAT      O32398   1.728   0.941   8.834
10719WAT     H132399   1.642   0.944   8.782
10719WAT     H232400   1.716   0.887   8.917
10720WAT      O32401   7.708   8.012   8.539
10720WAT     H132402   7.658   8.098   8.543
10720WAT     H232403   7.644   7.935   8.549
10721WAT      O32404   3.059   2.538   4.885
10721WAT     H132405   3.127   2.485   4.936
10721WAT     H232406   3.018   2.480   4.815
10722WAT      O32407   7.100   0.082   1.103
10722WAT     H132408   7.004   0.109   1.091
10722WAT     H232409   7.154   0.162   1.129
10723WAT      O32410   3.614   3.973   2.487
10723WAT     H132411   3.525   4.006   2.518
10723WAT     H232412   3.682   4.046   2.496
10724WAT      O32413   5.918   9.834   9.678
10724WAT     H132414   5.884   9.907   9.619
10724WAT     H232415   5.863   9.751   9.664
10725WAT      O32416   1.814   0.871   9.617
10725WAT     H132417   1.862   0.902   9.535
10725WAT     H232418   1.803   0.772   9.614
10726WAT      O32419   1.768   3.810   3.494
10726WAT     H132420   1.754   3.909   3.501
10726WAT     H232421   1.679   3.764   3.490
10727WAT      O32422   6.760   7.486   2.164
10727WAT     H132423   6.786   7.508   2.258
10727WAT     H232424   6.840   7.490   2.105
10728WAT      O32425   8.441   9.733   0.890
10728WAT     H132426   8.509   9.783   0.944
10728WAT     H232427   8.394   9.666   0.948
10729WAT      O32428   3.347   4.510   1.421
10729WAT     H132429   3.397   4.595   1.437
10729WAT     H232430   3.272   4.527   1.357
10730WAT      O32431   3.308   7.250   3.994
10730WAT     H132432   3.243   7.316   4.032
10730WAT     H232433   3.377   7.299   3.940
10731WAT      O32434   4.295   0.562   9.627
10731WAT     H132435   4.342   0.645   9.657
10731WAT     H232436   4.350   0.514   9.560
10732WAT      O32437   0.457   5.615   7.663
10732WAT     H132438   0.433   5.520   7.647
10732WAT     H232439   0.443   5.668   7.579
10733WAT      O32440   9.827   0.636   8.734
10733WAT     H132441   9.747   0.577   8.740
10733WAT     H232442   9.888   0.603   8.661
10734WAT      O32443   2.259   6.513   0.366
10734WAT     H132444   2.335   6.449   0.359
10734WAT     H232445   2.257   6.553   0.457
10735WAT      O32446   7.378   8.927   4.600
10735WAT     H132447   7.373   9.021   4.567
10735WAT     H232448   7.424   8.924   4.689
10736WAT      O32449   9.704   5.170   3.003
10736WAT     H132450   9.786   5.114   3.011
10736WAT     H232451   9.624   5.116   3.030
10737WAT      O32452   8.706   5.878   1.350
10737WAT     H132453   8.788   5.930   1.328
10737WAT     H232454   8.700   5.866   1.449
10738WAT      O32455   6.915   2.096   6.863
10738WAT     H132456   6.818   2.094   6.840
10738WAT     H232457   6.928   2.053   6.952
10739WAT      O32458   7.286   9.596   2.184
10739WAT     H132459   7.287   9.515   2.127
10739WAT     H232460   7.205   9.595   2.242
10740WAT      O32461   6.186   0.324   0.372
10740WAT     H132462   6.265   0.270   0.343
10740WAT     H232463   6.209   0.422   0.369
10741WAT      O32464   7.915   6.629   8.107
10741WAT     H132465   8.009   6.597   8.118
10741WAT     H232466   7.912   6.727   8.124
10742WAT      O32467   7.028   5.853   7.453
10742WAT     H132468   6.997   5.775   7.399
10742WAT     H232469   6.979   5.855   7.540
10743WAT      O32470   2.831   5.300   4.687
10743WAT     H132471   2.836   5.374   4.754
10743WAT     H232472   2.861   5.333   4.598
10744WAT      O32473   6.930   2.110   6.417
10744WAT     H132474   6.897   2.117   6.511
10744WAT     H232475   6.904   2.021   6.379
10745WAT      O32476   6.261   8.048   3.427
10745WAT     H132477   6.305   8.128   3.468
10745WAT     H232478   6.229   8.070   3.335
10746WAT      O32479   9.012   1.581   5.215
10746WAT     H132480   8.964   1.495   5.231
10746WAT     H232481   9.099   1.563   5.169
10747WAT      O32482   2.921   9.453   3.769
10747WAT     H132483   2.861   9.532   3.755
10747WAT     H232484   2.877   9.371   3.732
10748WAT      O32485   6.207   6.818   3.273
10748WAT     H132486   6.274   6.864   3.332
10748WAT     H232487   6.206   6.720   3.293
10749WAT      O32488   6.683   2.501   2.154
10749WAT     H132489   6.635   2.488   2.068
10749WAT     H232490   6.782   2.490   2.139
10750WAT      O32491   7.427   9.583   2.473
10750WAT     H132492   7.336   9.554   2.505
10750WAT     H232493   7.494   9.512   2.496
10751WAT      O32494   2.089   7.837   8.241
10751WAT     H132495   2.110   7.757   8.185
10751WAT     H232496   2.175   7.879   8.272
10752WAT      O32497   2.192   7.163   4.162
10752WAT     H132498   2.121   7.214   4.211
10752WAT     H232499   2.281   7.179   4.206
10753WAT      O32500   2.297   1.638   1.801
10753WAT     H132501   2.372   1.586   1.841
10753WAT     H232502   2.298   1.626   1.701
10754WAT      O32503   1.772   3.204   6.593
10754WAT     H132504   1.865   3.195   6.558
10754WAT     H232505   1.744   3.118   6.636
10755WAT      O32506   6.951   4.971   2.676
10755WAT     H132507   6.880   5.031   2.713
10755WAT     H232508   6.944   4.970   2.576
10756WAT      O32509   5.327   5.029   5.013
10756WAT     H132510   5.423   5.041   5.036
10756WAT     H232511   5.271   5.088   5.070
10757WAT      O32512   2.411   8.936   2.502
10757WAT     H132513   2.367   8.847   2.510
10757WAT     H232514   2.359   9.004   2.554
10758WAT      O32515   2.528   4.740   2.251
10758WAT     H132516   2.433   4.772   2.254
10758WAT     H232517   2.585   4.808   2.204
10759WAT      O32518   8.780   9.705   3.045
10759WAT     H132519   8.733   9.617   3.051
10759WAT     H232520   8.775   9.740   2.952
10760WAT      O32521   4.069   1.801   3.025
10760WAT     H132522   3.996   1.773   2.963
10760WAT     H232523   4.155   1.808   2.975
10761WAT      O32524   8.098   2.676   5.773
10761WAT     H132525   8.177   2.691   5.832
10761WAT     H232526   8.121   2.607   5.704
10762WAT      O32527   2.870   3.793   2.058
10762WAT     H132528   2.888   3.891   2.068
10762WAT     H232529   2.912   3.744   2.134
10763WAT      O32530   5.737   4.765   4.136
10763WAT     H132531   5.698   4.777   4.045
10763WAT     H232532   5.834   4.739   4.127
10764WAT      O32533   7.314   8.662   0.537
10764WAT     H132534   7.278   8.573   0.512
10764WAT     H232535   7.414   8.662   0.526
10765WAT      O32536   2.578   6.997   0.811
10765WAT     H132537   2.602   6.981   0.715
10765WAT     H232538   2.492   7.047   0.816
10766WAT      O32539   9.028   9.015   5.850
10766WAT     H132540   9.003   8.919   5.867
10766WAT     H232541   9.123   9.029   5.877
10767WAT      O32542   3.482   3.807   5.455
10767WAT     H132543   3.536   3.777   5.534
10767WAT     H232544   3.506   3.902   5.433
10768WAT      O32545   7.287   5.243   9.104
10768WAT     H132546   7.345   5.175   9.058
10768WAT     H232547   7.255   5.205   9.191
10769WAT      O32548   7.601   0.461   1.812
10769WAT     H132549   7.644   0.535   1.864
10769WAT     H232550   7.650   0.376   1.828
10770WAT      O32551   8.344   1.807   2.728
10770WAT     H132552   8.309   1.771   2.814
10770WAT     H232553   8.378   1.732   2.672
10771WAT      O32554   0.655   1.004   0.776
10771WAT     H132555   0.633   1.098   0.803
10771WAT     H232556   0.666   0.947   0.857
10772WAT      O32557   7.026   4.864   7.380
10772WAT     H132558   7.093   4.934   7.404
10772WAT     H232559   6.946   4.907   7.339
10773WAT      O32560   7.343   0.626   7.982
10773WAT     H132561   7.271   0.695   7.980
10773WAT     H232562   7.362   0.601   8.077
10774WAT      O32563   0.781   3.993   3.331
10774WAT     H132564   0.782   3.991   3.231
10774WAT     H232565   0.847   3.928   3.367
10775WAT      O32566   2.781   5.348   1.999
10775WAT     H132567   2.812   5.254   2.009
10775WAT     H232568   2.813   5.385   1.911
10776WAT      O32569   8.958   1.365   1.092
10776WAT     H132570   8.924   1.421   1.168
10776WAT     H232571   8.946   1.269   1.114
10777WAT      O32572   1.157   8.297   5.616
10777WAT     H132573   1.240   8.317   5.668
10777WAT     H232574   1.180   8.237   5.539
10778WAT      O32575   4.082   9.656   7.662
10778WAT     H132576   4.125   9.697   7.582
10778WAT     H232577   4.115   9.562   7.672
10779WAT      O32578   2.727   3.543   3.973
10779WAT     H132579   2.666   3.469   3.998
10779WAT     H232580   2.682   3.602   3.905
10780WAT      O32581   5.051   3.427   2.911
10780WAT     H132582   5.016   3.365   2.981
10780WAT     H232583   4.984   3.435   2.837
10781WAT      O32584   7.377   2.457   2.498
10781WAT     H132585   7.384   2.505   2.410
10781WAT     H232586   7.417   2.514   2.570
10782WAT      O32587   7.647   9.505   0.307
10782WAT     H132588   7.585   9.446   0.360
10782WAT     H232589   7.658   9.592   0.354
10783WAT      O32590   8.981   7.481   8.643
10783WAT     H132591   9.075   7.475   8.608
10783WAT     H232592   8.928   7.402   8.611
10784WAT      O32593   4.475   8.585   3.387
10784WAT     H132594   4.419   8.560   3.308
10784WAT     H232595   4.487   8.684   3.389
10785WAT      O32596   3.477   5.011   3.162
10785WAT     H132597   3.576   4.996   3.156
10785WAT     H232598   3.439   5.015   3.069
10786WAT      O32599   0.414   5.341   9.141
10786WAT     H132600   0.481   5.394   9.088
10786WAT     H232601   0.460   5.295   9.216
10787WAT      O32602   9.564   5.530   5.544
10787WAT     H132603   9.639   5.504   5.604
10787WAT     H232604   9.490   5.569   5.599
10788WAT      O32605   4.775   4.214   7.288
10788WAT     H132606   4.869   4.234   7.317
10788WAT     H232607   4.753   4.269   7.208
10789WAT      O32608   1.285   1.823   7.456
10789WAT     H132609   1.278   1.835   7.555
10789WAT     H232610   1.369   1.772   7.435
10790WAT      O32611   2.537   2.303   5.772
10790WAT     H132612   2.451   2.308   5.721
10790WAT     H232613   2.519   2.274   5.866
10791WAT      O32614   2.201   7.527   6.168
10791WAT     H132615   2.270   7.540   6.097
10791WAT     H232616   2.216   7.439   6.213
10792WAT      O32617   5.854   2.848   5.481
10792WAT     H132618   5.882   2.898   5.399
10792WAT     H232619   5.887   2.898   5.562
10793WAT      O32620   7.470   7.413   8.187
10793WAT     H132621   7.503   7.320   8.168
10793WAT     H232622   7.545   7.478   8.171
10794WAT      O32623   4.890   9.457   2.163
10794WAT     H132624   4.974   9.510   2.161
10794WAT     H232625   4.837   9.475   2.081
10795WAT      O32626   8.605   7.755   9.022
10795WAT     H132627   8.573   7.669   8.983
10795WAT     H232628   8.631   7.818   8.949
10796WAT      O32629   3.822   3.217   9.898
10796WAT     H132630   3.725   3.196   9.883
10796WAT     H232631   3.871   3.211   9.811
10797WAT      O32632   9.263   6.868   0.352
10797WAT     H132633   9.343   6.873   0.292
10797WAT     H232634   9.262   6.780   0.399
10798WAT      O32635   2.713   7.965   7.361
10798WAT     H132636   2.715   8.064   7.357
10798WAT     H232637   2.785   7.927   7.303
10799WAT      O32638   8.281   5.081   5.440
10799WAT     H132639   8.289   5.173   5.401
10799WAT     H232640   8.214   5.028   5.387
10800WAT      O32641   1.853   7.614   6.454
10800WAT     H132642   1.907   7.628   6.371
10800WAT     H232643   1.780   7.682   6.458
10801WAT      O32644   9.312   1.460   3.591
10801WAT     H132645   9.250   1.485   3.517
10801WAT     H232646   9.272   1.385   3.644
10802WAT      O32647   4.274   3.841   6.196
10802WAT     H132648   4.305   3.927   6.156
10802WAT     H232649   4.341   3.809   6.263
10803WAT      O32650   2.204   3.932   6.422
10803WAT     H132651   2.196   4.032   6.415
10803WAT     H232652   2.211   3.893   6.331
10804WAT      O32653   7.060   8.469   2.398
10804WAT     H132654   7.009   8.510   2.474
10804WAT     H232655   6.998   8.413   2.343
10805WAT      O32656   9.449   7.661   1.646
10805WAT     H132657   9.403   7.745   1.615
10805WAT     H232658   9.398   7.581   1.613
10806WAT      O32659   8.294   9.068   3.148
10806WAT     H132660   8.240   9.053   3.231
10806WAT     H232661   8.270   8.998   3.080
10807WAT      O32662   0.333   6.368   6.623
10807WAT     H132663   0.421   6.408   6.595
10807WAT     H232664   0.273   6.440   6.657
10808WAT      O32665   4.829   6.276   3.222
10808WAT     H132666   4.866   6.184   3.211
10808WAT     H232667   4.802   6.290   3.317
10809WAT      O32668   9.159   0.115   0.469
10809WAT     H132669   9.092   0.139   0.399
10809WAT     H232670   9.173   0.192   0.530
10810WAT      O32671   6.885   5.575   1.693
10810WAT     H132672   6.811   5.563   1.628
10810WAT     H232673   6.848   5.599   1.783
10811WAT      O32674   5.800   0.271   6.750
10811WAT     H132675   5.742   0.190   6.754
10811WAT     H232676   5.783   0.328   6.830
10812WAT      O32677   7.377   6.210   8.774
10812WAT     H132678   7.332   6.299   8.770
10812WAT     H232679   7.390   6.183   8.869
10813WAT      O32680   5.113   5.386   1.851
10813WAT     H132681   5.189   5.367   1.789
10813WAT     H232682   5.103   5.485   1.862
10814WAT      O32683   7.534   5.994   9.483
10814WAT     H132684   7.471   6.070   9.500
10814WAT     H232685   7.550   5.944   9.568
10815WAT      O32686   7.388   3.759   1.622
10815WAT     H132687   7.351   3.696   1.554
10815WAT     H232688   7.445   3.827   1.577
10816WAT      O32689   5.475   2.651   8.442
10816WAT     H132690   5.439   2.575   8.497
10816WAT     H232691   5.399   2.696   8.394
10817WAT      O32692   2.365   8.680   7.610
10817WAT     H132693   2.437   8.737   7.570
10817WAT     H232694   2.405   8.598   7.650
10818WAT      O32695   5.595   7.684   6.559
10818WAT     H132696   5.660   7.747   6.517
10818WAT     H232697   5.502   7.707   6.528
10819WAT      O32698   0.064   4.098   7.198
10819WAT     H132699   0.085   4.164   7.125
10819WAT     H232700   0.068   4.145   7.286
10820WAT      O32701   4.876   8.751   9.185
10820WAT     H132702   4.842   8.659   9.167
10820WAT     H232703   4.857   8.776   9.280
10821WAT      O32704   0.408   7.184   2.142
10821WAT     H132705   0.372   7.147   2.228
10821WAT     H232706   0.490   7.238   2.161
10822WAT      O32707   9.363   4.026   1.321
10822WAT     H132708   9.397   4.048   1.413
10822WAT     H232709   9.266   4.051   1.315
10823WAT      O32710   9.548   3.429   7.708
10823WAT     H132711   9.549   3.331   7.690
10823WAT     H232712   9.466   3.469   7.669
10824WAT      O32713   1.122   8.363   7.383
10824WAT     H132714   1.052   8.370   7.454
10824WAT     H232715   1.103   8.283   7.326
10825WAT      O32716   1.789   7.164   3.394
10825WAT     H132717   1.697   7.202   3.385
10825WAT     H232718   1.814   7.162   3.491
10826WAT      O32719   4.236   9.149   4.932
10826WAT     H132720   4.309   9.204   4.973
10826WAT     H232721   4.241   9.056   4.968
10827WAT      O32722   4.905   4.362   6.291
10827WAT     H132723   5.003   4.373   6.308
10827WAT     H232724   4.891   4.304   6.211
10828WAT      O32725   4.671   6.769   1.525
10828WAT     H132726   4.624   6.818   1.451
10828WAT     H232727   4.635   6.676   1.531
10829WAT      O32728   9.036   0.443   4.739
10829WAT     H132729   8.947   0.470   4.701
10829WAT     H232730   9.022   0.375   4.811
10830WAT      O32731   9.437   7.148   8.773
10830WAT     H132732   9.338   7.155   8.768
10830WAT     H232733   9.466   7.060   8.733
10831WAT      O32734   8.463   3.551   4.745
10831WAT     H132735   8.395   3.517   4.810
10831WAT     H232736   8.523   3.618   4.790
10832WAT      O32737   4.684   1.926   8.907
10832WAT     H132738   4.609   1.868   8.939
10832WAT     H232739   4.736   1.878   8.836
10833WAT      O32740   4.926   2.659   5.850
10833WAT     H132741   4.998   2.600   5.888
10833WAT     H232742   4.836   2.620   5.872
10834WAT      O32743   3.805   2.756   7.582
10834WAT     H132744   3.820   2.832   7.645
10834WAT     H232745   3.844   2.778   7.493
10835WAT      O32746   8.702   8.996   7.648
10835WAT     H132747   8.627   9.061   7.641
10835WAT     H232748   8.781   9.030   7.597
10836WAT      O32749   4.186   8.141   6.061
10836WAT     H132750   4.199   8.166   5.965
10836WAT     H232751   4.117   8.201   6.102
10837WAT      O32752   6.951   1.147   8.079
10837WAT     H132753   6.979   1.070   8.137
10837WAT     H232754   6.919   1.222   8.137
10838WAT      O32755   3.893   6.844   1.800
10838WAT     H132756   3.832   6.858   1.723
10838WAT     H232757   3.957   6.920   1.807
10839WAT      O32758   5.632   6.565   9.752
10839WAT     H132759   5.616   6.478   9.797
10839WAT     H232760   5.697   6.553   9.677
10840WAT      O32761   9.531   8.527   7.653
10840WAT     H132762   9.568   8.577   7.732
10840WAT     H232763   9.573   8.436   7.648
10841WAT      O32764   1.571   8.313   6.385
10841WAT     H132765   1.612   8.292   6.296
10841WAT     H232766   1.476   8.342   6.371
10842WAT      O32767   3.407   6.436   5.815
10842WAT     H132768   3.347   6.379   5.760
10842WAT     H232769   3.455   6.379   5.882
10843WAT      O32770   0.315   5.964   3.550
10843WAT     H132771   0.345   5.989   3.457
10843WAT     H232772   0.310   5.864   3.557
10844WAT      O32773   1.609   3.557   4.597
10844WAT     H132774   1.707   3.568   4.582
10844WAT     H232775   1.594   3.490   4.670
10845WAT      O32776   1.537   3.257   9.735
10845WAT     H132777   1.589   3.238   9.819
10845WAT     H232778   1.507   3.352   9.736
10846WAT      O32779   5.489   3.876   0.918
10846WAT     H132780   5.538   3.880   0.831
10846WAT     H232781   5.391   3.891   0.902
10847WAT      O32782   5.558   3.078   9.481
10847WAT     H132783   5.618   3.156   9.497
10847WAT     H232784   5.562   3.052   9.384
10848WAT      O32785   4.855   3.028   4.624
10848WAT     H132786   4.807   3.090   4.562
10848WAT     H232787   4.799   3.011   4.705
10849WAT      O32788   7.625   8.089   5.698
10849WAT     H132789   7.564   8.113   5.623
10849WAT     H232790   7.671   8.002   5.677
10850WAT      O32791   8.249   8.278   1.132
10850WAT     H132792   8.330   8.274   1.072
10850WAT     H232793   8.176   8.327   1.085
10851WAT      O32794   2.720   2.614   6.445
10851WAT     H132795   2.684   2.635   6.536
10851WAT     H232796   2.645   2.580   6.387
10852WAT      O32797   3.019   3.213   4.871
10852WAT     H132798   2.940   3.162   4.836
10852WAT     H232799   3.033   3.294   4.815
10853WAT      O32800   6.108   3.064   8.644
10853WAT     H132801   6.188   3.005   8.647
10853WAT     H232802   6.116   3.129   8.568
10854WAT      O32803   0.024   3.353   8.962
10854WAT     H132804   0.098   3.386   9.020
10854WAT     H232805  -0.039   3.428   8.941
10855WAT      O32806   1.592   0.922   5.141
10855WAT     H132807   1.575   0.870   5.057
10855WAT     H232808   1.688   0.949   5.145
10856WAT      O32809   6.502   8.608   9.432
10856WAT     H132810   6.451   8.659   9.502
10856WAT     H232811   6.562   8.671   9.382
10857WAT      O32812   7.763   2.357   5.337
10857WAT     H132813   7.735   2.446   5.372
10857WAT     H232814   7.683   2.298   5.328
10858WAT      O32815   4.883   2.948   4.312
10858WAT     H132816   4.960   2.884   4.320
10858WAT     H232817   4.799   2.903   4.341
10859WAT      O32818   5.384   6.011   0.752
10859WAT     H132819   5.341   5.997   0.841
10859WAT     H232820   5.483   6.003   0.760
10860WAT      O32821   1.082   6.204   6.064
10860WAT     H132822   1.054   6.119   6.110
10860WAT     H232823   1.089   6.188   5.966
10861WAT      O32824   4.098   8.777   3.853
10861WAT     H132825   4.139   8.824   3.932
10861WAT     H232826   4.035   8.706   3.884
10862WAT      O32827   2.642   5.338   1.025
10862WAT     H132828   2.692   5.373   1.104
10862WAT     H232829   2.595   5.253   1.049
10863WAT      O32830   0.614   5.510   8.985
10863WAT     H132831   0.558   5.575   9.037
10863WAT     H232832   0.645   5.553   8.901
10864WAT      O32833   6.013   9.406   6.298
10864WAT     H132834   5.952   9.465   6.352
10864WAT     H232835   5.968   9.384   6.211
10865WAT      O32836   6.817   8.276   9.496
10865WAT     H132837   6.737   8.329   9.523
10865WAT     H232838   6.861   8.238   9.578
10866WAT      O32839   4.929   5.185   0.001
10866WAT     H132840   4.846   5.167   0.055
10866WAT     H232841   5.008   5.189   0.063
10867WAT      O32842   8.567   4.219   2.619
10867WAT     H132843   8.624   4.280   2.674
10867WAT     H232844   8.608   4.208   2.529
10868WAT      O32845   4.613   6.330   5.033
10868WAT     H132846   4.585   6.425   5.020
10868WAT     H232847   4.707   6.319   5.000
10869WAT      O32848   0.221   7.529   3.981
10869WAT     H132849   0.268   7.547   3.895
10869WAT     H232850   0.157   7.604   4.001
10870WAT      O32851   4.078   6.894   4.101
10870WAT     H132852   4.143   6.835   4.054
10870WAT     H232853   3.993   6.845   4.116
10871WAT      O32854   2.764   6.535   5.675
10871WAT     H132855   2.845   6.575   5.718
10871WAT     H232856   2.723   6.601   5.613
10872WAT      O32857   7.106   2.395   5.221
10872WAT     H132858   7.185   2.364   5.167
10872WAT     H232859   7.066   2.475   5.177
10873WAT      O32860   3.257   2.838   6.076
10873WAT     H132861   3.230   2.928   6.043
10873WAT     H232862   3.339   2.846   6.132
10874WAT      O32863   8.376   1.202   2.318
10874WAT     H132864   8.302   1.269   2.306
10874WAT     H232865   8.353   1.118   2.269
10875WAT      O32866   4.295   4.418   3.160
10875WAT     H132867   4.394   4.403   3.157
10875WAT     H232868   4.276   4.503   3.209
10876WAT      O32869   5.248   0.283   2.481
10876WAT     H132870   5.338   0.322   2.459
10876WAT     H232871   5.259   0.214   2.553
10877WAT      O32872   4.655   0.071   8.246
10877WAT     H132873   4.722   0.015   8.197
10877WAT     H232874   4.644   0.159   8.200
10878WAT      O32875   4.473   1.329   2.006
10878WAT     H132876   4.378   1.347   1.981
10878WAT     H232877   4.482   1.327   2.105
10879WAT      O32878   4.726   7.070   0.169
10879WAT     H132879   4.714   7.061   0.268
10879WAT     H232880   4.714   6.981   0.125
10880WAT      O32881   2.833   4.781   7.422
10880WAT     H132882   2.784   4.846   7.364
10880WAT     H232883   2.924   4.818   7.443
10881WAT      O32884   4.256   6.875   6.233
10881WAT     H132885   4.253   6.810   6.309
10881WAT     H232886   4.351   6.888   6.205
10882WAT      O32887   7.034   5.433   2.505
10882WAT     H132888   7.001   5.465   2.594
10882WAT     H232889   7.014   5.335   2.496
10883WAT      O32890   9.271   0.395   1.056
10883WAT     H132891   9.370   0.405   1.040
10883WAT     H232892   9.239   0.310   1.012
10884WAT      O32893   3.269   2.566   1.287
10884WAT     H132894   3.200   2.633   1.262
10884WAT     H232895   3.343   2.610   1.338
10885WAT      O32896   2.424   6.120   9.601
10885WAT     H132897   2.365   6.199   9.589
10885WAT     H232898   2.482   6.109   9.520
10886WAT      O32899   3.624   5.902   0.378
10886WAT     H132900   3.712   5.922   0.334
10886WAT     H232901   3.599   5.807   0.357
10887WAT      O32902   8.426   6.119   5.356
10887WAT     H132903   8.520   6.103   5.328
10887WAT     H232904   8.363   6.082   5.287
10888WAT      O32905   0.724   4.589   8.336
10888WAT     H132906   0.681   4.612   8.424
10888WAT     H232907   0.695   4.498   8.307
10889WAT      O32908   3.532   1.014   4.479
10889WAT     H132909   3.615   0.985   4.527
10889WAT     H232910   3.457   1.022   4.544
10890WAT      O32911   4.418   0.026   8.418
10890WAT     H132912   4.402   0.096   8.488
10890WAT     H232913   4.513   0.030   8.388
10891WAT      O32914   8.750   6.024   6.642
10891WAT     H132915   8.710   5.949   6.694
10891WAT     H232916   8.846   6.003   6.622
10892WAT      O32917   6.440   3.311   0.581
10892WAT     H132918   6.395   3.250   0.516
10892WAT     H232919   6.377   3.334   0.655
10893WAT      O32920   2.395   3.834   3.428
10893WAT     H132921   2.376   3.773   3.506
10893WAT     H232922   2.451   3.911   3.459
10894WAT      O32923   0.759   8.551   7.113
10894WAT     H132924   0.660   8.547   7.103
10894WAT     H232925   0.803   8.533   7.025
10895WAT      O32926   8.559   2.308   4.072
10895WAT     H132927   8.645   2.284   4.026
10895WAT     H232928   8.552   2.258   4.158
10896WAT      O32929   7.711   2.691   3.353
10896WAT     H132930   7.749   2.738   3.433
10896WAT     H232931   7.678   2.758   3.288
10897WAT      O32932   1.408   6.208   4.278
10897WAT     H132933   1.441   6.216   4.372
10897WAT     H232934   1.325   6.152   4.276
10898WAT      O32935   1.998   6.458   2.816
10898WAT     H132936   1.926   6.404   2.773
10898WAT     H232937   2.053   6.503   2.746
10899WAT      O32938   5.039   2.652   8.402
10899WAT     H132939   4.947   2.689   8.395
10899WAT     H232940   5.105   2.728   8.403
10900WAT      O32941   6.485   5.338   7.497
10900WAT     H132942   6.421   5.269   7.531
10900WAT     H232943   6.435   5.421   7.472
10901WAT      O32944   7.250   1.492   0.304
10901WAT     H132945   7.243   1.505   0.205
10901WAT     H232946   7.186   1.421   0.333
10902WAT      O32947   3.577   7.513   4.465
10902WAT     H132948   3.617   7.604   4.480
10902WAT     H232949   3.484   7.512   4.501
10903WAT      O32950   5.719   2.895   7.177
10903WAT     H132951   5.735   2.993   7.166
10903WAT     H232952   5.634   2.881   7.228
10904WAT      O32953   8.160   0.204   9.204
10904WAT     H132954   8.222   0.159   9.268
10904WAT     H232955   8.082   0.242   9.253
10905WAT      O32956   8.560   7.767   5.141
10905WAT     H132957   8.568   7.675   5.179
10905WAT     H232958   8.625   7.828   5.186
10906WAT      O32959   4.990   8.307   7.121
10906WAT     H132960   4.985   8.376   7.194
10906WAT     H232961   4.931   8.230   7.145
10907WAT      O32962   7.788   6.719   2.265
10907WAT     H132963   7.850   6.732   2.342
10907WAT     H232964   7.770   6.621   2.252
10908WAT      O32965   5.122   0.067   2.335
10908WAT     H132966   5.170   0.127   2.399
10908WAT     H232967   5.155   0.084   2.242
10909WAT      O32968   7.947   1.604   6.288
10909WAT     H132969   7.989   1.653   6.212
10909WAT     H232970   7.952   1.505   6.272
10910WAT      O32971   3.360   5.862   0.534
10910WAT     H132972   3.454   5.826   0.533
10910WAT     H232973   3.307   5.817   0.462
10911WAT      O32974   5.028   8.187   4.696
10911WAT     H132975   5.098   8.243   4.742
10911WAT     H232976   5.038   8.196   4.597
10912WAT      O32977   4.300   4.510   2.733
10912WAT     H132978   4.268   4.430   2.682
10912WAT     H232979   4.225   4.549   2.785
10913WAT      O32980   3.432   7.463   8.733
10913WAT     H132981   3.474   7.451   8.644
10913WAT     H232982   3.332   7.455   8.725
10914WAT      O32983   1.276   0.212   9.195
10914WAT     H132984   1.221   0.294   9.213
10914WAT     H232985   1.254   0.142   9.263
10915WAT      O32986   8.945   4.868   9.640
10915WAT     H132987   8.853   4.860   9.603
10915WAT     H232988   8.950   4.947   9.701
10916WAT      O32989   8.286   1.249   0.561
10916WAT     H132990   8.217   1.282   0.496
10916WAT     H232991   8.345   1.325   0.588
10917WAT      O32992   6.940   9.568   0.504
10917WAT     H132993   6.965   9.477   0.539
10917WAT     H232994   6.910   9.559   0.409
10918WAT      O32995   3.089   1.124   0.073
10918WAT     H132996   3.166   1.176   0.111
10918WAT     H232997   3.028   1.186   0.024
10919WAT      O32998   2.398   7.888   2.097
10919WAT     H132999   2.321   7.901   2.034
10919WAT     H233000   2.363   7.863   2.187
10920WAT      O33001   1.218   9.477   3.107
10920WAT     H133002   1.259   9.438   3.189
10920WAT     H233003   1.290   9.521   3.052
10921WAT      O33004   2.732   7.069   2.928
10921WAT     H133005   2.658   7.134   2.910
10921WAT     H233006   2.712   6.982   2.882
10922WAT      O33007   6.822   1.616   9.784
10922WAT     H133008   6.722   1.614   9.775
10922WAT     H233009   6.864   1.573   9.704
10923WAT      O33010   7.710   8.496   6.665
10923WAT     H133011   7.804   8.494   6.631
10923WAT     H233012   7.658   8.421   6.625
10924WAT      O33013   5.035   1.131   0.754
10924WAT     H133014   5.027   1.049   0.809
10924WAT     H233015   5.061   1.107   0.660
10925WAT      O33016   6.068   7.707   4.106
10925WAT     H133017   6.011   7.685   4.184
10925WAT     H233018   6.036   7.792   4.064
10926WAT      O33019   3.174   2.231   9.326
10926WAT     H133020   3.249   2.236   9.392
10926WAT     H233021   3.208   2.255   9.235
10927WAT      O33022   2.591   3.763   1.936
10927WAT     H133023   2.637   3.804   1.857
10927WAT     H233024   2.658   3.727   2.000
10928WAT      O33025   1.607   0.972   1.114
10928WAT     H133026   1.604   1.067   1.143
10928WAT     H233027   1.702   0.943   1.103
10929WAT      O33028   8.613   5.567   1.376
10929WAT     H133029   8.612   5.665   1.357
10929WAT     H233030   8.539   5.523   1.325
10930WAT      O33031   6.910   7.982   8.738
10930WAT     H133032   6.861   8.064   8.711
10930WAT     H233033   6.912   7.974   8.838
10931WAT      O33034   6.715   4.793   4.172
10931WAT     H133035   6.699   4.754   4.082
10931WAT     H233036   6.769   4.877   4.163
10932WAT      O33037   5.546   6.298   5.085
10932WAT     H133038   5.509   6.246   5.162
10932WAT     H233039   5.481   6.296   5.009
10933WAT      O33040   1.107   6.156   2.973
10933WAT     H133041   1.042   6.081   2.960
10933WAT     H233042   1.114   6.178   3.070
10934WAT      O33043   1.372   1.094   9.878
10934WAT     H133044   1.367   0.996   9.897
10934WAT     H233045   1.378   1.109   9.779
10935WAT      O33046   2.463   3.644   6.958
10935WAT     H133047   2.448   3.556   6.914
10935WAT     H233048   2.527   3.699   6.904
10936WAT      O33049   1.232   9.601   7.362
10936WAT     H133050   1.191   9.664   7.297
10936WAT     H233051   1.196   9.620   7.454
10937WAT      O33052   4.151   0.933   9.704
10937WAT     H133053   4.133   0.960   9.609
10937WAT     H233054   4.078   0.873   9.737
10938WAT      O33055   8.480   6.499   3.032
10938WAT     H133056   8.571   6.464   3.055
10938WAT     H233057   8.418   6.483   3.109
10939WAT      O33058   3.188   6.311   4.807
10939WAT     H133059   3.204   6.214   4.822
10939WAT     H233060   3.090   6.330   4.812
10940WAT      O33061   1.739   3.675   5.913
10940WAT     H133062   1.751   3.654   6.010
10940WAT     H233063   1.828   3.676   5.867
10941WAT      O33064   7.367   3.613   2.041
10941WAT     H133065   7.460   3.580   2.026
10941WAT     H233066   7.302   3.539   2.023
10942WAT      O33067   5.853   3.733   6.105
10942WAT     H133068   5.883   3.785   6.185
10942WAT     H233069   5.933   3.707   6.051
10943WAT      O33070   0.312   2.684   8.591
10943WAT     H133071   0.406   2.656   8.613
10943WAT     H233072   0.296   2.670   8.493
10944WAT      O33073   4.085   6.287   6.350
10944WAT     H133074   4.024   6.252   6.422
10944WAT     H233075   4.179   6.285   6.383
10945WAT      O33076   1.668   3.946   7.912
10945WAT     H133077   1.603   3.912   7.844
10945WAT     H233078   1.672   3.882   7.989
10946WAT      O33079   2.675   9.676   0.899
10946WAT     H133080   2.730   9.602   0.861
10946WAT     H233081   2.697   9.687   0.996
10947WAT      O33082   9.783   5.998   4.039
10947WAT     H133083   9.694   5.979   4.079
10947WAT     H233084   9.835   5.913   4.031
10948WAT      O33085   7.291   6.605   4.127
10948WAT     H133086   7.355   6.653   4.067
10948WAT     H233087   7.315   6.621   4.223
10949WAT      O33088   5.115   6.902   4.240
10949WAT     H133089   5.114   6.919   4.141
10949WAT     H233090   5.130   6.805   4.256
10950WAT      O33091   7.389   1.493   6.745
10950WAT     H133092   7.338   1.419   6.790
10950WAT     H233093   7.331   1.574   6.738
10951WAT      O33094   8.433   2.193   2.164
10951WAT     H133095   8.382   2.116   2.127
10951WAT     H233096   8.435   2.187   2.264
10952WAT      O33097   6.115   8.942   4.421
10952WAT     H133098   6.159   8.986   4.499
10952WAT     H233099   6.086   8.850   4.447
10953WAT      O33100   6.351   5.103   2.469
10953WAT     H133101   6.263   5.104   2.516
10953WAT     H233102   6.346   5.040   2.391
10954WAT      O33103   0.080   9.378   3.101
10954WAT     H133104   0.112   9.411   3.012
10954WAT     H233105   0.121   9.289   3.120
10955WAT      O33106   6.516   8.754   7.906
10955WAT     H133107   6.511   8.819   7.830
10955WAT     H233108   6.447   8.683   7.894
10956WAT      O33109   7.071   5.421   9.040
10956WAT     H133110   6.978   5.385   9.048
10956WAT     H233111   7.136   5.345   9.033
10957WAT      O33112   1.590   3.332   1.452
10957WAT     H133113   1.542   3.392   1.388
10957WAT     H233114   1.555   3.346   1.544
10958WAT      O33115   8.633   2.621   4.508
10958WAT     H133116   8.593   2.693   4.450
10958WAT     H233117   8.729   2.643   4.525
10959WAT      O33118   4.890   6.791   8.228
10959WAT     H133119   4.928   6.864   8.286
10959WAT     H233120   4.872   6.710   8.284
10960WAT      O33121   9.677   6.631   8.722
10960WAT     H133122   9.724   6.559   8.772
10960WAT     H233123   9.740   6.706   8.703
10961WAT      O33124   1.368   2.185   4.948
10961WAT     H133125   1.410   2.162   4.860
10961WAT     H233126   1.277   2.145   4.952
10962WAT      O33127   0.379   8.997   3.036
10962WAT     H133128   0.440   9.033   2.966
10962WAT     H233129   0.424   8.922   3.084
10963WAT      O33130   5.453   0.854   3.401
10963WAT     H133131   5.436   0.774   3.344
10963WAT     H233132   5.549   0.881   3.394
10964WAT      O33133   2.312   0.024   2.225
10964WAT     H133134   2.270   0.105   2.184
10964WAT     H233135   2.263  -0.058   2.196
10965WAT      O33136   2.066   1.799   5.545
10965WAT     H133137   2.076   1.869   5.616
10965WAT     H233138   1.968   1.783   5.528
10966WAT      O33139   1.113   1.675   5.298
10966WAT     H133140   1.070   1.623   5.224
10966WAT     H233141   1.079   1.642   5.386
10967WAT      O33142   7.844   0.280   2.723
10967WAT     H133143   7.937   0.294   2.689
10967WAT     H233144   7.817   0.359   2.779
10968WAT      O33145   9.477   3.921   5.582
10968WAT     H133146   9.470   3.857   5.506
10968WAT     H233147   9.394   3.918   5.637
10969WAT      O33148   4.198   8.307   3.154
10969WAT     H133149   4.204   8.263   3.065
10969WAT     H233150   4.102   8.312   3.182
10970WAT      O33151   7.194   5.165   9.847
10970WAT     H133152   7.227   5.162   9.941
10970WAT     H233153   7.251   5.228   9.794
10971WAT      O33154   3.569   4.546   4.286
10971WAT     H133155   3.507   4.503   4.221
10971WAT     H233156   3.663   4.543   4.251
10972WAT      O33157   3.821   9.069   3.196
10972WAT     H133158   3.806   9.132   3.119
10972WAT     H233159   3.915   9.076   3.228
10973WAT      O33160   6.312   1.642   7.235
10973WAT     H133161   6.231   1.650   7.177
10973WAT     H233162   6.293   1.683   7.324
10974WAT      O33163   5.916   9.373   8.260
10974WAT     H133164   5.907   9.284   8.217
10974WAT     H233165   5.891   9.445   8.194
10975WAT      O33166   7.081   0.572   2.672
10975WAT     H133167   7.012   0.588   2.742
10975WAT     H233168   7.052   0.497   2.613
10976WAT      O33169   1.193   5.474   0.709
10976WAT     H133170   1.129   5.400   0.687
10976WAT     H233171   1.257   5.486   0.633
10977WAT      O33172   2.074   7.249   6.051
10977WAT     H133173   2.123   7.301   5.981
10977WAT     H233174   2.131   7.244   6.133
10978WAT      O33175   0.580   5.742   6.612
10978WAT     H133176   0.647   5.808   6.645
10978WAT     H233177   0.572   5.750   6.512
10979WAT      O33178   1.202   7.133   1.801
10979WAT     H133179   1.269   7.071   1.761
10979WAT     H233180   1.247   7.219   1.824
10980WAT      O33181   5.724   0.411   7.752
10980WAT     H133182   5.669   0.493   7.736
10980WAT     H233183   5.802   0.410   7.688
10981WAT      O33184   3.786   1.147   6.293
10981WAT     H133185   3.816   1.188   6.379
10981WAT     H233186   3.859   1.090   6.255
10982WAT      O33187   4.519   9.679   7.380
10982WAT     H133188   4.560   9.681   7.288
10982WAT     H233189   4.551   9.597   7.428
10983WAT      O33190   9.745   1.800   6.512
10983WAT     H133191   9.712   1.721   6.461
10983WAT     H233192   9.723   1.884   6.462
10984WAT      O33193   5.157   6.160   5.658
10984WAT     H133194   5.070   6.111   5.654
10984WAT     H233195   5.141   6.258   5.654
10985WAT      O33196   4.686   8.036   8.603
10985WAT     H133197   4.768   8.006   8.554
10985WAT     H233198   4.699   8.130   8.636
10986WAT      O33199   0.771   1.446   1.270
10986WAT     H133200   0.767   1.459   1.369
10986WAT     H233201   0.731   1.358   1.246
10987WAT      O33202   3.488   2.015   8.518
10987WAT     H133203   3.503   2.047   8.424
10987WAT     H233204   3.395   2.040   8.547
10988WAT      O33205   5.271   9.590   0.791
10988WAT     H133206   5.325   9.669   0.762
10988WAT     H233207   5.282   9.577   0.890
10989WAT      O33208   5.719   3.702   0.068
10989WAT     H133209   5.790   3.695  -0.002
10989WAT     H233210   5.662   3.782   0.050
10990WAT      O33211   0.866   3.615   6.096
10990WAT     H133212   0.957   3.597   6.134
10990WAT     H233213   0.799   3.555   6.140
10991WAT      O33214   0.349   1.176   2.697
10991WAT     H133215   0.273   1.226   2.737
10991WAT     H233216   0.330   1.078   2.699
10992WAT      O33217   0.566   5.005   7.421
10992WAT     H133218   0.602   5.038   7.334
10992WAT     H233219   0.585   4.907   7.430
10993WAT      O33220   4.607   6.438   8.074
10993WAT     H133221   4.682   6.503   8.062
10993WAT     H233222   4.639   6.346   8.049
10994WAT      O33223   6.553   4.516   7.176
10994WAT     H133224   6.479   4.489   7.237
10994WAT     H233225   6.586   4.607   7.203
10995WAT      O33226   7.894   3.508   5.328
10995WAT     H133227   7.846   3.431   5.286
10995WAT     H233228   7.914   3.576   5.258
10996WAT      O33229   0.529   2.965   7.997
10996WAT     H133230   0.526   2.867   7.976
10996WAT     H233231   0.516   2.979   8.095
10997WAT      O33232   7.632   8.091   7.201
10997WAT     H133233   7.720   8.132   7.225
10997WAT     H233234   7.560   8.160   7.210
10998WAT      O33235   1.197   2.102   2.024
10998WAT     H133236   1.212   2.200   2.041
10998WAT     H233237   1.154   2.060   2.104
10999WAT      O33238   0.088   6.181   2.767
10999WAT     H133239   0.144   6.250   2.720
10999WAT     H233240   0.146   6.106   2.798
11000WAT      O33241   4.381   1.480   5.432
11000WAT     H133242   4.379   1.503   5.335
11000WAT     H233243   4.288   1.483   5.469
11001WAT      O33244   5.326   0.279   5.934
11001WAT     H133245   5.277   0.228   5.863
11001WAT     H233246   5.410   0.317   5.894
11002WAT      O33247   1.670   6.707   7.150
11002WAT     H133248   1.717   6.763   7.081
11002WAT     H233249   1.586   6.670   7.111
11003WAT      O33250   2.209   2.607   1.160
11003WAT     H133251   2.235   2.695   1.198
11003WAT     H233252   2.252   2.533   1.212
11004WAT      O33253   2.956   0.323   0.189
11004WAT     H133254   2.949   0.295   0.285
11004WAT     H233255   2.916   0.414   0.178
11005WAT      O33256   6.146   9.423   8.634
11005WAT     H133257   6.223   9.388   8.687
11005WAT     H233258   6.140   9.522   8.646
11006WAT      O33259   9.740   2.952   0.167
11006WAT     H133260   9.750   3.043   0.207
11006WAT     H233261   9.654   2.947   0.117
11007WAT      O33262   1.449   9.233   7.905
11007WAT     H133263   1.528   9.293   7.893
11007WAT     H233264   1.403   9.220   7.817
11008WAT      O33265   4.108   7.352   4.912
11008WAT     H133266   4.139   7.263   4.880
11008WAT     H233267   4.110   7.418   4.836
11009WAT      O33268   6.675   4.249   5.034
11009WAT     H133269   6.694   4.182   5.105
11009WAT     H233270   6.613   4.319   5.069
11010WAT      O33271   8.779   3.590   3.712
11010WAT     H133272   8.715   3.517   3.690
11010WAT     H233273   8.833   3.564   3.792
11011WAT      O33274   5.098   9.165   6.030
11011WAT     H133275   5.090   9.234   5.957
11011WAT     H233276   5.094   9.074   5.989
11012WAT      O33277   5.812   9.348   3.662
11012WAT     H133278   5.894   9.352   3.605
11012WAT     H233279   5.753   9.425   3.641
11013WAT      O33280   3.536   4.877   2.081
11013WAT     H133281   3.511   4.969   2.111
11013WAT     H233282   3.617   4.881   2.024
11014WAT      O33283   8.732   7.198   1.528
11014WAT     H133284   8.727   7.209   1.428
11014WAT     H233285   8.747   7.287   1.570
11015WAT      O33286   7.642   1.663   2.680
11015WAT     H133287   7.622   1.759   2.662
11015WAT     H233288   7.705   1.628   2.611
11016WAT      O33289   5.507   8.714   3.150
11016WAT     H133290   5.582   8.755   3.202
11016WAT     H233291   5.527   8.618   3.131
11017WAT      O33292   9.373   5.728   5.622
11017WAT     H133293   9.399   5.753   5.715
11017WAT     H233294   9.275   5.712   5.617
11018WAT      O33295   6.656   0.792   1.117
11018WAT     H133296   6.567   0.775   1.074
11018WAT     H233297   6.700   0.705   1.139
11019WAT      O33298   6.920   5.847   9.595
11019WAT     H133299   6.924   5.853   9.695
11019WAT     H233300   7.008   5.874   9.557
11020WAT      O33301   2.578   2.560   2.643
11020WAT     H133302   2.575   2.623   2.721
11020WAT     H233303   2.578   2.466   2.676
11021WAT      O33304   6.366   8.394   0.217
11021WAT     H133305   6.268   8.377   0.225
11021WAT     H233306   6.398   8.448   0.295
11022WAT      O33307   1.882   6.891   1.978
11022WAT     H133308   1.969   6.910   2.024
11022WAT     H233309   1.894   6.904   1.879
11023WAT      O33310   1.021   2.904   0.553
11023WAT     H133311   1.065   2.940   0.471
11023WAT     H233312   0.969   2.977   0.597
11024WAT      O33313   9.812   0.958   3.203
11024WAT     H133314   9.804   0.964   3.302
11024WAT     H233315   9.863   0.876   3.178
11025WAT      O33316   9.515   3.914   8.313
11025WAT     H133317   9.483   3.878   8.401
11025WAT     H233318   9.545   3.839   8.255
11026WAT      O33319   9.150   8.629   9.863
11026WAT     H133320   9.171   8.670   9.952
11026WAT     H233321   9.050   8.619   9.854
11027WAT      O33322   7.526   8.904   4.845
11027WAT     H133323   7.519   8.805   4.834
11027WAT     H233324   7.575   8.924   4.930
11028WAT      O33325   0.186   2.762   4.801
11028WAT     H133326   0.204   2.664   4.809
11028WAT     H233327   0.266   2.813   4.832
11029WAT      O33328   5.651   9.009   8.717
11029WAT     H133329   5.552   9.001   8.707
11029WAT     H233330   5.696   8.983   8.631
11030WAT      O33331   8.228   0.705   3.141
11030WAT     H133332   8.229   0.730   3.044
11030WAT     H233333   8.197   0.782   3.195
11031WAT      O33334   1.440   5.901   0.056
11031WAT     H133335   1.448   6.001   0.046
11031WAT     H233336   1.503   5.857  -0.007
11032WAT      O33337   2.165   9.315   6.809
11032WAT     H133338   2.190   9.281   6.719
11032WAT     H233339   2.085   9.265   6.843
11033WAT      O33340   4.709   8.455   9.192
11033WAT     H133341   4.709   8.410   9.281
11033WAT     H233342   4.692   8.387   9.121
11034WAT      O33343   2.723   4.098   1.368
11034WAT     H133344   2.671   4.131   1.289
11034WAT     H233345   2.821   4.097   1.346
11035WAT      O33346   7.395   8.882   6.569
11035WAT     H133347   7.380   8.981   6.574
11035WAT     H233348   7.345   8.846   6.490
11036WAT      O33349   1.571   6.042   6.413
11036WAT     H133350   1.611   5.954   6.386
11036WAT     H233351   1.476   6.028   6.440
11037WAT      O33352   5.055   1.474   4.436
11037WAT     H133353   5.063   1.571   4.413
11037WAT     H233354   5.145   1.432   4.435
11038WAT      O33355   6.903   5.223   2.998
11038WAT     H133356   6.880   5.145   3.056
11038WAT     H233357   6.860   5.212   2.908
11039WAT      O33358   1.714   5.662   8.529
11039WAT     H133359   1.651   5.675   8.605
11039WAT     H233360   1.806   5.690   8.556
11040WAT      O33361   1.936   8.432   0.202
11040WAT     H133362   1.973   8.483   0.124
11040WAT     H233363   1.836   8.441   0.203
11041WAT      O33364   8.928   0.408   1.691
11041WAT     H133365   8.910   0.318   1.731
11041WAT     H233366   8.931   0.401   1.592
11042WAT      O33367   0.594   3.701   8.641
11042WAT     H133368   0.691   3.728   8.642
11042WAT     H233369   0.541   3.770   8.591
11043WAT      O33370   5.230   9.203   4.735
11043WAT     H133371   5.278   9.116   4.726
11043WAT     H233372   5.132   9.187   4.744
11044WAT      O33373   6.998   1.463   2.866
11044WAT     H133374   6.922   1.460   2.800
11044WAT     H233375   6.993   1.382   2.924
11045WAT      O33376   9.295   4.415   2.873
11045WAT     H133377   9.301   4.434   2.775
11045WAT     H233378   9.319   4.320   2.890
11046WAT      O33379   0.900   4.154   3.545
11046WAT     H133380   0.834   4.229   3.554
11046WAT     H233381   0.866   4.088   3.477
11047WAT      O33382   7.359   6.106   3.151
11047WAT     H133383   7.380   6.014   3.184
11047WAT     H233384   7.413   6.173   3.203
11048WAT      O33385   2.598   6.560   4.180
11048WAT     H133386   2.676   6.499   4.195
11048WAT     H233387   2.558   6.541   4.090
11049WAT      O33388   0.858   8.822   2.300
11049WAT     H133389   0.885   8.915   2.322
11049WAT     H233390   0.924   8.758   2.339
11050WAT      O33391   6.812   1.964   8.704
11050WAT     H133392   6.857   1.888   8.750
11050WAT     H233393   6.757   2.016   8.770
11051WAT      O33394   9.482   3.946   0.577
11051WAT     H133395   9.495   4.035   0.534
11051WAT     H233396   9.453   3.879   0.509
11052WAT      O33397   8.432   2.017   5.968
11052WAT     H133398   8.506   1.980   6.025
11052WAT     H233399   8.470   2.049   5.881
11053WAT      O33400   8.905   1.968   3.400
11053WAT     H133401   8.971   1.896   3.377
11053WAT     H233402   8.942   2.057   3.375
11054WAT      O33403   7.918   6.746   8.418
11054WAT     H133404   7.909   6.770   8.322
11054WAT     H233405   7.990   6.801   8.460
11055WAT      O33406   3.616   5.201   4.605
11055WAT     H133407   3.566   5.181   4.520
11055WAT     H233408   3.712   5.218   4.583
11056WAT      O33409   1.146   2.872   3.657
11056WAT     H133410   1.065   2.877   3.716
11056WAT     H233411   1.204   2.797   3.688
11057WAT      O33412   2.555   2.521   2.376
11057WAT     H133413   2.559   2.547   2.473
11057WAT     H233414   2.507   2.434   2.367
11058WAT      O33415   2.467   3.686   5.073
11058WAT     H133416   2.432   3.698   4.980
11058WAT     H233417   2.438   3.763   5.129
11059WAT      O33418   6.665   7.373   1.692
11059WAT     H133419   6.575   7.339   1.716
11059WAT     H233420   6.668   7.395   1.594
11060WAT      O33421   3.025   3.761   9.696
11060WAT     H133422   3.043   3.762   9.597
11060WAT     H233423   2.943   3.815   9.715
11061WAT      O33424   2.781   4.561   2.180
11061WAT     H133425   2.724   4.486   2.149
11061WAT     H233426   2.776   4.568   2.280
11062WAT      O33427   3.465   5.446   5.916
11062WAT     H133428   3.372   5.478   5.933
11062WAT     H233429   3.509   5.507   5.851
11063WAT      O33430   2.500   6.771   0.321
11063WAT     H133431   2.453   6.708   0.259
11063WAT     H233432   2.558   6.832   0.267
11064WAT      O33433   6.315   6.683   8.359
11064WAT     H133434   6.243   6.735   8.404
11064WAT     H233435   6.392   6.743   8.337
11065WAT      O33436   2.988   7.599   5.871
11065WAT     H133437   2.960   7.637   5.783
11065WAT     H233438   2.962   7.662   5.945
11066WAT      O33439   3.135   9.805   5.473
11066WAT     H133440   3.189   9.724   5.496
11066WAT     H233441   3.193   9.871   5.424
11067WAT      O33442   1.411   0.280   6.482
11067WAT     H133443   1.399   0.340   6.403
11067WAT     H233444   1.380   0.188   6.458
11068WAT      O33445   5.194   8.722   2.414
11068WAT     H133446   5.131   8.798   2.399
11068WAT     H233447   5.268   8.751   2.473
11069WAT      O33448   0.244   8.036   8.816
11069WAT     H133449   0.232   8.134   8.831
11069WAT     H233450   0.339   8.018   8.790
11070WAT      O33451   9.506   1.346   7.209
11070WAT     H133452   9.427   1.370   7.152
11070WAT     H233453   9.588   1.341   7.152
11071WAT      O33454   9.835   3.303   3.081
11071WAT     H133455   9.842   3.362   3.001
11071WAT     H233456   9.926   3.292   3.122
11072WAT      O33457   9.710   0.901   1.347
11072WAT     H133458   9.629   0.947   1.383
11072WAT     H233459   9.775   0.885   1.421
11073WAT      O33460   8.993   9.741   8.957
11073WAT     H133461   9.062   9.714   9.026
11073WAT     H233462   9.000   9.681   8.878
11074WAT      O33463   4.992   7.206   8.756
11074WAT     H133464   4.983   7.109   8.774
11074WAT     H233465   4.903   7.246   8.735
11075WAT      O33466   7.848   0.265   7.689
11075WAT     H133467   7.777   0.257   7.618
11075WAT     H233468   7.826   0.341   7.750
11076WAT      O33469   0.382   7.345   6.046
11076WAT     H133470   0.331   7.427   6.069
11076WAT     H233471   0.380   7.281   6.123
11077WAT      O33472   4.509   1.175   3.448
11077WAT     H133473   4.459   1.112   3.389
11077WAT     H233474   4.603   1.142   3.459
11078WAT      O33475   5.782   6.468   0.433
11078WAT     H133476   5.852   6.441   0.499
11078WAT     H233477   5.819   6.464   0.341
11079WAT      O33478   4.801   1.717   8.758
11079WAT     H133479   4.867   1.670   8.699
11079WAT     H233480   4.834   1.717   8.852
11080WAT      O33481   4.759   8.817   3.853
11080WAT     H133482   4.719   8.895   3.901
11080WAT     H233483   4.685   8.759   3.816
11081WAT      O33484   6.130   4.726   0.757
11081WAT     H133485   6.228   4.720   0.776
11081WAT     H233486   6.116   4.730   0.658
11082WAT      O33487   7.210   8.981   7.187
11082WAT     H133488   7.246   9.053   7.246
11082WAT     H233489   7.285   8.940   7.135
11083WAT      O33490   2.986   5.526   5.245
11083WAT     H133491   2.898   5.509   5.199
11083WAT     H233492   2.969   5.553   5.340
11084WAT      O33493   1.511   8.298   2.885
11084WAT     H133494   1.510   8.308   2.785
11084WAT     H233495   1.600   8.328   2.920
11085WAT      O33496   0.224   6.292   4.245
11085WAT     H133497   0.169   6.343   4.311
11085WAT     H233498   0.303   6.251   4.292
11086WAT      O33499   4.294   9.346   3.511
11086WAT     H133500   4.390   9.318   3.518
11086WAT     H233501   4.279   9.392   3.423
11087WAT      O33502   6.626   1.346   8.620
11087WAT     H133503   6.573   1.368   8.539
11087WAT     H233504   6.567   1.302   8.688
11088WAT      O33505   3.129   5.759   7.432
11088WAT     H133506   3.087   5.842   7.469
11088WAT     H233507   3.220   5.781   7.396
11089WAT      O33508   0.618   6.783   1.599
11089WAT     H133509   0.531   6.782   1.551
11089WAT     H233510   0.626   6.868   1.652
11090WAT      O33511   5.577   2.831   0.424
11090WAT     H133512   5.588   2.777   0.341
11090WAT     H233513   5.482   2.861   0.431
11091WAT      O33514   5.746   9.713   7.713
11091WAT     H133515   5.837   9.693   7.676
11091WAT     H233516   5.752   9.730   7.811
11092WAT      O33517   4.433   8.388   2.264
11092WAT     H133518   4.376   8.395   2.345
11092WAT     H233519   4.378   8.358   2.186
11093WAT      O33520   0.235   1.478   7.805
11093WAT     H133521   0.204   1.386   7.782
11093WAT     H233522   0.334   1.477   7.817
11094WAT      O33523   2.240   5.748   8.335
11094WAT     H133524   2.197   5.697   8.260
11094WAT     H233525   2.181   5.824   8.362
11095WAT      O33526   5.843   8.197   0.523
11095WAT     H133527   5.811   8.240   0.439
11095WAT     H233528   5.928   8.241   0.552
11096WAT      O33529   7.456   3.157   7.383
11096WAT     H133530   7.542   3.112   7.407
11096WAT     H233531   7.469   3.256   7.380
11097WAT      O33532   4.559   2.764   9.336
11097WAT     H133533   4.577   2.862   9.343
11097WAT     H233534   4.645   2.715   9.322
11098WAT      O33535   0.558   0.780   4.695
11098WAT     H133536   0.636   0.719   4.682
11098WAT     H233537   0.535   0.785   4.793
11099WAT      O33538   0.441   9.341   6.727
11099WAT     H133539   0.449   9.258   6.671
11099WAT     H233540   0.345   9.369   6.730
11100WAT      O33541   0.796   9.485   9.322
11100WAT     H133542   0.760   9.578   9.318
11100WAT     H233543   0.787   9.449   9.415
11101WAT      O33544   6.622   5.828   3.791
11101WAT     H133545   6.669   5.915   3.772
11101WAT     H233546   6.670   5.779   3.863
11102WAT      O33547   4.566   9.817   0.801
11102WAT     H133548   4.607   9.850   0.716
11102WAT     H233549   4.538   9.894   0.857
11103WAT      O33550   1.947   3.569   6.365
11103WAT     H133551   1.936   3.668   6.362
11103WAT     H233552   1.883   3.526   6.301
11104WAT      O33553   5.217   2.816   5.001
11104WAT     H133554   5.130   2.848   4.963
11104WAT     H233555   5.292   2.847   4.942
11105WAT      O33556   9.877   4.918   5.105
11105WAT     H133557   9.934   4.837   5.091
11105WAT     H233558   9.922   4.998   5.064
11106WAT      O33559   0.484   9.650   2.798
11106WAT     H133560   0.465   9.589   2.875
11106WAT     H233561   0.476   9.745   2.829
11107WAT      O33562   7.857   4.016   0.007
11107WAT     H133563   7.932   4.023   0.072
11107WAT     H233564   7.889   3.968  -0.075
11108WAT      O33565   3.048   9.594   3.036
11108WAT     H133566   3.035   9.680   2.986
11108WAT     H233567   3.118   9.606   3.106
11109WAT      O33568   3.031   9.803   7.281
11109WAT     H133569   3.035   9.833   7.186
11109WAT     H233570   2.943   9.760   7.298
11110WAT      O33571   8.850   0.361   7.181
11110WAT     H133572   8.836   0.412   7.096
11110WAT     H233573   8.935   0.310   7.175
11111WAT      O33574   3.545   6.621   9.329
11111WAT     H133575   3.450   6.592   9.333
11111WAT     H233576   3.565   6.657   9.237
11112WAT      O33577   2.488   1.306   8.906
11112WAT     H133578   2.581   1.342   8.910
11112WAT     H233579   2.467   1.257   8.991
11113WAT      O33580   8.298   5.763   5.340
11113WAT     H133581   8.218   5.799   5.387
11113WAT     H233582   8.271   5.723   5.252
11114WAT      O33583   0.588   4.901   0.765
11114WAT     H133584   0.651   4.852   0.704
11114WAT     H233585   0.639   4.968   0.819
11115WAT      O33586   8.093   6.220   4.777
11115WAT     H133587   8.025   6.292   4.760
11115WAT     H233588   8.113   6.173   4.692
11116WAT      O33589   3.941   9.088   6.070
11116WAT     H133590   3.984   8.999   6.084
11116WAT     H233591   3.983   9.156   6.130
11117WAT      O33592   3.644   4.617   8.986
11117WAT     H133593   3.595   4.703   9.002
11117WAT     H233594   3.704   4.598   9.064
11118WAT      O33595   6.095   7.421   9.399
11118WAT     H133596   6.023   7.478   9.439
11118WAT     H233597   6.184   7.458   9.425
11119WAT      O33598   3.914   6.099   1.819
11119WAT     H133599   3.852   6.055   1.883
11119WAT     H233600   3.952   6.031   1.756
11120WAT      O33601   0.716   5.669   2.197
11120WAT     H133602   0.714   5.666   2.097
11120WAT     H233603   0.634   5.715   2.231
11121WAT      O33604   4.037   6.461   4.153
11121WAT     H133605   3.980   6.405   4.093
11121WAT     H233606   4.131   6.427   4.150
11122WAT      O33607   5.623   7.227   6.778
11122WAT     H133608   5.698   7.288   6.754
11122WAT     H233609   5.657   7.133   6.782
11123WAT      O33610   9.573   1.680   7.496
11123WAT     H133611   9.650   1.701   7.435
11123WAT     H233612   9.501   1.634   7.444
11124WAT      O33613   1.387   8.821   3.701
11124WAT     H133614   1.310   8.849   3.758
11124WAT     H233615   1.400   8.887   3.627
11125WAT      O33616   4.675   9.150   9.542
11125WAT     H133617   4.767   9.147   9.579
11125WAT     H233618   4.657   9.242   9.505
11126WAT      O33619   8.090   2.729   9.632
11126WAT     H133620   8.139   2.785   9.565
11126WAT     H233621   8.106   2.764   9.724
11127WAT      O33622   0.316   3.059   9.514
11127WAT     H133623   0.248   3.132   9.523
11127WAT     H233624   0.401   3.087   9.560
11128WAT      O33625   8.714   3.435   7.363
11128WAT     H133626   8.736   3.531   7.385
11128WAT     H233627   8.738   3.417   7.268
11129WAT      O33628   7.005   7.119   7.934
11129WAT     H133629   6.957   7.204   7.910
11129WAT     H233630   6.948   7.041   7.909
11130WAT      O33631   3.805   5.023   3.895
11130WAT     H133632   3.725   5.084   3.890
11130WAT     H233633   3.813   4.986   3.987
11131WAT      O33634   1.251   7.135   3.503
11131WAT     H133635   1.293   7.044   3.508
11131WAT     H233636   1.219   7.161   3.594
11132WAT      O33637   8.087   1.842   3.925
11132WAT     H133638   8.144   1.762   3.912
11132WAT     H233639   8.085   1.896   3.841
11133WAT      O33640   5.340   6.553   2.252
11133WAT     H133641   5.265   6.576   2.190
11133WAT     H233642   5.328   6.602   2.338
11134WAT      O33643   0.616   1.918   9.315
11134WAT     H133644   0.532   1.966   9.290
11134WAT     H233645   0.601   1.820   9.313
11135WAT      O33646   8.941   8.221   9.339
11135WAT     H133647   9.040   8.232   9.351
11135WAT     H233648   8.924   8.168   9.256
11136WAT      O33649   0.470   2.617   4.626
11136WAT     H133650   0.428   2.598   4.715
11136WAT     H233651   0.407   2.590   4.553
11137WAT      O33652   1.152   4.483   6.020
11137WAT     H133653   1.175   4.508   6.114
11137WAT     H233654   1.167   4.386   6.007
11138WAT      O33655   4.804   3.370   6.701
11138WAT     H133656   4.768   3.426   6.775
11138WAT     H233657   4.757   3.393   6.616
11139WAT      O33658   3.173   6.049   9.561
11139WAT     H133659   3.174   5.971   9.498
11139WAT     H233660   3.208   6.020   9.650
11140WAT      O33661   8.459   7.612   7.661
11140WAT     H133662   8.378   7.611   7.602
11140WAT     H233663   8.539   7.583   7.609
11141WAT      O33664   8.209   2.283   9.262
11141WAT     H133665   8.173   2.374   9.285
11141WAT     H233666   8.305   2.291   9.235
11142WAT      O33667   0.365   5.239   8.080
11142WAT     H133668   0.363   5.160   8.019
11142WAT     H233669   0.459   5.270   8.091
11143WAT      O33670   6.461   8.580   7.460
11143WAT     H133671   6.545   8.565   7.512
11143WAT     H233672   6.397   8.635   7.515
11144WAT      O33673   4.531   4.376   7.190
11144WAT     H133674   4.591   4.433   7.133
11144WAT     H233675   4.516   4.423   7.277
11145WAT      O33676   7.438   5.567   3.006
11145WAT     H133677   7.372   5.617   3.062
11145WAT     H233678   7.524   5.558   3.057
11146WAT      O33679   4.843   8.162   8.128
11146WAT     H133680   4.887   8.160   8.039
11146WAT     H233681   4.901   8.209   8.194
11147WAT      O33682   6.207   8.390   3.056
11147WAT     H133683   6.127   8.333   3.033
11147WAT     H233684   6.177   8.472   3.104
11148WAT      O33685   1.755   6.399   5.206
11148WAT     H133686   1.703   6.446   5.134
11148WAT     H233687   1.786   6.466   5.274
11149WAT      O33688   4.542   4.296   7.889
11149WAT     H133689   4.459   4.351   7.886
11149WAT     H233690   4.621   4.354   7.868
11150WAT      O33691   9.192   6.063   0.900
11150WAT     H133692   9.283   6.024   0.895
11150WAT     H233693   9.124   5.990   0.901
11151WAT      O33694   6.958   1.657   0.149
11151WAT     H133695   6.914   1.622   0.066
11151WAT     H233696   7.045   1.699   0.126
11152WAT      O33697   2.424   9.006   8.456
11152WAT     H133698   2.463   8.968   8.372
11152WAT     H233699   2.352   8.946   8.489
11153WAT      O33700   6.979   7.577   7.971
11153WAT     H133701   7.065   7.627   7.977
11153WAT     H233702   6.916   7.610   8.040
11154WAT      O33703   1.268   3.837   9.703
11154WAT     H133704   1.265   3.921   9.648
11154WAT     H233705   1.296   3.860   9.797
11155WAT      O33706   6.919   0.402   3.120
11155WAT     H133707   6.974   0.414   3.202
11155WAT     H233708   6.822   0.406   3.145
11156WAT      O33709   3.898   9.805   6.241
11156WAT     H133710   3.926   9.803   6.337
11156WAT     H233711   3.839   9.885   6.226
11157WAT      O33712   1.806   5.403   4.363
11157WAT     H133713   1.786   5.486   4.311
11157WAT     H233714   1.721   5.354   4.381
11158WAT      O33715   1.707   8.236   6.169
11158WAT     H133716   1.635   8.268   6.107
11158WAT     H233717   1.732   8.142   6.144
11159WAT      O33718   4.116   7.617   6.611
11159WAT     H133719   4.082   7.524   6.599
11159WAT     H233720   4.122   7.662   6.522
11160WAT      O33721   5.254   4.281   1.035
11160WAT     H133722   5.179   4.335   0.996
11160WAT     H233723   5.228   4.185   1.039
11161WAT      O33724   2.699   4.028   7.210
11161WAT     H133725   2.689   3.944   7.263
11161WAT     H233726   2.709   4.005   7.113
11162WAT      O33727   3.569   3.743   0.917
11162WAT     H133728   3.508   3.769   0.842
11162WAT     H233729   3.518   3.742   1.003
11163WAT      O33730   6.063   7.023   4.404
11163WAT     H133731   6.146   7.079   4.416
11163WAT     H233732   6.011   7.057   4.326
11164WAT      O33733   2.061   7.832   1.227
11164WAT     H133734   2.110   7.745   1.216
11164WAT     H233735   1.963   7.815   1.225
11165WAT      O33736   1.469   5.257   0.212
11165WAT     H133737   1.389   5.307   0.180
11165WAT     H233738   1.498   5.294   0.300
11166WAT      O33739   3.754   2.430   4.895
11166WAT     H133740   3.704   2.439   4.809
11166WAT     H233741   3.696   2.383   4.963
11167WAT      O33742   0.120   8.689   8.815
11167WAT     H133743   0.113   8.675   8.914
11167WAT     H233744   0.063   8.766   8.788
11168WAT      O33745   3.346   8.380   5.330
11168WAT     H133746   3.437   8.339   5.322
11168WAT     H233747   3.279   8.322   5.284
11169WAT      O33748   8.480   1.452   0.627
11169WAT     H133749   8.506   1.546   0.602
11169WAT     H233750   8.448   1.450   0.722
11170WAT      O33751   8.923   4.444   4.846
11170WAT     H133752   8.986   4.390   4.901
11170WAT     H233753   8.829   4.422   4.872
11171WAT      O33754   1.561   2.475   6.080
11171WAT     H133755   1.616   2.421   6.145
11171WAT     H233756   1.466   2.478   6.111
11172WAT      O33757   3.236   3.478   8.421
11172WAT     H133758   3.322   3.503   8.377
11172WAT     H233759   3.167   3.460   8.351
11173WAT      O33760   1.620   8.065   6.543
11173WAT     H133761   1.548   8.063   6.612
11173WAT     H233762   1.616   8.151   6.492
11174WAT      O33763   8.788   8.935   2.545
11174WAT     H133764   8.834   8.860   2.593
11174WAT     H233765   8.848   8.969   2.472
11175WAT      O33766   2.201   6.453   3.766
11175WAT     H133767   2.232   6.490   3.679
11175WAT     H233768   2.165   6.360   3.751
11176WAT      O33769   5.655   2.443   0.364
11176WAT     H133770   5.603   2.424   0.447
11176WAT     H233771   5.607   2.511   0.309
11177WAT      O33772   4.735   3.074   8.232
11177WAT     H133773   4.779   3.139   8.170
11177WAT     H233774   4.636   3.079   8.221
11178WAT      O33775   1.494   9.352   3.198
11178WAT     H133776   1.535   9.441   3.175
11178WAT     H233777   1.539   9.315   3.279
11179WAT      O33778   1.088   0.943   4.877
11179WAT     H133779   1.116   0.850   4.851
11179WAT     H233780   1.011   0.971   4.821
11180WAT      O33781   2.321   5.886   2.182
11180WAT     H133782   2.264   5.881   2.264
11180WAT     H233783   2.322   5.980   2.148
11181WAT      O33784   0.685   9.413   7.242
11181WAT     H133785   0.605   9.378   7.290
11181WAT     H233786   0.751   9.339   7.228
11182WAT      O33787   2.614   4.820   9.555
11182WAT     H133788   2.618   4.725   9.524
11182WAT     H233789   2.678   4.875   9.501
11183WAT      O33790   1.576   6.805   9.735
11183WAT     H133791   1.513   6.833   9.663
11183WAT     H233792   1.667   6.843   9.716
11184WAT      O33793   0.005   4.120   6.375
11184WAT     H133794   0.001   4.022   6.356
11184WAT     H233795   0.061   4.136   6.457
11185WAT      O33796   2.835   5.728   8.803
11185WAT     H133797   2.787   5.816   8.798
11185WAT     H233798   2.790   5.670   8.871
11186WAT      O33799   6.936   2.280   0.999
11186WAT     H133800   7.018   2.226   1.018
11186WAT     H233801   6.913   2.272   0.902
11187WAT      O33802   0.006   1.582   0.567
11187WAT     H133803  -0.023   1.530   0.486
11187WAT     H233804  -0.011   1.679   0.552
11188WAT      O33805   7.316   4.780   0.362
11188WAT     H133806   7.252   4.707   0.338
11188WAT     H233807   7.354   4.820   0.278
11189WAT      O33808   7.323   6.820   1.257
11189WAT     H133809   7.393   6.875   1.303
11189WAT     H233810   7.357   6.727   1.245
11190WAT      O33811   2.909   0.043   0.074
11190WAT     H133812   2.936   0.136   0.098
11190WAT     H233813   2.810   0.034   0.080
11191WAT      O33814   9.064   7.868   6.882
11191WAT     H133815   9.101   7.896   6.971
11191WAT     H233816   9.013   7.783   6.893
11192WAT      O33817   8.437   6.165   0.579
11192WAT     H133818   8.429   6.264   0.596
11192WAT     H233819   8.421   6.115   0.664
11193WAT      O33820   6.942   5.077   8.630
11193WAT     H133821   6.887   5.155   8.660
11193WAT     H233822   7.016   5.061   8.695
11194WAT      O33823   6.300   5.457   7.808
11194WAT     H133824   6.383   5.451   7.864
11194WAT     H233825   6.285   5.553   7.782
11195WAT      O33826   0.741   7.412   6.695
11195WAT     H133827   0.836   7.397   6.722
11195WAT     H233828   0.703   7.486   6.750
11196WAT      O33829   4.760   8.937   2.964
11196WAT     H133830   4.831   8.932   2.895
11196WAT     H233831   4.786   9.004   3.034
11197WAT      O33832   2.896   9.214   0.287
11197WAT     H133833   2.976   9.153   0.282
11197WAT     H233834   2.825   9.180   0.226
11198WAT      O33835   1.417   8.842   0.503
11198WAT     H133836   1.502   8.884   0.471
11198WAT     H233837   1.374   8.793   0.428
11199WAT      O33838   4.159   9.511   8.916
11199WAT     H133839   4.239   9.551   8.871
11199WAT     H233840   4.120   9.440   8.858
11200WAT      O33841   0.074   2.395   0.342
11200WAT     H133842   0.037   2.478   0.383
11200WAT     H233843   0.147   2.359   0.401
11201WAT      O33844   8.361   9.618   8.368
11201WAT     H133845   8.323   9.669   8.290
11201WAT     H233846   8.298   9.623   8.445
11202WAT      O33847   4.222   2.004   9.182
11202WAT     H133848   4.217   2.093   9.229
11202WAT     H233849   4.317   1.976   9.175
11203WAT      O33850   8.936   5.501   0.510
11203WAT     H133851   8.911   5.408   0.535
11203WAT     H233852   8.987   5.500   0.424
11204WAT      O33853   7.583   3.039   3.988
11204WAT     H133854   7.566   3.066   3.893
11204WAT     H233855   7.652   2.966   3.990
11205WAT      O33856   2.377   9.396   2.995
11205WAT     H133857   2.416   9.389   2.903
11205WAT     H233858   2.370   9.305   3.035
11206WAT      O33859   8.219   7.367   9.304
11206WAT     H133860   8.145   7.384   9.239
11206WAT     H233861   8.239   7.451   9.355
11207WAT      O33862   8.146   3.377   4.036
11207WAT     H133863   8.179   3.410   4.125
11207WAT     H233864   8.195   3.424   3.963
11208WAT      O33865   4.041   2.735   2.268
11208WAT     H133866   4.078   2.646   2.242
11208WAT     H233867   3.968   2.760   2.205
11209WAT      O33868   7.361   5.626   9.658
11209WAT     H133869   7.312   5.605   9.742
11209WAT     H233870   7.457   5.643   9.678
11210WAT      O33871   7.744   2.218   3.375
11210WAT     H133872   7.739   2.136   3.431
11210WAT     H233873   7.827   2.269   3.399
11211WAT      O33874   9.562   8.309   4.741
11211WAT     H133875   9.653   8.347   4.727
11211WAT     H233876   9.526   8.340   4.829
11212WAT      O33877   7.469   4.593   4.459
11212WAT     H133878   7.498   4.644   4.539
11212WAT     H233879   7.538   4.524   4.436
11213WAT      O33880   4.986   1.188   7.498
11213WAT     H133881   5.056   1.146   7.556
11213WAT     H233882   4.957   1.274   7.539
11214WAT      O33883   2.131   1.506   9.019
11214WAT     H133884   2.174   1.463   8.940
11214WAT     H233885   2.061   1.570   8.987
11215WAT      O33886   6.237   7.763   0.306
11215WAT     H133887   6.274   7.683   0.259
11215WAT     H233888   6.294   7.843   0.284
11216WAT      O33889   6.076   2.711   2.191
11216WAT     H133890   6.170   2.679   2.195
11216WAT     H233891   6.073   2.809   2.208
11217WAT      O33892   4.439   0.356   3.028
11217WAT     H133893   4.521   0.301   3.044
11217WAT     H233894   4.410   0.399   3.113
11218WAT      O33895   2.244   6.551   7.522
11218WAT     H133896   2.175   6.519   7.588
11218WAT     H233897   2.203   6.557   7.431
11219WAT      O33898   2.241   3.284   9.842
11219WAT     H133899   2.230   3.379   9.871
11219WAT     H233900   2.327   3.275   9.791
11220WAT      O33901   3.123   9.552   9.261
11220WAT     H133902   3.082   9.617   9.197
11220WAT     H233903   3.077   9.557   9.349
11221WAT      O33904   8.753   5.663   6.071
11221WAT     H133905   8.825   5.662   6.141
11221WAT     H233906   8.668   5.697   6.111
11222WAT      O33907   1.215   9.248   8.871
11222WAT     H133908   1.132   9.302   8.887
11222WAT     H233909   1.209   9.163   8.923
11223WAT      O33910   7.430   0.043   9.888
11223WAT     H133911   7.346   0.010   9.931
11223WAT     H233912   7.422   0.033   9.788
11224WAT      O33913   1.106   7.681   9.427
11224WAT     H133914   1.202   7.672   9.400
11224WAT     H233915   1.095   7.762   9.485
11225WAT      O33916   3.973   2.139   1.640
11225WAT     H133917   4.041   2.211   1.653
11225WAT     H233918   3.912   2.137   1.719
11226WAT      O33919   9.705   8.905   9.573
11226WAT     H133920   9.802   8.907   9.595
11226WAT     H233921   9.657   8.846   9.639
11227WAT      O33922   4.636   6.140   8.628
11227WAT     H133923   4.594   6.210   8.570
11227WAT     H233924   4.575   6.120   8.705
11228WAT      O33925   3.033   6.201   6.508
11228WAT     H133926   3.085   6.253   6.440
11228WAT     H233927   2.935   6.217   6.494
11229WAT      O33928   3.467   8.867   0.321
11229WAT     H133929   3.501   8.782   0.361
11229WAT     H233930   3.447   8.852   0.224
11230WAT      O33931   3.196   9.267   8.433
11230WAT     H133932   3.264   9.233   8.369
11230WAT     H233933   3.240   9.323   8.503
11231WAT      O33934   2.987   0.757   1.309
11231WAT     H133935   2.991   0.725   1.404
11231WAT     H233936   2.949   0.849   1.306
11232WAT      O33937   9.358   0.765   9.470
11232WAT     H133938   9.310   0.708   9.536
11232WAT     H233939   9.404   0.840   9.518
11233WAT      O33940   6.347   9.725   6.971
11233WAT     H133941   6.418   9.662   6.939
11233WAT     H233942   6.286   9.678   7.035
11234WAT      O33943   8.782   7.134   1.804
11234WAT     H133944   8.768   7.152   1.707
11234WAT     H233945   8.694   7.119   1.849
11235WAT      O33946   2.513   2.442   4.444
11235WAT     H133947   2.580   2.387   4.494
11235WAT     H233948   2.445   2.479   4.507
11236WAT      O33949   5.012   9.090   1.456
11236WAT     H133950   4.983   9.021   1.389
11236WAT     H233951   5.101   9.127   1.428
11237WAT      O33952   4.768   8.913   1.200
11237WAT     H133953   4.852   8.885   1.152
11237WAT     H233954   4.734   8.836   1.254
11238WAT      O33955   6.383   9.620   3.899
11238WAT     H133956   6.315   9.680   3.857
11238WAT     H233957   6.474   9.659   3.886
11239WAT      O33958   2.820   6.197   9.335
11239WAT     H133959   2.825   6.145   9.420
11239WAT     H233960   2.873   6.282   9.344
11240WAT      O33961   1.233   3.322   7.462
11240WAT     H133962   1.310   3.373   7.500
11240WAT     H233963   1.249   3.305   7.365
11241WAT      O33964   1.903   4.844   1.396
11241WAT     H133965   1.955   4.907   1.453
11241WAT     H233966   1.805   4.864   1.405
11242WAT      O33967   2.602   3.619   2.616
11242WAT     H133968   2.626   3.532   2.659
11242WAT     H233969   2.513   3.650   2.649
11243WAT      O33970   3.349   7.628   2.818
11243WAT     H133971   3.251   7.623   2.839
11243WAT     H233972   3.381   7.722   2.834
11244WAT      O33973   0.537   9.011   2.804
11244WAT     H133974   0.590   9.063   2.737
11244WAT     H233975   0.543   8.913   2.783
11245WAT      O33976   2.493   8.350   5.229
11245WAT     H133977   2.554   8.350   5.150
11245WAT     H233978   2.505   8.265   5.280
11246WAT      O33979   6.594   6.070   4.559
11246WAT     H133980   6.548   6.121   4.632
11246WAT     H233981   6.527   6.014   4.510
11247WAT      O33982   5.895   5.562   4.342
11247WAT     H133983   5.923   5.469   4.367
11247WAT     H233984   5.974   5.623   4.346
11248WAT      O33985   5.645   0.194   0.079
11248WAT     H133986   5.737   0.230   0.097
11248WAT     H233987   5.583   0.224   0.152
11249WAT      O33988   5.672   9.483   2.237
11249WAT     H133989   5.585   9.496   2.189
11249WAT     H233990   5.654   9.447   2.328
11250WAT      O33991   6.144   4.325   6.870
11250WAT     H133992   6.076   4.272   6.819
11250WAT     H233993   6.109   4.417   6.887
11251WAT      O33994   9.584   7.714   1.262
11251WAT     H133995   9.557   7.626   1.300
11251WAT     H233996   9.510   7.750   1.205
11252WAT      O33997   9.523   8.600   3.660
11252WAT     H133998   9.573   8.564   3.581
11252WAT     H233999   9.458   8.670   3.631
11253WAT      O34000   3.660   6.460   1.724
11253WAT     H134001   3.579   6.464   1.665
11253WAT     H234002   3.718   6.384   1.695
11254WAT      O34003   2.598   7.071   2.604
11254WAT     H134004   2.550   7.108   2.683
11254WAT     H234005   2.662   7.000   2.635
11255WAT      O34006   0.076   7.568   0.833
11255WAT     H134007   0.143   7.635   0.863
11255WAT     H234008   0.060   7.502   0.907
11256WAT      O34009   4.850   1.541   1.633
11256WAT     H134010   4.773   1.503   1.684
11256WAT     H234011   4.931   1.544   1.692
11257WAT      O34012   4.340   8.102   8.625
11257WAT     H134013   4.276   8.066   8.558
11257WAT     H234014   4.326   8.057   8.713
11258WAT      O34015   9.482   6.520   7.753
11258WAT     H134016   9.569   6.564   7.729
11258WAT     H234017   9.499   6.438   7.807
11259WAT      O34018   5.300   6.789   8.431
11259WAT     H134019   5.347   6.859   8.485
11259WAT     H234020   5.252   6.831   8.355
11260WAT      O34021   3.479   6.822   5.379
11260WAT     H134022   3.509   6.897   5.320
11260WAT     H234023   3.534   6.740   5.360
11261WAT      O34024   6.323   5.823   0.794
11261WAT     H134025   6.294   5.744   0.741
11261WAT     H234026   6.261   5.900   0.776
11262WAT      O34027   3.033   7.128   3.024
11262WAT     H134028   2.973   7.209   3.023
11262WAT     H234029   3.093   7.133   3.104
11263WAT      O34030   0.782   0.934   4.558
11263WAT     H134031   0.768   0.911   4.654
11263WAT     H234032   0.762   1.031   4.543
11264WAT      O34033   1.112   7.294   6.499
11264WAT     H134034   1.196   7.247   6.471
11264WAT     H234035   1.086   7.361   6.429
11265WAT      O34036   2.272   4.707   3.920
11265WAT     H134037   2.348   4.642   3.913
11265WAT     H234038   2.186   4.657   3.908
11266WAT      O34039   8.669   5.069   1.879
11266WAT     H134040   8.766   5.093   1.891
11266WAT     H234041   8.659   5.015   1.795
11267WAT      O34042   6.911   6.318   7.892
11267WAT     H134043   6.987   6.262   7.925
11267WAT     H234044   6.826   6.285   7.933
11268WAT      O34045   1.605   4.024   1.558
11268WAT     H134046   1.514   4.019   1.600
11268WAT     H234047   1.674   4.008   1.628
11269WAT      O34048   5.291   1.453   8.564
11269WAT     H134049   5.389   1.441   8.579
11269WAT     H234050   5.269   1.551   8.564
11270WAT      O34051   5.679   8.935   7.247
11270WAT     H134052   5.774   8.904   7.252
11270WAT     H234053   5.677   9.035   7.244
11271WAT      O34054   6.517   7.986   9.487
11271WAT     H134055   6.524   7.891   9.456
11271WAT     H234056   6.426   8.022   9.465
11272WAT      O34057   8.678   7.537   5.341
11272WAT     H134058   8.713   7.461   5.286
11272WAT     H234059   8.746   7.611   5.343
11273WAT      O34060   1.739   7.479   8.088
11273WAT     H134061   1.838   7.492   8.088
11273WAT     H234062   1.694   7.568   8.083
11274WAT      O34063   4.970   6.719   5.533
11274WAT     H134064   4.983   6.695   5.630
11274WAT     H234065   4.879   6.759   5.521
11275WAT      O34066   1.129   4.901   8.828
11275WAT     H134067   1.211   4.943   8.866
11275WAT     H234068   1.111   4.815   8.875
11276WAT      O34069   5.360   3.996   0.190
11276WAT     H134070   5.359   3.979   0.289
11276WAT     H234071   5.303   3.927   0.145
11277WAT      O34072   6.967   3.940   1.515
11277WAT     H134073   6.987   3.908   1.422
11277WAT     H234074   6.994   4.036   1.523
11278WAT      O34075   8.033   4.142   3.784
11278WAT     H134076   8.117   4.087   3.777
11278WAT     H234077   8.044   4.209   3.857
11279WAT      O34078   7.253   9.699   1.674
11279WAT     H134079   7.271   9.681   1.577
11279WAT     H234080   7.231   9.796   1.685
11280WAT      O34081   1.035   4.477   6.462
11280WAT     H134082   0.998   4.409   6.400
11280WAT     H234083   1.021   4.569   6.424
11281WAT      O34084   9.566   9.041   3.855
11281WAT     H134085   9.504   9.046   3.933
11281WAT     H234086   9.621   8.958   3.862
11282WAT      O34087   3.857   4.875   1.498
11282WAT     H134088   3.928   4.914   1.557
11282WAT     H234089   3.874   4.900   1.403
11283WAT      O34090   3.039   9.451   8.343
11283WAT     H134091   3.020   9.477   8.249
11283WAT     H234092   3.101   9.373   8.345
11284WAT      O34093   1.672   7.287   1.883
11284WAT     H134094   1.632   7.293   1.974
11284WAT     H234095   1.769   7.312   1.888
11285WAT      O34096   8.265   1.945   6.369
11285WAT     H134097   8.235   1.850   6.384
11285WAT     H234098   8.223   2.005   6.437
11286WAT      O34099   1.280   8.413   4.940
11286WAT     H134100   1.260   8.316   4.932
11286WAT     H234101   1.364   8.426   4.994
11287WAT      O34102   1.772   0.658   0.216
11287WAT     H134103   1.845   0.605   0.260
11287WAT     H234104   1.685   0.609   0.224
11288WAT      O34105   6.913   0.111   0.338
11288WAT     H134106   6.871   0.021   0.328
11288WAT     H234107   6.861   0.179   0.287
11289WAT      O34108   4.910   8.048   0.632
11289WAT     H134109   4.906   8.117   0.559
11289WAT     H234110   4.893   8.092   0.720
11290WAT      O34111   9.571   9.279   8.016
11290WAT     H134112   9.582   9.327   7.929
11290WAT     H234113   9.628   9.324   8.085
11291WAT      O34114   8.506   3.372   1.009
11291WAT     H134115   8.436   3.301   1.016
11291WAT     H234116   8.584   3.337   0.957
11292WAT      O34117   0.673   3.952   8.919
11292WAT     H134118   0.706   3.873   8.971
11292WAT     H234119   0.702   3.943   8.823
11293WAT      O34120   7.374   3.419   9.585
11293WAT     H134121   7.327   3.333   9.605
11293WAT     H234122   7.320   3.472   9.520
11294WAT      O34123   2.391   5.845   1.541
11294WAT     H134124   2.408   5.835   1.639
11294WAT     H234125   2.466   5.896   1.499
11295WAT      O34126   7.434   9.326   0.453
11295WAT     H134127   7.340   9.317   0.487
11295WAT     H234128   7.492   9.366   0.523
11296WAT      O34129   3.553   4.152   9.188
11296WAT     H134130   3.525   4.216   9.116
11296WAT     H234131   3.567   4.061   9.149
11297WAT      O34132   2.293   5.003   4.282
11297WAT     H134133   2.216   5.047   4.237
11297WAT     H234134   2.298   4.907   4.254
11298WAT      O34135   7.013   1.700   4.898
11298WAT     H134136   6.926   1.677   4.940
11298WAT     H234137   7.002   1.779   4.838
11299WAT      O34138   2.476   8.478   7.218
11299WAT     H134139   2.454   8.400   7.277
11299WAT     H234140   2.411   8.552   7.234
11300WAT      O34141   3.078   9.326   4.583
11300WAT     H134142   3.009   9.280   4.527
11300WAT     H234143   3.055   9.315   4.679
11301WAT      O34144   2.601   9.179   6.283
11301WAT     H134145   2.615   9.278   6.283
11301WAT     H234146   2.507   9.159   6.311
11302WAT      O34147   2.615   8.506   0.639
11302WAT     H134148   2.528   8.534   0.599
11302WAT     H234149   2.618   8.531   0.736
11303WAT      O34150   1.525   5.496   9.636
11303WAT     H134151   1.500   5.574   9.578
11303WAT     H234152   1.469   5.497   9.719
11304WAT      O34153   6.497   2.770   2.420
11304WAT     H134154   6.475   2.755   2.323
11304WAT     H234155   6.415   2.802   2.468
11305WAT      O34156   3.324   9.731   2.784
11305WAT     H134157   3.310   9.635   2.760
11305WAT     H234158   3.243   9.784   2.758
11306WAT      O34159   1.938   7.017   0.034
11306WAT     H134160   1.959   7.063   0.120
11306WAT     H234161   2.022   6.999  -0.016
11307WAT      O34162   4.408   2.153   7.646
11307WAT     H134163   4.328   2.213   7.640
11307WAT     H234164   4.486   2.198   7.603
11308WAT      O34165   8.698   2.830   4.979
11308WAT     H134166   8.674   2.926   4.963
11308WAT     H234167   8.687   2.808   5.076
11309WAT      O34168   8.451   9.347   3.202
11309WAT     H134169   8.373   9.343   3.139
11309WAT     H234170   8.503   9.262   3.196
11310WAT      O34171   1.388   2.183   3.964
11310WAT     H134172   1.388   2.197   3.865
11310WAT     H234173   1.303   2.218   4.003
11311WAT      O34174   9.873   7.488   1.456
11311WAT     H134175   9.790   7.436   1.440
11311WAT     H234176   9.863   7.580   1.418
11312WAT      O34177   2.866   2.842   6.386
11312WAT     H134178   2.818   2.758   6.414
11312WAT     H234179   2.806   2.895   6.326
11313WAT      O34180   9.280   6.783   8.662
11313WAT     H134181   9.260   6.698   8.613
11313WAT     H234182   9.352   6.766   8.730
11314WAT      O34183   1.139   6.516   9.833
11314WAT     H134184   1.238   6.509   9.840
11314WAT     H234185   1.108   6.473   9.748
11315WAT      O34186   8.458   4.755   3.975
11315WAT     H134187   8.543   4.803   3.997
11315WAT     H234188   8.382   4.800   4.021
11316WAT      O34189   1.815   0.853   4.974
11316WAT     H134190   1.749   0.847   4.899
11316WAT     H234191   1.856   0.763   4.989
11317WAT      O34192   3.905   5.538   5.801
11317WAT     H134193   3.868   5.499   5.717
11317WAT     H234194   3.980   5.482   5.835
11318WAT      O34195   2.556   8.323   6.780
11318WAT     H134196   2.499   8.324   6.862
11318WAT     H234197   2.540   8.238   6.730
11319WAT      O34198   7.189   0.354   8.196
11319WAT     H134199   7.200   0.268   8.147
11319WAT     H234200   7.272   0.410   8.185
11320WAT      O34201   7.712   8.802   9.713
11320WAT     H134202   7.719   8.900   9.733
11320WAT     H234203   7.658   8.789   9.631
11321WAT      O34204   9.070   2.776   5.999
11321WAT     H134205   9.125   2.833   6.060
11321WAT     H234206   9.054   2.687   6.041
11322WAT      O34207   6.442   1.662   4.881
11322WAT     H134208   6.528   1.637   4.925
11322WAT     H234209   6.418   1.756   4.904
11323WAT      O34210   7.506   4.218   2.107
11323WAT     H134211   7.410   4.236   2.088
11323WAT     H234212   7.537   4.139   2.055
11324WAT      O34213   5.952   5.549   7.816
11324WAT     H134214   5.892   5.474   7.791
11324WAT     H234215   6.021   5.562   7.745
11325WAT      O34216   7.487   4.090   7.154
11325WAT     H134217   7.407   4.145   7.179
11325WAT     H234218   7.471   4.044   7.067
11326WAT      O34219   5.185   7.067   7.700
11326WAT     H134220   5.097   7.063   7.748
11326WAT     H234221   5.169   7.059   7.602
11327WAT      O34222   9.708   6.111   2.965
11327WAT     H134223   9.793   6.061   2.983
11327WAT     H234224   9.725   6.181   2.896
11328WAT      O34225   8.126   9.531   1.998
11328WAT     H134226   8.150   9.448   2.048
11328WAT     H234227   8.042   9.569   2.036
11329WAT      O34228   5.868   0.635   0.134
11329WAT     H134229   5.956   0.587   0.132
11329WAT     H234230   5.838   0.644   0.229
11330WAT      O34231   1.912   2.111   7.049
11330WAT     H134232   2.003   2.075   7.025
11330WAT     H234233   1.923   2.200   7.093
11331WAT      O34234   0.852   5.630   4.533
11331WAT     H134235   0.785   5.623   4.607
11331WAT     H234236   0.805   5.641   4.446
11332WAT      O34237   9.438   4.274   0.864
11332WAT     H134238   9.418   4.364   0.827
11332WAT     H234239   9.447   4.280   0.964
11333WAT      O34240   5.446   7.362   1.978
11333WAT     H134241   5.445   7.321   1.887
11333WAT     H234242   5.533   7.342   2.022
11334WAT      O34243   9.370   4.575   2.319
11334WAT     H134244   9.343   4.479   2.321
11334WAT     H234245   9.323   4.621   2.243
11335WAT      O34246   2.455   0.895   3.317
11335WAT     H134247   2.547   0.862   3.340
11335WAT     H234248   2.421   0.954   3.389
11336WAT      O34249   8.193   2.991   1.254
11336WAT     H134250   8.146   3.011   1.168
11336WAT     H234251   8.240   3.073   1.286
11337WAT      O34252   3.928   4.416   4.723
11337WAT     H134253   4.026   4.397   4.725
11337WAT     H234254   3.895   4.413   4.628
11338WAT      O34255   6.696   6.879   0.565
11338WAT     H134256   6.646   6.918   0.487
11338WAT     H234257   6.775   6.827   0.532
11339WAT      O34258   1.440   6.201   9.894
11339WAT     H134259   1.532   6.182   9.860
11339WAT     H234260   1.429   6.300   9.906
11340WAT      O34261   5.420   4.318   6.684
11340WAT     H134262   5.373   4.319   6.772
11340WAT     H234263   5.482   4.240   6.680
11341WAT      O34264   4.763   3.613   5.553
11341WAT     H134265   4.849   3.626   5.504
11341WAT     H234266   4.688   3.652   5.500
11342WAT      O34267   1.188   0.004   2.170
11342WAT     H134268   1.102   0.009   2.120
11342WAT     H234269   1.264   0.016   2.106
11343WAT      O34270   1.879   3.578   7.788
11343WAT     H134271   1.926   3.623   7.864
11343WAT     H234272   1.795   3.536   7.821
11344WAT      O34273   0.936   7.824   4.873
11344WAT     H134274   0.842   7.846   4.845
11344WAT     H234275   0.936   7.797   4.969
11345WAT      O34276   6.156   5.174   9.711
11345WAT     H134277   6.113   5.212   9.630
11345WAT     H234278   6.091   5.173   9.787
11346WAT      O34279   6.425   7.243   5.654
11346WAT     H134280   6.377   7.159   5.680
11346WAT     H234281   6.358   7.314   5.632
11347WAT      O34282   6.132   7.985   0.764
11347WAT     H134283   6.129   7.886   0.765
11347WAT     H234284   6.052   8.022   0.812
11348WAT      O34285   0.966   5.339   7.130
11348WAT     H134286   0.885   5.302   7.083
11348WAT     H234287   0.937   5.388   7.213
11349WAT      O34288   8.448   8.244   5.547
11349WAT     H134289   8.436   8.340   5.571
11349WAT     H234290   8.370   8.191   5.581
11350WAT      O34291   8.948   6.674   6.206
11350WAT     H134292   8.931   6.577   6.220
11350WAT     H234293   8.865   6.726   6.225
11351WAT      O34294   6.962   4.843   3.848
11351WAT     H134295   6.999   4.750   3.847
11351WAT     H234296   7.027   4.905   3.890
11352WAT      O34297   6.160   2.946   7.087
11352WAT     H134298   6.124   2.984   7.002
11352WAT     H234299   6.238   3.001   7.118
11353WAT      O34300   4.453   1.319   9.361
11353WAT     H134301   4.480   1.281   9.273
11353WAT     H234302   4.503   1.405   9.377
11354WAT      O34303   2.864   2.042   7.405
11354WAT     H134304   2.874   2.081   7.314
11354WAT     H234305   2.952   2.044   7.452
11355WAT      O34306   1.332   0.624   6.003
11355WAT     H134307   1.294   0.566   5.931
11355WAT     H234308   1.431   0.627   5.995
11356WAT      O34309   5.241   6.023   2.328
11356WAT     H134310   5.281   6.085   2.261
11356WAT     H234311   5.222   5.935   2.284
11357WAT      O34312   3.139   3.300   9.573
11357WAT     H134313   3.171   3.223   9.628
11357WAT     H234314   3.053   3.334   9.610
11358WAT      O34315   2.108   3.943   0.762
11358WAT     H134316   2.194   3.935   0.712
11358WAT     H234317   2.117   3.902   0.852
11359WAT      O34318   7.872   8.800   2.269
11359WAT     H134319   7.883   8.705   2.242
11359WAT     H234320   7.921   8.859   2.205
11360WAT      O34321   0.986   6.118   7.563
11360WAT     H134322   1.021   6.027   7.541
11360WAT     H234323   1.042   6.187   7.517
11361WAT      O34324   5.024   3.669   6.931
11361WAT     H134325   5.075   3.584   6.945
11361WAT     H234326   4.979   3.695   7.015
11362WAT      O34327   1.684   0.309   2.971
11362WAT     H134328   1.590   0.290   2.943
11362WAT     H234329   1.692   0.403   3.002
11363WAT      O34330   2.089   4.126   1.743
11363WAT     H134331   2.059   4.191   1.673
11363WAT     H234332   2.046   4.038   1.728
11364WAT      O34333   3.060   7.702   2.913
11364WAT     H134334   3.118   7.783   2.908
11364WAT     H234335   3.030   7.687   3.007
11365WAT      O34336   5.935   7.648   6.347
11365WAT     H134337   5.951   7.550   6.348
11365WAT     H234338   5.847   7.667   6.302
11366WAT      O34339   6.424   7.453   7.334
11366WAT     H134340   6.343   7.411   7.375
11366WAT     H234341   6.396   7.531   7.278
11367WAT      O34342   5.661   7.760   1.203
11367WAT     H134343   5.734   7.782   1.138
11367WAT     H234344   5.628   7.843   1.247
11368WAT      O34345   6.871   6.748   1.920
11368WAT     H134346   6.874   6.847   1.903
11368WAT     H234347   6.841   6.730   2.013
11369WAT      O34348   3.341   1.232   8.188
11369WAT     H134349   3.350   1.133   8.184
11369WAT     H234350   3.431   1.274   8.200
11370WAT      O34351   6.654   1.182   0.710
11370WAT     H134352   6.697   1.187   0.619
11370WAT     H234353   6.710   1.232   0.776
11371WAT      O34354   6.298   2.788   3.567
11371WAT     H134355   6.317   2.787   3.665
11371WAT     H234356   6.232   2.715   3.545
11372WAT      O34357   1.426   7.727   1.775
11372WAT     H134358   1.408   7.640   1.729
11372WAT     H234359   1.480   7.786   1.715
11373WAT      O34360   7.327   3.477   9.105
11373WAT     H134361   7.264   3.405   9.075
11373WAT     H234362   7.357   3.530   9.026
11374WAT      O34363   8.711   5.022   2.610
11374WAT     H134364   8.622   4.975   2.616
11374WAT     H234365   8.737   5.055   2.701
11375WAT      O34366   5.711   5.240   2.288
11375WAT     H134367   5.737   5.146   2.312
11375WAT     H234368   5.713   5.250   2.189
11376WAT      O34369   8.112   6.931   6.111
11376WAT     H134370   8.061   6.915   6.196
11376WAT     H234371   8.209   6.913   6.127
11377WAT      O34372   5.552   4.306   1.393
11377WAT     H134373   5.489   4.247   1.342
11377WAT     H234374   5.504   4.388   1.423
11378WAT      O34375   2.378   7.622   3.217
11378WAT     H134376   2.464   7.669   3.239
11378WAT     H234377   2.320   7.619   3.298
11379WAT      O34378   9.307   3.664   0.838
11379WAT     H134379   9.344   3.752   0.808
11379WAT     H234380   9.317   3.656   0.937
11380WAT      O34381   7.173   2.119   1.018
11380WAT     H134382   7.188   2.061   0.938
11380WAT     H234383   7.240   2.096   1.089
11381WAT      O34384   3.265   2.066   7.931
11381WAT     H134385   3.257   1.993   8.000
11381WAT     H234386   3.219   2.148   7.965
11382WAT      O34387   0.256   6.948   4.570
11382WAT     H134388   0.250   6.848   4.573
11382WAT     H234389   0.321   6.975   4.499
11383WAT      O34390   1.748   3.513   1.796
11383WAT     H134391   1.700   3.514   1.884
11383WAT     H234392   1.820   3.582   1.796
11384WAT      O34393   2.508   8.766   5.543
11384WAT     H134394   2.476   8.712   5.621
11384WAT     H234395   2.430   8.811   5.499
11385WAT      O34396   2.255   3.510   5.783
11385WAT     H134397   2.191   3.587   5.790
11385WAT     H234398   2.345   3.539   5.815
11386WAT      O34399   4.570   7.492   0.445
11386WAT     H134400   4.637   7.508   0.518
11386WAT     H234401   4.563   7.574   0.388
11387WAT      O34402   3.544   0.682   2.987
11387WAT     H134403   3.482   0.734   3.047
11387WAT     H234404   3.614   0.744   2.950
11388WAT      O34405   3.609   1.746   0.635
11388WAT     H134406   3.537   1.753   0.566
11388WAT     H234407   3.652   1.656   0.629
11389WAT      O34408   4.195   1.115   7.542
11389WAT     H134409   4.157   1.022   7.550
11389WAT     H234410   4.256   1.132   7.620
11390WAT      O34411   0.489   4.380   2.982
11390WAT     H134412   0.492   4.294   3.032
11390WAT     H234413   0.402   4.387   2.933
11391WAT      O34414   7.302   7.782   2.663
11391WAT     H134415   7.316   7.870   2.619
11391WAT     H234416   7.390   7.744   2.692
11392WAT      O34417   2.370   2.287   4.274
11392WAT     H134418   2.279   2.324   4.254
11392WAT     H234419   2.421   2.352   4.330
11393WAT      O34420   6.783   4.425   9.801
11393WAT     H134421   6.762   4.423   9.898
11393WAT     H234422   6.751   4.341   9.757
11394WAT      O34423   4.479   0.498   6.776
11394WAT     H134424   4.422   0.460   6.849
11394WAT     H234425   4.483   0.432   6.700
11395WAT      O34426   4.096   3.237   5.889
11395WAT     H134427   4.131   3.153   5.931
11395WAT     H234428   4.015   3.268   5.939
11396WAT      O34429   4.369   9.015   3.200
11396WAT     H134430   4.424   8.943   3.242
11396WAT     H234431   4.417   9.103   3.209
11397WAT      O34432   9.360   4.518   5.253
11397WAT     H134433   9.317   4.534   5.164
11397WAT     H234434   9.417   4.437   5.249
11398WAT      O34435   6.266   8.821   8.683
11398WAT     H134436   6.193   8.820   8.752
11398WAT     H234437   6.322   8.903   8.695
11399WAT      O34438   9.509   9.153   8.843
11399WAT     H134439   9.506   9.138   8.744
11399WAT     H234440   9.475   9.245   8.863
11400WAT      O34441   5.944   6.625   3.369
11400WAT     H134442   6.041   6.599   3.370
11400WAT     H234443   5.931   6.705   3.427
11401WAT      O34444   5.800   8.096   6.477
11401WAT     H134445   5.801   8.137   6.386
11401WAT     H234446   5.746   8.153   6.539
11402WAT      O34447   4.146   0.126   8.985
11402WAT     H134448   4.145   0.030   9.012
11402WAT     H234449   4.071   0.144   8.922
11403WAT      O34450   4.401   3.057   5.941
11403WAT     H134451   4.450   3.123   5.884
11403WAT     H234452   4.414   3.081   6.037
11404WAT      O34453   8.882   4.123   1.741
11404WAT     H134454   8.974   4.101   1.708
11404WAT     H234455   8.815   4.063   1.697
11405WAT      O34456   4.060   5.898   5.107
11405WAT     H134457   4.129   5.831   5.137
11405WAT     H234458   4.066   5.909   5.008
11406WAT      O34459   3.918   5.818   9.403
11406WAT     H134460   3.822   5.845   9.409
11406WAT     H234461   3.924   5.718   9.400
11407WAT      O34462   2.418   8.742   1.511
11407WAT     H134463   2.412   8.837   1.480
11407WAT     H234464   2.373   8.733   1.600
11408WAT      O34465   4.493   9.338   0.097
11408WAT     H134466   4.465   9.434   0.095
11408WAT     H234467   4.423   9.283   0.142
11409WAT      O34468   5.276   1.270   6.543
11409WAT     H134469   5.270   1.198   6.474
11409WAT     H234470   5.370   1.307   6.545
11410WAT      O34471   3.145   7.430   1.267
11410WAT     H134472   3.233   7.450   1.310
11410WAT     H234473   3.090   7.374   1.327
11411WAT      O34474   8.907   0.868   1.089
11411WAT     H134475   8.875   0.784   1.133
11411WAT     H234476   8.981   0.846   1.025
11412WAT      O34477   4.973   3.973   1.221
11412WAT     H134478   4.912   4.047   1.249
11412WAT     H234479   4.922   3.904   1.169
11413WAT      O34480   0.141   9.795   3.062
11413WAT     H134481   0.202   9.727   3.102
11413WAT     H234482   0.060   9.804   3.119
11414WAT      O34483   9.734   0.251   4.803
11414WAT     H134484   9.792   0.173   4.779
11414WAT     H234485   9.775   0.335   4.768
11415WAT      O34486   0.278   0.322   8.148
11415WAT     H134487   0.199   0.362   8.194
11415WAT     H234488   0.338   0.396   8.116
11416WAT      O34489   1.586   7.899   1.967
11416WAT     H134490   1.541   7.820   1.927
11416WAT     H234491   1.525   7.942   2.035
11417WAT      O34492   1.522   0.165   7.224
11417WAT     H134493   1.493   0.259   7.205
11417WAT     H234494   1.522   0.112   7.139
11418WAT      O34495   2.548   7.853   7.863
11418WAT     H134496   2.458   7.878   7.899
11418WAT     H234497   2.618   7.908   7.908
11419WAT      O34498   2.176   9.157   7.046
11419WAT     H134499   2.193   9.125   6.953
11419WAT     H234500   2.078   9.154   7.064
11420WAT      O34501   1.699   0.585   0.972
11420WAT     H134502   1.670   0.491   0.990
11420WAT     H234503   1.625   0.648   0.996
11421WAT      O34504   4.854   7.780   1.052
11421WAT     H134505   4.797   7.854   1.016
11421WAT     H234506   4.871   7.796   1.150
11422WAT      O34507   9.196   5.862   8.329
11422WAT     H134508   9.103   5.828   8.314
11422WAT     H234509   9.258   5.822   8.261
11423WAT      O34510   1.358   3.048   9.347
11423WAT     H134511   1.363   2.977   9.417
11423WAT     H234512   1.419   3.123   9.370
11424WAT      O34513   2.279   9.478   6.458
11424WAT     H134514   2.301   9.466   6.361
11424WAT     H234515   2.331   9.411   6.512
11425WAT      O34516   4.379   2.262   2.918
11425WAT     H134517   4.303   2.218   2.966
11425WAT     H234518   4.458   2.201   2.917
11426WAT      O34519   1.684   2.379   1.331
11426WAT     H134520   1.741   2.461   1.326
11426WAT     H234521   1.668   2.356   1.427
11427WAT      O34522   3.384   2.191   9.737
11427WAT     H134523   3.323   2.258   9.781
11427WAT     H234524   3.478   2.222   9.745
11428WAT      O34525   4.531   3.425   7.110
11428WAT     H134526   4.482   3.508   7.137
11428WAT     H234527   4.606   3.449   7.048
11429WAT      O34528   1.963   1.638   8.435
11429WAT     H134529   1.880   1.684   8.401
11429WAT     H234530   1.942   1.543   8.455
11430WAT      O34531   8.397   2.908   7.142
11430WAT     H134532   8.406   2.965   7.224
11430WAT     H234533   8.462   2.832   7.148
11431WAT      O34534   5.291   9.735   3.992
11431WAT     H134535   5.299   9.794   3.911
11431WAT     H234536   5.212   9.675   3.982
11432WAT      O34537   9.735   0.973   4.135
11432WAT     H134538   9.658   0.912   4.117
11432WAT     H234539   9.748   1.035   4.058
11433WAT      O34540   2.773   1.003   2.268
11433WAT     H134541   2.766   0.946   2.186
11433WAT     H234542   2.682   1.015   2.308
11434WAT      O34543   5.782   2.774   9.153
11434WAT     H134544   5.801   2.699   9.216
11434WAT     H234545   5.749   2.736   9.066
11435WAT      O34546   6.018   7.385   6.232
11435WAT     H134547   6.049   7.458   6.171
11435WAT     H234548   6.020   7.298   6.183
11436WAT      O34549   1.449   9.747   3.343
11436WAT     H134550   1.393   9.825   3.318
11436WAT     H234551   1.398   9.687   3.405
11437WAT      O34552   7.640   1.380   9.695
11437WAT     H134553   7.633   1.479   9.704
11437WAT     H234554   7.706   1.358   9.623
11438WAT      O34555   4.928   2.776   3.509
11438WAT     H134556   4.958   2.859   3.555
11438WAT     H234557   4.932   2.699   3.573
11439WAT      O34558   2.501   6.582   5.356
11439WAT     H134559   2.432   6.631   5.303
11439WAT     H234560   2.552   6.520   5.297
11440WAT      O34561   8.688   0.038   7.587
11440WAT     H134562   8.688   0.023   7.686
11440WAT     H234563   8.599   0.014   7.550
11441WAT      O34564   2.778   1.105   0.464
11441WAT     H134565   2.691   1.103   0.414
11441WAT     H234566   2.759   1.114   0.562
11442WAT      O34567   9.054   3.677   1.112
11442WAT     H134568   9.050   3.734   1.030
11442WAT     H234569   9.028   3.583   1.089
11443WAT      O34570   4.804   1.148   7.118
11443WAT     H134571   4.875   1.096   7.166
11443WAT     H234572   4.731   1.172   7.182
11444WAT      O34573   1.032   9.140   9.097
11444WAT     H134574   1.091   9.088   9.159
11444WAT     H234575   0.944   9.094   9.089
11445WAT      O34576   4.456   4.156   8.246
11445WAT     H134577   4.362   4.182   8.226
11445WAT     H234578   4.512   4.238   8.255
11446WAT      O34579   4.514   8.951   4.797
11446WAT     H134580   4.611   8.927   4.793
11446WAT     H234581   4.502   9.028   4.859
11447WAT      O34582   2.302   3.097   8.248
11447WAT     H134583   2.330   3.005   8.220
11447WAT     H234584   2.378   3.161   8.235
11448WAT      O34585   3.921   8.249   6.454
11448WAT     H134586   3.900   8.335   6.501
11448WAT     H234587   3.859   8.177   6.485
11449WAT      O34588   2.685   7.467   5.941
11449WAT     H134589   2.690   7.405   6.019
11449WAT     H234590   2.776   7.502   5.921
11450WAT      O34591   4.440   1.381   5.998
11450WAT     H134592   4.413   1.448   6.067
11450WAT     H234593   4.382   1.300   6.005
11451WAT      O34594   1.773   2.846   8.709
11451WAT     H134595   1.864   2.888   8.710
11451WAT     H234596   1.778   2.757   8.664
11452WAT      O34597   7.538   0.921   0.379
11452WAT     H134598   7.624   0.874   0.358
11452WAT     H234599   7.461   0.869   0.340
11453WAT      O34600   7.405   1.201   8.108
11453WAT     H134601   7.451   1.139   8.045
11453WAT     H234602   7.454   1.288   8.110
11454WAT      O34603   5.615   1.757   0.184
11454WAT     H134604   5.614   1.808   0.269
11454WAT     H234605   5.619   1.659   0.203
11455WAT      O34606   8.520   1.359   8.940
11455WAT     H134607   8.450   1.418   8.900
11455WAT     H234608   8.593   1.343   8.873
11456WAT      O34609   3.498   0.963   0.538
11456WAT     H134610   3.514   0.983   0.635
11456WAT     H234611   3.422   0.899   0.529
11457WAT      O34612   0.895   7.709   3.230
11457WAT     H134613   0.962   7.761   3.177
11457WAT     H234614   0.819   7.681   3.171
11458WAT      O34615   4.934   4.199   8.827
11458WAT     H134616   4.896   4.292   8.825
11458WAT     H234617   4.881   4.143   8.889
11459WAT      O34618   6.489   8.031   6.051
11459WAT     H134619   6.546   8.112   6.038
11459WAT     H234620   6.486   7.978   5.966
11460WAT      O34621   0.821   4.437   6.022
11460WAT     H134622   0.880   4.465   5.946
11460WAT     H234623   0.800   4.517   6.079
11461WAT      O34624   1.627   9.777   9.318
11461WAT     H134625   1.627   9.677   9.313
11461WAT     H234626   1.708   9.809   9.367
11462WAT      O34627   6.304   3.655   1.228
11462WAT     H134628   6.334   3.560   1.243
11462WAT     H234629   6.300   3.703   1.316
11463WAT      O34630   8.905   9.342   0.620
11463WAT     H134631   8.953   9.404   0.558
11463WAT     H234632   8.846   9.395   0.680
11464WAT      O34633   7.857   6.438   6.479
11464WAT     H134634   7.886   6.358   6.427
11464WAT     H234635   7.891   6.432   6.573
11465WAT      O34636   5.064   4.946   4.795
11465WAT     H134637   5.047   4.851   4.769
11465WAT     H234638   5.083   5.001   4.714
11466WAT      O34639   6.527   0.629   2.979
11466WAT     H134640   6.432   0.636   3.010
11466WAT     H234641   6.577   0.712   3.004
11467WAT      O34642   6.678   6.187   3.916
11467WAT     H134643   6.606   6.139   3.966
11467WAT     H234644   6.717   6.125   3.847
11468WAT      O34645   2.442   8.039   5.107
11468WAT     H134646   2.366   8.046   5.172
11468WAT     H234647   2.521   7.998   5.153
11469WAT      O34648   7.589   5.904   5.671
11469WAT     H134649   7.504   5.940   5.631
11469WAT     H234650   7.569   5.818   5.717
11470WAT      O34651   7.876   5.611   4.601
11470WAT     H134652   7.915   5.700   4.625
11470WAT     H234653   7.886   5.548   4.679
11471WAT      O34654   6.296   6.999   1.991
11471WAT     H134655   6.273   7.063   2.065
11471WAT     H234656   6.243   7.023   1.909
11472WAT      O34657   0.583   0.307   0.502
11472WAT     H134658   0.676   0.287   0.469
11472WAT     H234659   0.560   0.401   0.481
11473WAT      O34660   1.961   1.997   2.532
11473WAT     H134661   2.023   2.072   2.554
11473WAT     H234662   1.912   1.969   2.614
11474WAT      O34663   0.473   5.524   1.953
11474WAT     H134664   0.565   5.556   1.975
11474WAT     H234665   0.450   5.551   1.859
11475WAT      O34666   0.730   7.989   1.809
11475WAT     H134667   0.817   8.026   1.843
11475WAT     H234668   0.701   8.040   1.729
11476WAT      O34669   4.863   2.298   1.669
11476WAT     H134670   4.901   2.210   1.643
11476WAT     H234671   4.798   2.286   1.744
11477WAT      O34672   7.843   4.359   5.196
11477WAT     H134673   7.922   4.306   5.227
11477WAT     H234674   7.773   4.298   5.160
11478WAT      O34675   0.149   7.877   7.867
11478WAT     H134676   0.080   7.810   7.838
11478WAT     H234677   0.164   7.869   7.965
11479WAT      O34678   3.381   4.772   5.820
11479WAT     H134679   3.312   4.836   5.786
11479WAT     H234680   3.423   4.809   5.903
11480WAT      O34681   3.609   5.529   4.468
11480WAT     H134682   3.519   5.559   4.436
11480WAT     H234683   3.660   5.490   4.392
11481WAT      O34684   0.698   7.752   6.042
11481WAT     H134685   0.644   7.671   6.066
11481WAT     H234686   0.795   7.730   6.047
11482WAT      O34687   2.677   4.763   3.880
11482WAT     H134688   2.727   4.817   3.812
11482WAT     H234689   2.678   4.811   3.968
11483WAT      O34690   0.017   4.099   3.048
11483WAT     H134691  -0.061   4.161   3.045
11483WAT     H234692   0.087   4.130   2.983
11484WAT      O34693   6.099   5.131   3.167
11484WAT     H134694   6.062   5.087   3.249
11484WAT     H234695   6.027   5.182   3.121
11485WAT      O34696   1.507   7.170   7.363
11485WAT     H134697   1.532   7.123   7.447
11485WAT     H234698   1.429   7.123   7.321
11486WAT      O34699   7.678   1.035   4.789
11486WAT     H134700   7.644   0.990   4.706
11486WAT     H234701   7.668   1.134   4.779
11487WAT      O34702   5.827   4.334   1.718
11487WAT     H134703   5.894   4.261   1.735
11487WAT     H234704   5.833   4.401   1.792
11488WAT      O34705   6.348   1.362   8.505
11488WAT     H134706   6.291   1.313   8.571
11488WAT     H234707   6.312   1.347   8.413
11489WAT      O34708   0.412   6.196   4.489
11489WAT     H134709   0.445   6.132   4.420
11489WAT     H234710   0.320   6.170   4.517
11490WAT      O34711   5.282   2.961   6.039
11490WAT     H134712   5.199   2.975   5.986
11490WAT     H234713   5.290   2.865   6.065
11491WAT      O34714   9.219   8.322   1.522
11491WAT     H134715   9.153   8.388   1.558
11491WAT     H234716   9.291   8.371   1.473
11492WAT      O34717   1.529   0.864   3.199
11492WAT     H134718   1.516   0.946   3.255
11492WAT     H234719   1.583   0.887   3.118
11493WAT      O34720   4.627   0.327   1.533
11493WAT     H134721   4.709   0.284   1.571
11493WAT     H234722   4.606   0.285   1.445
11494WAT      O34723   1.611   9.605   3.174
11494WAT     H134724   1.585   9.688   3.222
11494WAT     H234725   1.694   9.566   3.214
11495WAT      O34726   7.912   9.329   1.609
11495WAT     H134727   7.837   9.358   1.669
11495WAT     H234728   7.999   9.337   1.659
11496WAT      O34729   7.275   4.138   1.618
11496WAT     H134730   7.197   4.179   1.570
11496WAT     H234731   7.243   4.088   1.698
11497WAT      O34732   6.549   1.132   9.552
11497WAT     H134733   6.635   1.111   9.506
11497WAT     H234734   6.489   1.183   9.490
11498WAT      O34735   3.464   1.328   4.562
11498WAT     H134736   3.501   1.369   4.645
11498WAT     H234737   3.527   1.347   4.485
11499WAT      O34738   8.776   7.975   6.423
11499WAT     H134739   8.711   7.960   6.497
11499WAT     H234740   8.733   8.026   6.349
11500WAT      O34741   7.186   6.832   5.588
11500WAT     H134742   7.243   6.781   5.524
11500WAT     H234743   7.245   6.883   5.651
11501WAT      O34744   1.149   8.901   5.459
11501WAT     H134745   1.054   8.885   5.488
11501WAT     H234746   1.189   8.815   5.429
11502WAT      O34747   1.088   2.791   9.823
11502WAT     H134748   1.148   2.871   9.818
11502WAT     H234749   1.040   2.790   9.910
11503WAT      O34750   8.338   7.862   0.367
11503WAT     H134751   8.431   7.888   0.342
11503WAT     H234752   8.324   7.766   0.345
11504WAT      O34753   6.555   3.761   4.811
11504WAT     H134754   6.596   3.734   4.724
11504WAT     H234755   6.624   3.801   4.870
11505WAT      O34756   2.482   9.155   4.074
11505WAT     H134757   2.483   9.072   4.129
11505WAT     H234758   2.503   9.234   4.133
11506WAT      O34759   3.109   7.359   6.843
11506WAT     H134760   3.042   7.373   6.770
11506WAT     H234761   3.146   7.447   6.872
11507WAT      O34762   5.397   2.124   0.580
11507WAT     H134763   5.354   2.072   0.654
11507WAT     H234764   5.331   2.139   0.506
11508WAT      O34765   0.359   0.179   5.879
11508WAT     H134766   0.303   0.224   5.949
11508WAT     H234767   0.451   0.219   5.879
11509WAT      O34768   6.137   1.907   3.483
11509WAT     H134769   6.155   1.809   3.481
11509WAT     H234770   6.068   1.930   3.414
11510WAT      O34771   4.076   8.852   8.080
11510WAT     H134772   4.091   8.938   8.127
11510WAT     H234773   4.140   8.783   8.115
11511WAT      O34774   4.909   8.015   3.920
11511WAT     H134775   5.008   8.015   3.914
11511WAT     H234776   4.880   8.072   3.997
11512WAT      O34777   3.128   5.375   1.484
11512WAT     H134778   3.071   5.395   1.563
11512WAT     H234779   3.072   5.333   1.412
11513WAT      O34780   3.276   7.156   3.160
11513WAT     H134781   3.338   7.206   3.220
11513WAT     H234782   3.325   7.125   3.079
11514WAT      O34783   3.852   4.270   0.423
11514WAT     H134784   3.813   4.335   0.488
11514WAT     H234785   3.801   4.184   0.428
11515WAT      O34786   0.541   5.991   4.645
11515WAT     H134787   0.548   5.925   4.570
11515WAT     H234788   0.465   6.055   4.626
11516WAT      O34789   6.384   9.835   0.872
11516WAT     H134790   6.404   9.917   0.925
11516WAT     H234791   6.425   9.843   0.781
11517WAT      O34792   6.558   5.203   7.206
11517WAT     H134793   6.589   5.218   7.300
11517WAT     H234794   6.637   5.189   7.147
11518WAT      O34795   7.720   8.905   7.756
11518WAT     H134796   7.759   8.813   7.756
11518WAT     H234797   7.625   8.901   7.724
11519WAT      O34798   8.700   4.741   9.203
11519WAT     H134799   8.648   4.658   9.184
11519WAT     H234800   8.759   4.727   9.282
11520WAT      O34801   3.994   2.507   6.897
11520WAT     H134802   3.922   2.558   6.943
11520WAT     H234803   3.969   2.492   6.801
11521WAT      O34804   8.463   8.389   7.175
11521WAT     H134805   8.388   8.346   7.125
11521WAT     H234806   8.546   8.335   7.164
11522WAT      O34807   1.336   7.519   1.554
11522WAT     H134808   1.424   7.520   1.508
11522WAT     H234809   1.310   7.424   1.575
11523WAT      O34810   0.588   5.731   0.299
11523WAT     H134811   0.517   5.673   0.338
11523WAT     H234812   0.567   5.827   0.316
11524WAT      O34813   9.631   1.564   2.447
11524WAT     H134814   9.696   1.628   2.407
11524WAT     H234815   9.538   1.601   2.440
11525WAT      O34816   0.693   7.617   7.867
11525WAT     H134817   0.607   7.667   7.875
11525WAT     H234818   0.698   7.572   7.778
11526WAT      O34819   0.412   8.771   8.771
11526WAT     H134820   0.314   8.760   8.787
11526WAT     H234821   0.445   8.699   8.710
11527WAT      O34822   6.841   1.868   2.376
11527WAT     H134823   6.747   1.858   2.345
11527WAT     H234824   6.903   1.847   2.300
11528WAT      O34825   9.502   6.943   8.557
11528WAT     H134826   9.545   6.891   8.484
11528WAT     H234827   9.417   6.898   8.586
11529WAT      O34828   3.342   4.041   9.428
11529WAT     H134829   3.394   4.015   9.346
11529WAT     H234830   3.321   4.139   9.423
11530WAT      O34831   9.510   6.547   0.395
11530WAT     H134832   9.412   6.570   0.389
11530WAT     H234833   9.528   6.466   0.340
11531WAT      O34834   3.585   2.071   2.124
11531WAT     H134835   3.537   2.150   2.161
11531WAT     H234836   3.679   2.097   2.101
11532WAT      O34837   9.098   2.110   4.980
11532WAT     H134838   9.015   2.162   4.959
11532WAT     H234839   9.165   2.170   5.024
11533WAT      O34840   1.543   1.826   8.758
11533WAT     H134841   1.481   1.887   8.808
11533WAT     H234842   1.588   1.878   8.685
11534WAT      O34843   1.903   0.657   8.535
11534WAT     H134844   1.820   0.622   8.492
11534WAT     H234845   1.885   0.749   8.571
11535WAT      O34846   3.712   9.639   2.611
11535WAT     H134847   3.638   9.574   2.595
11535WAT     H234848   3.741   9.635   2.707
11536WAT      O34849   7.340   9.458   0.972
11536WAT     H134850   7.265   9.466   0.906
11536WAT     H234851   7.306   9.473   1.064
11537WAT      O34852   6.046   6.013   7.986
11537WAT     H134853   6.103   5.953   8.043
11537WAT     H234854   6.046   6.105   8.024
11538WAT      O34855   6.585   3.793   0.459
11538WAT     H134856   6.531   3.781   0.376
11538WAT     H234857   6.572   3.715   0.519
11539WAT      O34858   8.568   5.502   3.387
11539WAT     H134859   8.539   5.578   3.328
11539WAT     H234860   8.543   5.522   3.482
11540WAT      O34861   2.141   8.520   7.940
11540WAT     H134862   2.094   8.608   7.951
11540WAT     H234863   2.126   8.485   7.848
11541WAT      O34864   8.264   3.769   6.463
11541WAT     H134865   8.361   3.747   6.459
11541WAT     H234866   8.211   3.687   6.440
11542WAT      O34867   6.798   9.642   5.063
11542WAT     H134868   6.709   9.614   5.098
11542WAT     H234869   6.799   9.741   5.048
11543WAT      O34870   8.844   2.745   2.896
11543WAT     H134871   8.785   2.814   2.937
11543WAT     H234872   8.925   2.732   2.954
11544WAT      O34873   7.306   7.626   1.401
11544WAT     H134874   7.244   7.561   1.356
11544WAT     H234875   7.400   7.595   1.390
11545WAT      O34876   0.689   8.560   3.790
11545WAT     H134877   0.754   8.492   3.823
11545WAT     H234878   0.633   8.520   3.717
11546WAT      O34879   9.401   3.541   6.908
11546WAT     H134880   9.358   3.547   6.818
11546WAT     H234881   9.493   3.503   6.899
11547WAT      O34882   6.545   7.165   4.367
11547WAT     H134883   6.589   7.231   4.427
11547WAT     H234884   6.497   7.096   4.421
11548WAT      O34885   9.040   2.868   7.238
11548WAT     H134886   9.104   2.797   7.210
11548WAT     H234887   9.003   2.913   7.156
11549WAT      O34888   2.359   3.480   3.443
11549WAT     H134889   2.266   3.517   3.432
11549WAT     H234890   2.411   3.495   3.359
11550WAT      O34891   0.761   3.632   0.368
11550WAT     H134892   0.857   3.616   0.393
11550WAT     H234893   0.750   3.727   0.339
11551WAT      O34894   3.319   8.217   0.471
11551WAT     H134895   3.365   8.235   0.384
11551WAT     H234896   3.221   8.233   0.461
11552WAT      O34897   2.126   0.869   6.130
11552WAT     H134898   2.120   0.869   6.030
11552WAT     H234899   2.093   0.957   6.165
11553WAT      O34900   7.728   3.515   5.702
11553WAT     H134901   7.711   3.602   5.748
11553WAT     H234902   7.684   3.516   5.612
11554WAT      O34903   2.590   8.366   9.806
11554WAT     H134904   2.589   8.466   9.813
11554WAT     H234905   2.522   8.327   9.868
11555WAT      O34906   7.179   7.194   5.480
11555WAT     H134907   7.117   7.119   5.457
11555WAT     H234908   7.172   7.214   5.578
11556WAT      O34909   6.570   8.718   2.169
11556WAT     H134910   6.520   8.632   2.178
11556WAT     H234911   6.510   8.795   2.193
11557WAT      O34912   1.904   6.439   8.881
11557WAT     H134913   1.869   6.413   8.971
11557WAT     H234914   1.903   6.359   8.821
11558WAT      O34915   1.949   1.392   0.374
11558WAT     H134916   1.931   1.487   0.347
11558WAT     H234917   2.005   1.392   0.458
11559WAT      O34918   5.686   9.223   5.117
11559WAT     H134919   5.646   9.216   5.208
11559WAT     H234920   5.644   9.155   5.056
11560WAT      O34921   3.841   9.408   9.774
11560WAT     H134922   3.768   9.424   9.708
11560WAT     H234923   3.802   9.379   9.861
11561WAT      O34924   0.152   1.422   9.327
11561WAT     H134925   0.071   1.461   9.285
11561WAT     H234926   0.176   1.476   9.408
11562WAT      O34927   1.053   1.499   0.035
11562WAT     H134928   1.010   1.446   0.109
11562WAT     H234929   1.062   1.594   0.064
11563WAT      O34930   6.948   4.819   4.558
11563WAT     H134931   6.880   4.891   4.572
11563WAT     H234932   6.904   4.739   4.516
11564WAT      O34933   5.644   0.072   6.629
11564WAT     H134934   5.546   0.089   6.629
11564WAT     H234935   5.683   0.100   6.541
11565WAT      O34936   8.551   3.680   1.713
11565WAT     H134937   8.568   3.605   1.776
11565WAT     H234938   8.593   3.659   1.625
11566WAT      O34939   7.912   9.039   1.768
11566WAT     H134940   7.993   9.051   1.826
11566WAT     H234941   7.941   9.015   1.675
11567WAT      O34942   2.999   6.497   7.533
11567WAT     H134943   2.958   6.542   7.613
11567WAT     H234944   2.929   6.443   7.486
11568WAT      O34945   6.550   4.190   8.169
11568WAT     H134946   6.644   4.224   8.170
11568WAT     H234947   6.546   4.106   8.113
11569WAT      O34948   6.989   8.885   1.418
11569WAT     H134949   6.945   8.803   1.456
11569WAT     H234950   7.088   8.874   1.422
11570WAT      O34951   9.586   4.100   4.761
11570WAT     H134952   9.568   4.089   4.663
11570WAT     H234953   9.646   4.026   4.792
11571WAT      O34954   6.091   9.314   7.420
11571WAT     H134955   6.023   9.335   7.350
11571WAT     H234956   6.056   9.339   7.510
11572WAT      O34957   7.395   2.848   8.729
11572WAT     H134958   7.354   2.758   8.712
11572WAT     H234959   7.481   2.837   8.778
11573WAT      O34960   7.297   6.335   2.277
11573WAT     H134961   7.372   6.387   2.318
11573WAT     H234962   7.335   6.262   2.221
11574WAT      O34963   3.532   7.802   3.359
11574WAT     H134964   3.527   7.776   3.263
11574WAT     H234965   3.626   7.792   3.392
11575WAT      O34966   5.923   5.368   1.595
11575WAT     H134967   5.868   5.449   1.617
11575WAT     H234968   6.016   5.381   1.629
11576WAT      O34969   1.870   1.827   9.873
11576WAT     H134970   1.865   1.796   9.968
11576WAT     H234971   1.832   1.756   9.813
11577WAT      O34972   3.161   3.777   0.826
11577WAT     H134973   3.101   3.786   0.906
11577WAT     H234974   3.105   3.776   0.743
11578WAT      O34975   2.255   1.530   4.351
11578WAT     H134976   2.239   1.625   4.379
11578WAT     H234977   2.301   1.481   4.425
11579WAT      O34978   5.991   1.943   4.757
11579WAT     H134979   5.902   1.914   4.791
11579WAT     H234980   6.034   2.004   4.824
11580WAT      O34981   7.037   3.830   5.235
11580WAT     H134982   7.132   3.801   5.233
11580WAT     H234983   6.984   3.766   5.290
11581WAT      O34984   2.599   4.163   1.153
11581WAT     H134985   2.541   4.237   1.186
11581WAT     H234986   2.673   4.201   1.097
11582WAT      O34987   5.397   7.974   3.644
11582WAT     H134988   5.395   7.876   3.625
11582WAT     H234989   5.488   8.000   3.675
11583WAT      O34990   9.391   2.266   3.094
11583WAT     H134991   9.303   2.220   3.089
11583WAT     H234992   9.452   2.216   3.156
11584WAT      O34993   3.950   9.225   0.255
11584WAT     H134994   3.914   9.131   0.253
11584WAT     H234995   3.907   9.275   0.330
11585WAT      O34996   7.908   7.019   4.862
11585WAT     H134997   7.905   7.056   4.954
11585WAT     H234998   7.840   7.066   4.805
11586WAT      O34999   3.050   3.111   6.221
11586WAT     H135000   2.959   3.081   6.190
11586WAT     H235001   3.112   3.114   6.142
11587WAT      O35002   1.260   9.647   6.120
11587WAT     H135003   1.191   9.709   6.158
11587WAT     H235004   1.268   9.566   6.178
11588WAT      O35005   6.857   5.709   9.351
11588WAT     H135006   6.858   5.744   9.444
11588WAT     H235007   6.763   5.692   9.322
11589WAT      O35008   8.226   9.007   5.167
11589WAT     H135009   8.324   8.988   5.173
11589WAT     H235010   8.203   9.034   5.073
11590WAT      O35011   6.551   6.915   5.685
11590WAT     H135012   6.460   6.947   5.658
11590WAT     H235013   6.596   6.871   5.607
11591WAT      O35014   1.619   8.888   5.748
11591WAT     H135015   1.552   8.938   5.693
11591WAT     H235016   1.598   8.900   5.845
11592WAT      O35017   4.998   0.665   7.053
11592WAT     H135018   4.917   0.722   7.039
11592WAT     H235019   5.067   0.687   6.983
11593WAT      O35020   9.163   4.144   0.859
11593WAT     H135021   9.188   4.223   0.915
11593WAT     H235022   9.083   4.166   0.804
11594WAT      O35023   5.524   2.267   2.912
11594WAT     H135024   5.549   2.359   2.939
11594WAT     H235025   5.502   2.266   2.814
11595WAT      O35026   8.075   4.970   2.804
11595WAT     H135027   8.121   4.881   2.796
11595WAT     H235028   8.144   5.043   2.809
11596WAT      O35029   6.139   0.968   1.733
11596WAT     H135030   6.066   0.988   1.667
11596WAT     H235031   6.140   0.870   1.752
11597WAT      O35032   8.108   1.915   2.385
11597WAT     H135033   8.029   1.892   2.442
11597WAT     H235034   8.077   1.928   2.290
11598WAT      O35035   2.675   0.143   0.212
11598WAT     H135036   2.614   0.191   0.149
11598WAT     H235037   2.674   0.188   0.301
11599WAT      O35038   4.043   8.291   0.315
11599WAT     H135039   4.126   8.344   0.330
11599WAT     H235040   4.063   8.194   0.326
11600WAT      O35041   4.054   3.246   5.419
11600WAT     H135042   4.044   3.149   5.396
11600WAT     H235043   4.123   3.257   5.491
11601WAT      O35044   1.534   5.924   3.597
11601WAT     H135045   1.503   5.950   3.689
11601WAT     H235046   1.454   5.905   3.540
11602WAT      O35047   2.307   4.365   7.159
11602WAT     H135048   2.380   4.433   7.168
11602WAT     H235049   2.300   4.313   7.244
11603WAT      O35050   8.584   1.535   7.925
11603WAT     H135051   8.515   1.577   7.866
11603WAT     H235052   8.642   1.475   7.871
11604WAT      O35053   9.146   9.836   4.724
11604WAT     H135054   9.057   9.881   4.716
11604WAT     H235055   9.196   9.873   4.803
11605WAT      O35056   5.084   5.455   5.671
11605WAT     H135057   5.136   5.535   5.700
11605WAT     H235058   5.134   5.372   5.695
11606WAT      O35059   0.101   8.321   5.406
11606WAT     H135060   0.137   8.237   5.446
11606WAT     H235061   0.167   8.395   5.418
11607WAT      O35062   5.349   1.250   1.985
11607WAT     H135063   5.392   1.206   2.064
11607WAT     H235064   5.285   1.320   2.018
11608WAT      O35065   7.897   8.255   7.261
11608WAT     H135066   7.972   8.190   7.261
11608WAT     H235067   7.913   8.325   7.191
11609WAT      O35068   1.306   5.093   5.641
11609WAT     H135069   1.238   5.060   5.707
11609WAT     H235070   1.263   5.160   5.580
11610WAT      O35071   2.608   2.417   1.896
11610WAT     H135072   2.579   2.502   1.940
11610WAT     H235073   2.645   2.354   1.964
11611WAT      O35074   8.783   2.665   9.008
11611WAT     H135075   8.818   2.651   8.915
11611WAT     H235076   8.835   2.740   9.051
11612WAT      O35077   7.622   0.581   7.658
11612WAT     H135078   7.660   0.643   7.590
11612WAT     H235079   7.632   0.486   7.626
11613WAT      O35080   2.165   5.282   3.092
11613WAT     H135081   2.222   5.349   3.139
11613WAT     H235082   2.166   5.301   2.994
11614WAT      O35083   3.951   3.197   0.633
11614WAT     H135084   3.958   3.226   0.728
11614WAT     H235085   3.947   3.278   0.574
11615WAT      O35086   6.083   3.040   3.910
11615WAT     H135087   5.998   3.081   3.877
11615WAT     H235088   6.161   3.092   3.875
11616WAT      O35089   0.178   1.829   8.242
11616WAT     H135090   0.228   1.799   8.161
11616WAT     H235091   0.179   1.929   8.248
11617WAT      O35092   0.201   2.669   4.220
11617WAT     H135093   0.275   2.728   4.186
11617WAT     H235094   0.239   2.603   4.285
11618WAT      O35095   0.056   5.762   7.897
11618WAT     H135096  -0.021   5.816   7.863
11618WAT     H235097   0.141   5.801   7.862
11619WAT      O35098   2.875   4.217   7.307
11619WAT     H135099   2.796   4.159   7.285
11619WAT     H235100   2.933   4.170   7.373
11620WAT      O35101   2.938   4.880   5.193
11620WAT     H135102   2.953   4.892   5.095
11620WAT     H235103   2.898   4.964   5.231
11621WAT      O35104   5.674   6.488   2.841
11621WAT     H135105   5.649   6.400   2.880
11621WAT     H235106   5.755   6.478   2.783
11622WAT      O35107   4.011   1.972   7.873
11622WAT     H135108   4.003   2.045   7.942
11622WAT     H235109   4.102   1.931   7.879
11623WAT      O35110   3.772   2.802   1.841
11623WAT     H135111   3.842   2.747   1.796
11623WAT     H235112   3.740   2.873   1.778
11624WAT      O35113   5.788   9.078   0.334
11624WAT     H135114   5.833   9.026   0.262
11624WAT     H235115   5.837   9.064   0.421
11625WAT      O35116   2.619   1.545   7.916
11625WAT     H135117   2.626   1.499   7.828
11625WAT     H235118   2.565   1.489   7.978
11626WAT      O35119   9.443   7.166   9.339
11626WAT     H135120   9.516   7.211   9.390
11626WAT     H235121   9.430   7.211   9.251
11627WAT      O35122   0.584   5.647   7.314
11627WAT     H135123   0.681   5.658   7.336
11627WAT     H235124   0.531   5.718   7.361
11628WAT      O35125   1.439   5.700   9.434
11628WAT     H135126   1.363   5.737   9.487
11628WAT     H235127   1.410   5.684   9.340
11629WAT      O35128   3.526   7.475   8.004
11629WAT     H135129   3.432   7.476   8.038
11629WAT     H235130   3.529   7.509   7.910
11630WAT      O35131   4.511   4.811   6.291
11630WAT     H135132   4.590   4.849   6.243
11630WAT     H235133   4.480   4.876   6.360
11631WAT      O35134   1.484   4.732   9.710
11631WAT     H135135   1.470   4.648   9.658
11631WAT     H235136   1.581   4.742   9.732
11632WAT      O35137   4.194   2.711   8.442
11632WAT     H135138   4.198   2.700   8.541
11632WAT     H235139   4.201   2.621   8.398
11633WAT      O35140   9.134   7.736   2.379
11633WAT     H135141   9.230   7.710   2.376
11633WAT     H235142   9.108   7.758   2.473
11634WAT      O35143   1.792   0.422   4.933
11634WAT     H135144   1.874   0.377   4.898
11634WAT     H235145   1.770   0.385   5.023
11635WAT      O35146   1.638   5.857   8.998
11635WAT     H135147   1.686   5.770   8.993
11635WAT     H235148   1.669   5.908   9.078
11636WAT      O35149   4.760   7.572   0.639
11636WAT     H135150   4.802   7.658   0.613
11636WAT     H235151   4.830   7.500   0.644
11637WAT      O35152   3.579   9.783   2.926
11637WAT     H135153   3.500   9.761   2.870
11637WAT     H235154   3.570   9.876   2.961
11638WAT      O35155   7.565   9.230   3.247
11638WAT     H135156   7.502   9.176   3.191
11638WAT     H235157   7.562   9.325   3.218
11639WAT      O35158   0.991   2.627   2.836
11639WAT     H135159   1.014   2.575   2.755
11639WAT     H235160   0.895   2.652   2.834
11640WAT      O35161   0.243   9.762   3.668
11640WAT     H135162   0.287   9.698   3.605
11640WAT     H235163   0.268   9.855   3.643
11641WAT      O35164   5.866   0.586   4.148
11641WAT     H135165   5.863   0.612   4.052
11641WAT     H235166   5.853   0.487   4.157
11642WAT      O35167   1.679   5.084   5.092
11642WAT     H135168   1.632   5.046   5.012
11642WAT     H235169   1.689   5.013   5.162
11643WAT      O35170   1.161   6.409   0.876
11643WAT     H135171   1.115   6.495   0.899
11643WAT     H235172   1.248   6.428   0.829
11644WAT      O35173   0.506   4.747   8.100
11644WAT     H135174   0.587   4.695   8.073
11644WAT     H235175   0.524   4.797   8.184
11645WAT      O35176   1.494   8.137   5.243
11645WAT     H135177   1.574   8.186   5.210
11645WAT     H235178   1.441   8.102   5.165
11646WAT      O35179   0.931   6.171   3.318
11646WAT     H135180   1.012   6.116   3.335
11646WAT     H235181   0.868   6.119   3.259
11647WAT      O35182   2.387   9.656   3.116
11647WAT     H135183   2.464   9.703   3.072
11647WAT     H235184   2.375   9.566   3.073
11648WAT      O35185   8.876   4.801   8.685
11648WAT     H135186   8.821   4.811   8.768
11648WAT     H235187   8.940   4.726   8.697
11649WAT      O35188   5.315   1.003   7.144
11649WAT     H135189   5.294   0.910   7.173
11649WAT     H235190   5.246   1.066   7.180
11650WAT      O35191   6.463   2.012   0.569
11650WAT     H135192   6.556   2.000   0.534
11650WAT     H235193   6.437   1.932   0.623
11651WAT      O35194   4.696   4.965   8.907
11651WAT     H135195   4.771   4.901   8.888
11651WAT     H235196   4.695   4.987   9.004
11652WAT      O35197   4.803   6.703   6.514
11652WAT     H135198   4.852   6.723   6.429
11652WAT     H235199   4.866   6.703   6.591
11653WAT      O35200   9.727   5.808   0.838
11653WAT     H135201   9.796   5.773   0.775
11653WAT     H235202   9.666   5.733   0.865
11654WAT      O35203   3.778  -0.003   8.963
11654WAT     H135204   3.793   0.053   9.044
11654WAT     H235205   3.802   0.050   8.881
11655WAT      O35206   6.787   7.051   8.308
11655WAT     H135207   6.879   7.046   8.269
11655WAT     H235208   6.743   6.961   8.302
11656WAT      O35209   8.202   9.323   8.487
11656WAT     H135210   8.200   9.378   8.403
11656WAT     H235211   8.242   9.377   8.561
11657WAT      O35212   8.065   0.181   9.575
11657WAT     H135213   8.064   0.123   9.494
11657WAT     H235214   8.009   0.138   9.647
11658WAT      O35215   1.779   1.446   9.229
11658WAT     H135216   1.710   1.415   9.164
11658WAT     H235217   1.867   1.406   9.205
11659WAT      O35218   6.636   8.332   8.825
11659WAT     H135219   6.623   8.428   8.850
11659WAT     H235220   6.570   8.276   8.875
11660WAT      O35221   8.471   7.110   6.902
11660WAT     H135222   8.545   7.155   6.951
11660WAT     H235223   8.476   7.134   6.805
11661WAT      O35224   3.967   2.508   2.878
11661WAT     H135225   3.910   2.426   2.890
11661WAT     H235226   4.015   2.527   2.963
11662WAT      O35227   1.702   4.662   6.488
11662WAT     H135228   1.709   4.655   6.389
11662WAT     H235229   1.763   4.596   6.531
11663WAT      O35230   9.071   5.189   8.769
11663WAT     H135231   9.036   5.147   8.685
11663WAT     H235232   8.998   5.192   8.837
11664WAT      O35233   6.837   5.870   5.492
11664WAT     H135234   6.744   5.857   5.459
11664WAT     H235235   6.897   5.801   5.449
11665WAT      O35236   9.882   3.963   3.862
11665WAT     H135237   9.914   3.880   3.907
11665WAT     H235238   9.820   3.938   3.787
11666WAT      O35239   3.064   8.705   9.595
11666WAT     H135240   2.978   8.755   9.583
11666WAT     H235241   3.141   8.768   9.584
11667WAT      O35242   1.652   5.325   8.887
11667WAT     H135243   1.743   5.326   8.929
11667WAT     H235244   1.659   5.355   8.792
11668WAT      O35245   0.403   1.078   9.057
11668WAT     H135246   0.380   1.169   9.092
11668WAT     H235247   0.415   1.082   8.958
11669WAT      O35248   6.554   5.349   4.907
11669WAT     H135249   6.531   5.446   4.906
11669WAT     H235250   6.561   5.317   5.001
11670WAT      O35251   2.334   7.957   5.639
11670WAT     H135252   2.332   8.057   5.643
11670WAT     H235253   2.240   7.922   5.640
11671WAT      O35254   7.565   7.816   1.014
11671WAT     H135255   7.655   7.826   1.056
11671WAT     H235256   7.503   7.887   1.048
11672WAT      O35257   6.786   2.231   2.554
11672WAT     H135258   6.832   2.313   2.587
11672WAT     H235259   6.833   2.150   2.590
11673WAT      O35260   6.055   8.249   7.962
11673WAT     H135261   6.134   8.274   7.905
11673WAT     H235262   6.082   8.175   8.024
11674WAT      O35263   4.977   9.246   4.770
11674WAT     H135264   4.893   9.300   4.770
11674WAT     H235265   5.034   9.274   4.847
11675WAT      O35266   3.285   2.503   5.048
11675WAT     H135267   3.351   2.567   5.086
11675WAT     H235268   3.279   2.423   5.107
11676WAT      O35269   5.568   7.359   4.158
11676WAT     H135270   5.612   7.449   4.165
11676WAT     H235271   5.621   7.301   4.097
11677WAT      O35272   6.577   8.495   6.956
11677WAT     H135273   6.508   8.427   6.980
11677WAT     H235274   6.574   8.571   7.021
11678WAT      O35275   2.012   8.274   0.492
11678WAT     H135276   2.015   8.196   0.554
11678WAT     H235277   2.105   8.307   0.475
11679WAT      O35278   8.907   5.814   7.064
11679WAT     H135279   8.934   5.888   7.002
11679WAT     H235280   8.875   5.736   7.010
11680WAT      O35281   8.617   0.762   2.061
11680WAT     H135282   8.556   0.722   2.129
11680WAT     H235283   8.690   0.812   2.108
11681WAT      O35284   4.449   3.342   0.259
11681WAT     H135285   4.537   3.296   0.246
11681WAT     H235286   4.375   3.276   0.246
11682WAT      O35287   1.055   6.800   7.425
11682WAT     H135288   1.109   6.863   7.482
11682WAT     H235289   1.034   6.718   7.478
11683WAT      O35290   1.777   7.867   5.664
11683WAT     H135291   1.716   7.849   5.587
11683WAT     H235292   1.811   7.780   5.700
11684WAT      O35293   7.930   7.031   7.914
11684WAT     H135294   7.852   7.091   7.898
11684WAT     H235295   7.920   6.948   7.860
11685WAT      O35296   7.857   9.038   9.464
11685WAT     H135297   7.892   9.129   9.489
11685WAT     H235298   7.824   9.040   9.369
11686WAT      O35299   6.126   7.069   6.122
11686WAT     H135300   6.036   7.057   6.081
11686WAT     H235301   6.121   7.051   6.220
11687WAT      O35302   0.733   5.019   5.876
11687WAT     H135303   0.740   5.055   5.969
11687WAT     H235304   0.638   5.026   5.845
11688WAT      O35305   0.858   7.591   2.517
11688WAT     H135306   0.849   7.504   2.566
11688WAT     H235307   0.767   7.624   2.492
11689WAT      O35308   1.594   3.735   2.726
11689WAT     H135309   1.557   3.643   2.740
11689WAT     H235310   1.669   3.731   2.659
11690WAT      O35311   3.573   3.675   5.117
11690WAT     H135312   3.671   3.662   5.131
11690WAT     H235313   3.551   3.772   5.124
11691WAT      O35314   5.347   5.642   7.556
11691WAT     H135315   5.444   5.621   7.568
11691WAT     H235316   5.313   5.695   7.634
11692WAT      O35317   6.147   4.142   1.480
11692WAT     H135318   6.069   4.094   1.440
11692WAT     H235319   6.225   4.136   1.418
11693WAT      O35320   5.967   3.362   2.700
11693WAT     H135321   5.917   3.438   2.742
11693WAT     H235322   6.029   3.397   2.630
11694WAT      O35323   5.332   6.654   0.771
11694WAT     H135324   5.236   6.680   0.759
11694WAT     H235325   5.336   6.563   0.812
11695WAT      O35326   8.613   5.897   4.478
11695WAT     H135327   8.650   5.979   4.434
11695WAT     H235328   8.568   5.840   4.409
11696WAT      O35329   7.744   7.985   6.366
11696WAT     H135330   7.701   8.037   6.292
11696WAT     H235331   7.690   7.903   6.385
11697WAT      O35332   3.181   9.425   2.874
11697WAT     H135333   3.145   9.493   2.938
11697WAT     H235334   3.125   9.342   2.880
11698WAT      O35335   2.030   5.371   7.591
11698WAT     H135336   2.129   5.379   7.577
11698WAT     H235337   2.006   5.414   7.678
11699WAT      O35338   4.860   4.207   1.318
11699WAT     H135339   4.776   4.249   1.285
11699WAT     H235340   4.841   4.152   1.399
11700WAT      O35341   6.364   9.432   7.175
11700WAT     H135342   6.363   9.366   7.250
11700WAT     H235343   6.297   9.504   7.192
11701WAT      O35344   7.810   6.635   4.815
11701WAT     H135345   7.881   6.659   4.749
11701WAT     H235346   7.791   6.537   4.810
11702WAT      O35347   2.511   0.147   1.212
11702WAT     H135348   2.427   0.118   1.257
11702WAT     H235349   2.493   0.225   1.153
11703WAT      O35350   3.216   1.779   2.596
11703WAT     H135351   3.178   1.718   2.665
11703WAT     H235352   3.146   1.846   2.569
11704WAT      O35353   0.036   3.667   2.997
11704WAT     H135354  -0.031   3.740   2.981
11704WAT     H235355   0.005   3.583   2.953
11705WAT      O35356   1.911   7.975   5.194
11705WAT     H135357   1.958   8.008   5.112
11705WAT     H235358   1.927   8.038   5.269
11706WAT      O35359   7.052   7.040   6.083
11706WAT     H135360   7.024   6.982   6.007
11706WAT     H235361   7.133   7.001   6.127
11707WAT      O35362   6.966   2.207   0.240
11707WAT     H135363   6.878   2.243   0.270
11707WAT     H235364   6.999   2.259   0.162
11708WAT      O35365   2.326   5.551   5.233
11708WAT     H135366   2.423   5.534   5.248
11708WAT     H235367   2.278   5.464   5.223
11709WAT      O35368   0.504   9.519   4.193
11709WAT     H135369   0.572   9.555   4.129
11709WAT     H235370   0.417   9.508   4.146
11710WAT      O35371   3.520   0.464   2.079
11710WAT     H135372   3.524   0.365   2.096
11710WAT     H235373   3.486   0.511   2.161
11711WAT      O35374   2.411   7.091   5.410
11711WAT     H135375   2.428   7.021   5.479
11711WAT     H235376   2.403   7.180   5.454
11712WAT      O35377   6.423   8.604   4.253
11712WAT     H135378   6.328   8.628   4.231
11712WAT     H235379   6.457   8.666   4.324
11713WAT      O35380   9.522   3.092   3.204
11713WAT     H135381   9.465   3.029   3.150
11713WAT     H235382   9.580   3.040   3.266
11714WAT      O35383   9.580   2.305   7.813
11714WAT     H135384   9.597   2.381   7.877
11714WAT     H235385   9.559   2.342   7.723
11715WAT      O35386   8.127   5.497   2.796
11715WAT     H135387   8.187   5.503   2.875
11715WAT     H235388   8.054   5.431   2.814
11716WAT      O35389   1.371   2.950   1.332
11716WAT     H135390   1.345   2.886   1.259
11716WAT     H235391   1.344   2.912   1.420
11717WAT      O35392   2.537   0.709   2.122
11717WAT     H135393   2.450   0.724   2.076
11717WAT     H235394   2.527   0.729   2.220
11718WAT      O35395   7.578   9.196   8.611
11718WAT     H135396   7.579   9.142   8.527
11718WAT     H235397   7.667   9.189   8.655
11719WAT      O35398   1.704   7.742   6.872
11719WAT     H135399   1.739   7.815   6.931
11719WAT     H235400   1.614   7.767   6.838
11720WAT      O35401   5.757   4.812   5.472
11720WAT     H135402   5.779   4.719   5.499
11720WAT     H235403   5.829   4.874   5.504
11721WAT      O35404   4.623   5.383   8.606
11721WAT     H135405   4.659   5.328   8.681
11721WAT     H235406   4.574   5.324   8.542
11722WAT      O35407   9.512   2.316   4.019
11722WAT     H135408   9.417   2.339   3.999
11722WAT     H235409   9.569   2.398   4.010
11723WAT      O35410   0.409   9.468   1.015
11723WAT     H135411   0.350   9.522   1.075
11723WAT     H235412   0.372   9.376   1.007
11724WAT      O35413   7.234   4.647   7.491
11724WAT     H135414   7.228   4.629   7.589
11724WAT     H235415   7.145   4.679   7.458
11725WAT      O35416   2.181   1.267   8.299
11725WAT     H135417   2.111   1.215   8.250
11725WAT     H235418   2.231   1.206   8.361
11726WAT      O35419   7.466   1.945   4.659
11726WAT     H135420   7.482   1.905   4.749
11726WAT     H235421   7.516   1.894   4.590
11727WAT      O35422   7.386   1.398   2.411
11727WAT     H135423   7.479   1.368   2.388
11727WAT     H235424   7.376   1.401   2.511
11728WAT      O35425   7.806   5.749   9.049
11728WAT     H135426   7.867   5.725   9.124
11728WAT     H235427   7.740   5.675   9.034
11729WAT      O35428   0.681   3.218   9.391
11729WAT     H135429   0.667   3.193   9.487
11729WAT     H235430   0.672   3.136   9.335
11730WAT      O35431   2.212   7.895   2.333
11730WAT     H135432   2.140   7.826   2.337
11730WAT     H235433   2.173   7.984   2.310
11731WAT      O35434   1.078   2.329   7.269
11731WAT     H135435   1.141   2.374   7.333
11731WAT     H235436   1.097   2.231   7.267
11732WAT      O35437   8.264   8.376   1.899
11732WAT     H135438   8.293   8.457   1.848
11732WAT     H235439   8.316   8.371   1.984
11733WAT      O35440   1.120   5.296   9.047
11733WAT     H135441   1.149   5.255   9.132
11733WAT     H235442   1.198   5.337   9.000
11734WAT      O35443   6.878   0.390   0.064
11734WAT     H135444   6.953   0.331   0.033
11734WAT     H235445   6.914   0.481   0.085
11735WAT      O35446   0.148   4.319   5.548
11735WAT     H135447   0.138   4.389   5.620
11735WAT     H235448   0.212   4.352   5.479
11736WAT      O35449   2.774   3.598   7.478
11736WAT     H135450   2.745   3.505   7.497
11736WAT     H235451   2.836   3.629   7.551
11737WAT      O35452   0.215   0.604   0.724
11737WAT     H135453   0.290   0.546   0.694
11737WAT     H235454   0.152   0.551   0.781
11738WAT      O35455   1.963   8.522   2.453
11738WAT     H135456   1.988   8.567   2.538
11738WAT     H235457   2.018   8.561   2.378
11739WAT      O35458   8.848   0.799   5.396
11739WAT     H135459   8.866   0.877   5.457
11739WAT     H235460   8.920   0.793   5.327
11740WAT      O35461   0.486   1.586   3.883
11740WAT     H135462   0.469   1.659   3.817
11740WAT     H235463   0.407   1.524   3.884
11741WAT      O35464   2.802   6.145   9.875
11741WAT     H135465   2.858   6.199   9.938
11741WAT     H235466   2.851   6.133   9.788
11742WAT      O35467   4.742   8.912   8.960
11742WAT     H135468   4.805   8.873   9.027
11742WAT     H235469   4.680   8.840   8.927
11743WAT      O35470   1.187   2.235   9.141
11743WAT     H135471   1.204   2.215   9.238
11743WAT     H235472   1.171   2.333   9.129
11744WAT      O35473   0.070   7.272   5.407
11744WAT     H135474   0.148   7.237   5.459
11744WAT     H235475   0.002   7.200   5.396
11745WAT      O35476   9.543   9.368   8.587
11745WAT     H135477   9.589   9.415   8.662
11745WAT     H235478   9.610   9.329   8.525
11746WAT      O35479   4.740   8.338   1.575
11746WAT     H135480   4.775   8.387   1.655
11746WAT     H235481   4.658   8.384   1.541
11747WAT      O35482   8.031   9.675   7.694
11747WAT     H135483   7.972   9.600   7.725
11747WAT     H235484   8.037   9.744   7.766
11748WAT      O35485   7.698   2.602   7.728
11748WAT     H135486   7.705   2.658   7.810
11748WAT     H235487   7.773   2.623   7.665
11749WAT      O35488   6.313   5.819   6.338
11749WAT     H135489   6.217   5.837   6.318
11749WAT     H235490   6.360   5.791   6.254
11750WAT      O35491   7.892   6.401   9.586
11750WAT     H135492   7.795   6.378   9.580
11750WAT     H235493   7.911   6.479   9.525
11751WAT      O35494   7.078   8.917   3.648
11751WAT     H135495   7.005   8.980   3.672
11751WAT     H235496   7.131   8.955   3.572
11752WAT      O35497   9.193   1.485   9.428
11752WAT     H135498   9.260   1.450   9.494
11752WAT     H235499   9.107   1.436   9.439
11753WAT      O35500   0.970   1.007   6.454
11753WAT     H135501   1.064   0.994   6.486
11753WAT     H235502   0.952   1.104   6.441
11754WAT      O35503   7.437   9.049   0.645
11754WAT     H135504   7.342   9.057   0.618
11754WAT     H235505   7.457   8.954   0.670
11755WAT      O35506   0.064   8.436   3.946
11755WAT     H135507   0.079   8.522   3.897
11755WAT     H235508  -0.034   8.418   3.952
11756WAT      O35509   7.305   7.739   0.924
11756WAT     H135510   7.312   7.725   0.826
11756WAT     H235511   7.391   7.776   0.959
11757WAT      O35512   3.351   3.809   8.320
11757WAT     H135513   3.261   3.850   8.311
11757WAT     H235514   3.379   3.770   8.232
11758WAT      O35515   6.400   0.154   0.291
11758WAT     H135516   6.497   0.176   0.289
11758WAT     H235517   6.381   0.079   0.228
11759WAT      O35518   6.749   3.929   3.305
11759WAT     H135519   6.816   3.966   3.368
11759WAT     H235520   6.724   3.998   3.238
11760WAT      O35521   3.189   0.013   0.256
11760WAT     H135522   3.136   0.088   0.296
11760WAT     H235523   3.186  -0.066   0.316
11761WAT      O35524   0.118   0.434   2.843
11761WAT     H135525   0.048   0.489   2.889
11761WAT     H235526   0.096   0.425   2.746
11762WAT      O35527   6.054   7.715   2.730
11762WAT     H135528   5.965   7.761   2.724
11762WAT     H235529   6.044   7.620   2.700
11763WAT      O35530   0.182   3.755   9.428
11763WAT     H135531   0.139   3.665   9.415
11763WAT     H235532   0.234   3.779   9.346
11764WAT      O35533   3.721   9.732   0.798
11764WAT     H135534   3.661   9.718   0.719
11764WAT     H235535   3.685   9.682   0.876
11765WAT      O35536   5.852   6.692   3.659
11765WAT     H135537   5.769   6.644   3.687
11765WAT     H235538   5.932   6.647   3.700
11766WAT      O35539   3.692   3.211   2.930
11766WAT     H135540   3.774   3.169   2.968
11766WAT     H235541   3.717   3.286   2.869
11767WAT      O35542   7.864   1.535   5.115
11767WAT     H135543   7.779   1.486   5.132
11767WAT     H235544   7.927   1.521   5.191
11768WAT      O35545   6.700   3.192   5.648
11768WAT     H135546   6.696   3.092   5.640
11768WAT     H235547   6.643   3.233   5.577
11769WAT      O35548   4.076   2.760   9.714
11769WAT     H135549   4.160   2.718   9.746
11769WAT     H235550   4.092   2.856   9.692
11770WAT      O35551   7.736   8.459   0.377
11770WAT     H135552   7.788   8.487   0.296
11770WAT     H235553   7.744   8.360   0.390
11771WAT      O35554   6.681   6.741   2.421
11771WAT     H135555   6.630   6.825   2.442
11771WAT     H235556   6.703   6.694   2.506
11772WAT      O35557   7.375   8.498   7.584
11772WAT     H135558   7.281   8.473   7.560
11772WAT     H235559   7.418   8.420   7.630
11773WAT      O35560   1.521   2.523   9.702
11773WAT     H135561   1.491   2.594   9.638
11773WAT     H235562   1.619   2.507   9.690
11774WAT      O35563   3.372   4.679   2.016
11774WAT     H135564   3.387   4.594   2.066
11774WAT     H235565   3.436   4.749   2.049
11775WAT      O35566   8.799   8.917   4.014
11775WAT     H135567   8.892   8.928   3.979
11775WAT     H235568   8.793   8.835   4.070
11776WAT      O35569   2.717   8.016   5.893
11776WAT     H135570   2.646   8.060   5.949
11776WAT     H235571   2.787   7.978   5.953
11777WAT      O35572   3.265   7.368   7.631
11777WAT     H135573   3.171   7.340   7.613
11777WAT     H235574   3.325   7.288   7.630
11778WAT      O35575   5.824   1.054   4.584
11778WAT     H135576   5.771   1.001   4.517
11778WAT     H235577   5.889   0.994   4.630
11779WAT      O35578   3.499   5.108   3.955
11779WAT     H135579   3.551   5.100   4.040
11779WAT     H235580   3.401   5.105   3.975
11780WAT      O35581   9.447   1.954   7.184
11780WAT     H135582   9.451   2.050   7.154
11780WAT     H235583   9.433   1.951   7.283
11781WAT      O35584   5.499   6.110   3.702
11781WAT     H135585   5.453   6.196   3.681
11781WAT     H235586   5.524   6.064   3.617
11782WAT      O35587   4.800   3.173   4.975
11782WAT     H135588   4.761   3.263   4.955
11782WAT     H235589   4.771   3.108   4.905
11783WAT      O35590   4.606   1.291   9.595
11783WAT     H135591   4.599   1.388   9.618
11783WAT     H235592   4.562   1.274   9.507
11784WAT      O35593   5.941   6.295   8.013
11784WAT     H135594   5.860   6.258   7.967
11784WAT     H235595   6.005   6.329   7.944
11785WAT      O35596   4.889   0.387   7.317
11785WAT     H135597   4.902   0.485   7.333
11785WAT     H235598   4.954   0.335   7.371
11786WAT      O35599   2.750   4.430   6.061
11786WAT     H135600   2.829   4.379   6.027
11786WAT     H235601   2.676   4.366   6.082
11787WAT      O35602   9.653   8.107   0.761
11787WAT     H135603   9.613   8.183   0.710
11787WAT     H235604   9.635   8.120   0.859
11788WAT      O35605   6.231   3.329   5.436
11788WAT     H135606   6.160   3.399   5.426
11788WAT     H235607   6.202   3.261   5.502
11789WAT      O35608   5.187   7.680   7.700
11789WAT     H135609   5.197   7.704   7.797
11789WAT     H235610   5.137   7.754   7.653
11790WAT      O35611   0.738   6.094   8.124
11790WAT     H135612   0.684   6.171   8.156
11790WAT     H235613   0.834   6.121   8.116
11791WAT      O35614   8.701   4.657   8.472
11791WAT     H135615   8.771   4.585   8.465
11791WAT     H235616   8.727   4.722   8.543
11792WAT      O35617   8.948   6.545   8.981
11792WAT     H135618   8.911   6.522   9.071
11792WAT     H235619   9.025   6.484   8.960
11793WAT      O35620   7.096   9.721   2.351
11793WAT     H135621   7.121   9.674   2.435
11793WAT     H235622   7.050   9.807   2.372
11794WAT      O35623   6.921   1.972   0.092
11794WAT     H135624   6.830   1.952   0.128
11794WAT     H235625   6.954   2.059   0.130
11795WAT      O35626   9.380   2.385   6.633
11795WAT     H135627   9.426   2.430   6.556
11795WAT     H235628   9.325   2.308   6.598
11796WAT      O35629   4.605   1.439   6.514
11796WAT     H135630   4.522   1.460   6.462
11796WAT     H235631   4.594   1.467   6.609
11797WAT      O35632   7.704   6.252   8.080
11797WAT     H135633   7.703   6.341   8.033
11797WAT     H235634   7.673   6.181   8.016
11798WAT      O35635   3.659   0.349   7.608
11798WAT     H135636   3.644   0.306   7.520
11798WAT     H235637   3.707   0.436   7.595
11799WAT      O35638   5.925   0.028   5.178
11799WAT     H135639   5.911   0.076   5.092
11799WAT     H235640   5.922  -0.071   5.162
11800WAT      O35641   5.638   1.271   1.563
11800WAT     H135642   5.659   1.266   1.466
11800WAT     H235643   5.566   1.205   1.585
11801WAT      O35644   8.295   1.466   6.485
11801WAT     H135645   8.285   1.429   6.392
11801WAT     H235646   8.242   1.551   6.492
11802WAT      O35647   6.175   0.510   4.327
11802WAT     H135648   6.229   0.549   4.402
11802WAT     H235649   6.148   0.582   4.264
11803WAT      O35650   5.964   1.450   4.776
11803WAT     H135651   5.884   1.405   4.737
11803WAT     H235652   6.035   1.459   4.706
11804WAT      O35653   1.316   0.498   3.238
11804WAT     H135654   1.392   0.436   3.255
11804WAT     H235655   1.232   0.458   3.275
11805WAT      O35656   2.307   5.442   2.152
11805WAT     H135657   2.359   5.411   2.073
11805WAT     H235658   2.361   5.429   2.235
11806WAT      O35659   2.216   7.016   8.674
11806WAT     H135660   2.131   7.037   8.722
11806WAT     H235661   2.195   6.973   8.586
11807WAT      O35662   7.559   5.306   7.462
11807WAT     H135663   7.567   5.394   7.417
11807WAT     H235664   7.603   5.310   7.552
11808WAT      O35665   8.134   0.504   4.509
11808WAT     H135666   8.113   0.566   4.433
11808WAT     H235667   8.085   0.535   4.590
11809WAT      O35668   6.424   2.190   9.544
11809WAT     H135669   6.390   2.168   9.636
11809WAT     H235670   6.492   2.263   9.551
11810WAT      O35671   8.659   1.070   2.088
11810WAT     H135672   8.630   1.121   2.169
11810WAT     H235673   8.738   1.013   2.111
11811WAT      O35674   7.812   9.662   6.397
11811WAT     H135675   7.898   9.612   6.398
11811WAT     H235676   7.829   9.756   6.369
11812WAT      O35677   2.290   9.261   5.252
11812WAT     H135678   2.367   9.202   5.229
11812WAT     H235679   2.265   9.315   5.171
11813WAT      O35680   1.718   1.812   6.703
11813WAT     H135681   1.713   1.853   6.794
11813WAT     H235682   1.808   1.831   6.663
11814WAT      O35683   3.339   7.289   1.629
11814WAT     H135684   3.373   7.195   1.635
11814WAT     H235685   3.245   7.293   1.663
11815WAT      O35686   6.833   7.670   9.189
11815WAT     H135687   6.926   7.696   9.161
11815WAT     H235688   6.784   7.632   9.111
11816WAT      O35689   1.068   5.344   5.202
11816WAT     H135690   1.102   5.299   5.120
11816WAT     H235691   1.141   5.397   5.245
11817WAT      O35692   5.976   9.374   4.663
11817WAT     H135693   5.994   9.448   4.598
11817WAT     H235694   5.927   9.300   4.617
11818WAT      O35695   6.250   9.051   9.792
11818WAT     H135696   6.247   9.073   9.890
11818WAT     H235697   6.342   9.066   9.757
11819WAT      O35698   3.648   0.478   8.173
11819WAT     H135699   3.553   0.459   8.150
11819WAT     H235700   3.653   0.510   8.268
11820WAT      O35701   5.409   7.863   3.353
11820WAT     H135702   5.430   7.801   3.429
11820WAT     H235703   5.317   7.900   3.364
11821WAT      O35704   7.454   0.445   9.496
11821WAT     H135705   7.507   0.469   9.578
11821WAT     H235706   7.419   0.352   9.505
11822WAT      O35707   2.992   6.532   3.184
11822WAT     H135708   2.986   6.563   3.090
11822WAT     H235709   3.080   6.560   3.224
11823WAT      O35710   2.816   7.637   0.243
11823WAT     H135711   2.810   7.645   0.143
11823WAT     H235712   2.893   7.578   0.266
11824WAT      O35713   5.036   5.655   4.701
11824WAT     H135714   4.967   5.727   4.696
11824WAT     H235715   5.029   5.598   4.619
11825WAT      O35716   1.748   9.776   9.690
11825WAT     H135717   1.651   9.786   9.666
11825WAT     H235718   1.766   9.827   9.774
11826WAT      O35719   1.784   2.803   8.242
11826WAT     H135720   1.813   2.707   8.241
11826WAT     H235721   1.802   2.842   8.332
11827WAT      O35722   7.227   5.022   7.140
11827WAT     H135723   7.251   5.059   7.230
11827WAT     H235724   7.304   5.035   7.078
11828WAT      O35725   2.743   5.878   5.252
11828WAT     H135726   2.696   5.966   5.242
11828WAT     H235727   2.817   5.873   5.184
11829WAT      O35728   9.562   7.530   5.936
11829WAT     H135729   9.531   7.454   5.879
11829WAT     H235730   9.662   7.526   5.947
11830WAT      O35731   9.211   5.765   3.076
11830WAT     H135732   9.299   5.719   3.074
11830WAT     H235733   9.151   5.721   3.144
11831WAT      O35734   4.374   6.200   4.964
11831WAT     H135735   4.467   6.228   4.987
11831WAT     H235736   4.313   6.221   5.041
11832WAT      O35737   4.432   7.749   0.372
11832WAT     H135738   4.400   7.831   0.324
11832WAT     H235739   4.375   7.671   0.347
11833WAT      O35740   9.121   0.845   1.586
11833WAT     H135741   9.147   0.756   1.623
11833WAT     H235742   9.202   0.902   1.574
11834WAT      O35743   8.868   9.041   2.781
11834WAT     H135744   8.816   9.019   2.863
11834WAT     H235745   8.847   8.974   2.709
11835WAT      O35746   9.791   2.158   8.393
11835WAT     H135747   9.745   2.074   8.420
11835WAT     H235748   9.727   2.217   8.344
11836WAT      O35749   1.518   7.467   3.863
11836WAT     H135750   1.549   7.533   3.794
11836WAT     H235751   1.456   7.513   3.927
11837WAT      O35752   3.984   2.936   2.453
11837WAT     H135753   3.891   2.933   2.490
11837WAT     H235754   3.999   2.857   2.393
11838WAT      O35755   3.514   8.502   4.228
11838WAT     H135756   3.609   8.473   4.237
11838WAT     H235757   3.487   8.501   4.132
11839WAT      O35758   6.013   8.222   7.639
11839WAT     H135759   5.982   8.162   7.713
11839WAT     H235760   6.098   8.185   7.601
11840WAT      O35761   4.876   5.290   9.390
11840WAT     H135762   4.935   5.368   9.411
11840WAT     H235763   4.876   5.274   9.291
11841WAT      O35764   0.464   8.023   4.362
11841WAT     H135765   0.506   8.007   4.451
11841WAT     H235766   0.382   7.965   4.354
11842WAT      O35767   9.179   2.925   5.088
11842WAT     H135768   9.177   3.013   5.041
11842WAT     H235769   9.088   2.883   5.084
11843WAT      O35770   4.549   7.074   3.546
11843WAT     H135771   4.577   7.015   3.622
11843WAT     H235772   4.628   7.090   3.486
11844WAT      O35773   2.724   6.676   1.396
11844WAT     H135774   2.649   6.678   1.462
11844WAT     H235775   2.734   6.767   1.355
11845WAT      O35776   6.071   4.236   8.307
11845WAT     H135777   6.037   4.226   8.401
11845WAT     H235778   6.084   4.145   8.267
11846WAT      O35779   8.339   2.253   6.160
11846WAT     H135780   8.296   2.298   6.239
11846WAT     H235781   8.287   2.171   6.136
11847WAT      O35782   8.743   5.743   9.696
11847WAT     H135783   8.732   5.781   9.788
11847WAT     H235784   8.658   5.753   9.645
11848WAT      O35785   4.712   8.893   7.136
11848WAT     H135786   4.719   8.961   7.209
11848WAT     H235787   4.798   8.889   7.085
11849WAT      O35788   7.552   1.344   1.775
11849WAT     H135789   7.462   1.350   1.731
11849WAT     H235790   7.583   1.249   1.775
11850WAT      O35791   7.608   9.564   6.840
11850WAT     H135792   7.631   9.477   6.883
11850WAT     H235793   7.632   9.560   6.743
11851WAT      O35794   4.489   8.964   0.404
11851WAT     H135795   4.526   9.023   0.475
11851WAT     H235796   4.563   8.920   0.354
11852WAT      O35797   6.232   9.270   9.309
11852WAT     H135798   6.312   9.214   9.290
11852WAT     H235799   6.195   9.247   9.399
11853WAT      O35800   2.930   0.436   1.421
11853WAT     H135801   2.861   0.393   1.363
11853WAT     H235802   3.000   0.369   1.445
11854WAT      O35803   5.476   6.015   0.212
11854WAT     H135804   5.517   5.971   0.133
11854WAT     H235805   5.501   6.112   0.214
11855WAT      O35806   4.301   0.198   2.583
11855WAT     H135807   4.253   0.143   2.515
11855WAT     H235808   4.237   0.226   2.655
11856WAT      O35809   5.063   9.467   6.618
11856WAT     H135810   5.012   9.393   6.575
11856WAT     H235811   5.084   9.538   6.551
11857WAT      O35812   3.183   5.329   8.212
11857WAT     H135813   3.205   5.254   8.274
11857WAT     H235814   3.085   5.349   8.217
11858WAT      O35815   6.707   1.147   7.031
11858WAT     H135816   6.680   1.144   6.935
11858WAT     H235817   6.663   1.225   7.075
11859WAT      O35818   1.474   2.493   8.725
11859WAT     H135819   1.392   2.447   8.758
11859WAT     H235820   1.456   2.531   8.634
11860WAT      O35821   1.497   9.478   0.299
11860WAT     H135822   1.538   9.536   0.228
11860WAT     H235823   1.402   9.505   0.314
11861WAT      O35824   4.245   1.435   9.155
11861WAT     H135825   4.269   1.338   9.158
11861WAT     H235826   4.278   1.475   9.070
11862WAT      O35827   4.626   9.095   1.499
11862WAT     H135828   4.592   9.111   1.406
11862WAT     H235829   4.609   9.000   1.525
11863WAT      O35830   0.610   2.727   1.820
11863WAT     H135831   0.641   2.772   1.736
11863WAT     H235832   0.548   2.788   1.870
11864WAT      O35833   4.041   1.419   2.670
11864WAT     H135834   3.980   1.375   2.604
11864WAT     H235835   3.987   1.476   2.732
11865WAT      O35836   7.707   1.949   1.662
11865WAT     H135837   7.678   1.858   1.630
11865WAT     H235838   7.633   2.015   1.647
11866WAT      O35839   2.898   1.489   1.347
11866WAT     H135840   2.875   1.544   1.266
11866WAT     H235841   2.997   1.476   1.351
11867WAT      O35842   2.755   7.683   4.552
11867WAT     H135843   2.805   7.609   4.597
11867WAT     H235844   2.820   7.740   4.500
11868WAT      O35845   9.339   1.844   7.880
11868WAT     H135846   9.413   1.910   7.864
11868WAT     H235847   9.251   1.892   7.877
11869WAT      O35848   1.362   8.434   7.505
11869WAT     H135849   1.381   8.343   7.543
11869WAT     H235850   1.320   8.424   7.415
11870WAT      O35851   0.076   7.112   0.965
11870WAT     H135852   0.167   7.088   0.997
11870WAT     H235853   0.036   7.035   0.915
11871WAT      O35854   3.183   6.906   7.784
11871WAT     H135855   3.212   6.871   7.873
11871WAT     H235856   3.255   6.890   7.717
11872WAT      O35857   6.827   6.630   1.308
11872WAT     H135858   6.921   6.646   1.336
11872WAT     H235859   6.771   6.608   1.388
11873WAT      O35860   0.652   8.367   0.502
11873WAT     H135861   0.696   8.450   0.536
11873WAT     H235862   0.588   8.333   0.571
11874WAT      O35863   1.004   0.463   7.567
11874WAT     H135864   0.967   0.545   7.522
11874WAT     H235865   1.007   0.478   7.666
11875WAT      O35866   5.733   1.381   2.659
11875WAT     H135867   5.697   1.288   2.668
11875WAT     H235868   5.678   1.443   2.716
11876WAT      O35869   2.873   6.268   3.345
11876WAT     H135870   2.904   6.267   3.249
11876WAT     H235871   2.912   6.190   3.393
11877WAT      O35872   6.477   5.323   9.282
11877WAT     H135873   6.561   5.293   9.326
11877WAT     H235874   6.406   5.339   9.351
11878WAT      O35875   2.160   3.440   4.406
11878WAT     H135876   2.188   3.346   4.390
11878WAT     H235877   2.168   3.493   4.321
11879WAT      O35878   6.110   7.856   7.502
11879WAT     H135879   6.161   7.906   7.572
11879WAT     H235880   6.172   7.797   7.450
11880WAT      O35881   6.043   7.487   3.712
11880WAT     H135882   6.058   7.576   3.669
11880WAT     H235883   5.968   7.495   3.778
11881WAT      O35884   5.531   9.696   0.398
11881WAT     H135885   5.563   9.623   0.337
11881WAT     H235886   5.607   9.758   0.419
11882WAT      O35887   0.107   9.004   1.630
11882WAT     H135888   0.189   9.033   1.580
11882WAT     H235889   0.115   8.908   1.655
11883WAT      O35890   7.719   9.840   2.842
11883WAT     H135891   7.627   9.814   2.814
11883WAT     H235892   7.746   9.923   2.793
11884WAT      O35893   7.251   4.015   6.834
11884WAT     H135894   7.341   3.988   6.867
11884WAT     H235895   7.203   3.935   6.799
11885WAT      O35896   9.160   2.809   8.399
11885WAT     H135897   9.166   2.858   8.486
11885WAT     H235898   9.097   2.733   8.408
11886WAT      O35899   1.933   7.682   5.859
11886WAT     H135900   1.863   7.613   5.874
11886WAT     H235901   1.964   7.718   5.947
11887WAT      O35902   1.569   3.783   3.892
11887WAT     H135903   1.476   3.795   3.926
11887WAT     H235904   1.574   3.700   3.837
11888WAT      O35905   7.761   4.815   9.208
11888WAT     H135906   7.820   4.889   9.239
11888WAT     H235907   7.762   4.740   9.274
11889WAT      O35908   2.360   8.279   9.311
11889WAT     H135909   2.368   8.309   9.406
11889WAT     H235910   2.409   8.192   9.299
11890WAT      O35911   8.036   3.773   8.414
11890WAT     H135912   8.062   3.801   8.322
11890WAT     H235913   8.107   3.714   8.453
11891WAT      O35914   1.173   7.555   9.817
11891WAT     H135915   1.144   7.576   9.910
11891WAT     H235916   1.093   7.557   9.756
11892WAT      O35917   7.544   8.181   5.012
11892WAT     H135918   7.494   8.160   4.928
11892WAT     H235919   7.640   8.196   4.991
11893WAT      O35920   8.496   9.821   6.307
11893WAT     H135921   8.400   9.808   6.332
11893WAT     H235922   8.504   9.819   6.207
11894WAT      O35923   9.025   4.469   0.511
11894WAT     H135924   9.033   4.478   0.412
11894WAT     H235925   8.966   4.541   0.547
11895WAT      O35926   9.849   6.104   2.302
11895WAT     H135927   9.792   6.091   2.221
11895WAT     H235928   9.817   6.183   2.353
11896WAT      O35929   1.103   3.898   4.857
11896WAT     H135930   1.157   3.950   4.922
11896WAT     H235931   1.082   3.955   4.778
11897WAT      O35932   0.108   3.811   8.146
11897WAT     H135933   0.184   3.747   8.138
11897WAT     H235934   0.055   3.791   8.228
11898WAT      O35935   2.667   0.975   9.304
11898WAT     H135936   2.677   0.974   9.403
11898WAT     H235937   2.718   1.052   9.265
11899WAT      O35938   8.310   0.254   2.842
11899WAT     H135939   8.390   0.210   2.883
11899WAT     H235940   8.240   0.185   2.823
11900WAT      O35941   8.074   0.046   1.819
11900WAT     H135942   7.997   0.020   1.761
11900WAT     H235943   8.082   0.145   1.820
11901WAT      O35944   4.051   2.994   5.343
11901WAT     H135945   4.087   2.939   5.269
11901WAT     H235946   4.053   2.941   5.428
11902WAT      O35947   7.627   2.095   9.644
11902WAT     H135948   7.645   2.109   9.741
11902WAT     H235949   7.712   2.106   9.593
11903WAT      O35950   6.611   9.106   1.532
11903WAT     H135951   6.678   9.040   1.566
11903WAT     H235952   6.558   9.143   1.608
11904WAT      O35953   2.606   5.117   6.583
11904WAT     H135954   2.563   5.193   6.532
11904WAT     H235955   2.703   5.136   6.595
11905WAT      O35956   0.485   0.470   6.098
11905WAT     H135957   0.558   0.505   6.039
11905WAT     H235958   0.448   0.545   6.153
11906WAT      O35959   5.884   0.225   9.538
11906WAT     H135960   5.870   0.310   9.587
11906WAT     H235961   5.851   0.234   9.444
11907WAT      O35962   3.757   6.465   9.417
11907WAT     H135963   3.693   6.528   9.373
11907WAT     H235964   3.753   6.376   9.372
11908WAT      O35965   2.571   1.633   9.117
11908WAT     H135966   2.536   1.699   9.183
11908WAT     H235967   2.570   1.541   9.156
11909WAT      O35968   5.008   4.850   3.343
11909WAT     H135969   4.928   4.901   3.376
11909WAT     H235970   5.077   4.915   3.309
11910WAT      O35971   2.070   7.716   3.893
11910WAT     H135972   2.132   7.640   3.915
11910WAT     H235973   2.117   7.803   3.906
11911WAT      O35974   8.928   9.772   4.211
11911WAT     H135975   9.013   9.759   4.159
11911WAT     H235976   8.947   9.759   4.308
11912WAT      O35977   0.026   0.603   6.854
11912WAT     H135978   0.062   0.567   6.768
11912WAT     H235979   0.069   0.555   6.930
11913WAT      O35980   5.306   8.305   6.802
11913WAT     H135981   5.320   8.404   6.803
11913WAT     H235982   5.303   8.272   6.708
11914WAT      O35983   0.440   0.917   5.987
11914WAT     H135984   0.407   0.891   6.078
11914WAT     H235985   0.519   0.977   5.996
11915WAT      O35986   1.397   5.108   3.047
11915WAT     H135987   1.358   5.152   3.128
11915WAT     H235988   1.363   5.014   3.042
11916WAT      O35989   1.030   8.694   3.644
11916WAT     H135990   1.102   8.741   3.593
11916WAT     H235991   0.945   8.745   3.637
11917WAT      O35992   7.117   5.660   5.640
11917WAT     H135993   7.050   5.614   5.698
11917WAT     H235994   7.142   5.748   5.682
11918WAT      O35995   3.223   1.173   5.923
11918WAT     H135996   3.289   1.232   5.969
11918WAT     H235997   3.222   1.195   5.825
11919WAT      O35998   8.920   0.342   5.440
11919WAT     H135999   9.003   0.394   5.420
11919WAT     H236000   8.839   0.396   5.417
11920WAT      O36001   0.808   5.027   6.858
11920WAT     H136002   0.897   4.984   6.871
11920WAT     H236003   0.741   4.958   6.831
11921WAT      O36004   3.267   0.905   8.943
11921WAT     H136005   3.294   0.930   9.036
11921WAT     H236006   3.331   0.945   8.878
11922WAT      O36007   6.496   2.292   6.238
11922WAT     H136008   6.473   2.281   6.142
11922WAT     H236009   6.429   2.243   6.295
11923WAT      O36010   8.346   8.148   1.772
11923WAT     H136011   8.321   8.239   1.805
11923WAT     H236012   8.325   8.080   1.843
11924WAT      O36013   5.214   0.490   0.965
11924WAT     H136014   5.195   0.538   0.879
11924WAT     H236015   5.134   0.494   1.024
11925WAT      O36016   2.575   5.539   6.908
11925WAT     H136017   2.539   5.605   6.974
11925WAT     H236018   2.506   5.520   6.839
11926WAT      O36019   6.895   7.655   7.081
11926WAT     H136020   6.977   7.675   7.028
11926WAT     H236021   6.874   7.733   7.140
11927WAT      O36022   8.400   7.561   3.369
11927WAT     H136023   8.467   7.548   3.296
11927WAT     H236024   8.391   7.477   3.422
11928WAT      O36025   8.613   9.158   9.388
11928WAT     H136026   8.556   9.235   9.359
11928WAT     H236027   8.563   9.072   9.374
11929WAT      O36028   2.554   2.198   9.343
11929WAT     H136029   2.581   2.102   9.341
11929WAT     H236030   2.591   2.245   9.262
11930WAT      O36031   4.725   9.680   8.979
11930WAT     H136032   4.681   9.753   8.926
11930WAT     H236033   4.659   9.640   9.042
11931WAT      O36034   5.139   6.534   9.787
11931WAT     H136035   5.194   6.454   9.762
11931WAT     H236036   5.142   6.547   9.886
11932WAT      O36037   4.899   6.302   4.939
11932WAT     H136038   4.921   6.205   4.948
11932WAT     H236039   4.876   6.322   4.844
11933WAT      O36040   9.801   0.130   1.984
11933WAT     H136041   9.817   0.037   2.017
11933WAT     H236042   9.703   0.150   1.989
11934WAT      O36043   6.714   4.871   9.630
11934WAT     H136044   6.715   4.967   9.603
11934WAT     H236045   6.802   4.829   9.609
11935WAT      O36046   6.891   6.418   9.060
11935WAT     H136047   6.888   6.470   9.145
11935WAT     H236048   6.808   6.362   9.053
11936WAT      O36049   5.617   6.837   0.881
11936WAT     H136050   5.669   6.833   0.967
11936WAT     H236051   5.570   6.750   0.867
11937WAT      O36052   5.177   5.815   5.354
11937WAT     H136053   5.109   5.779   5.290
11937WAT     H236054   5.267   5.779   5.331
11938WAT      O36055   3.687   9.098   4.124
11938WAT     H136056   3.627   9.084   4.045
11938WAT     H236057   3.637   9.076   4.208
11939WAT      O36058   7.133   9.146   6.454
11939WAT     H136059   7.124   9.047   6.441
11939WAT     H236060   7.062   9.178   6.517
11940WAT      O36061   7.223   7.060   9.165
11940WAT     H136062   7.262   7.152   9.158
11940WAT     H236063   7.156   7.047   9.092
11941WAT      O36064   5.992   8.528   1.414
11941WAT     H136065   5.894   8.512   1.403
11941WAT     H236066   6.016   8.616   1.372
11942WAT      O36067   2.013   5.324   9.804
11942WAT     H136068   1.990   5.291   9.896
11942WAT     H236069   1.929   5.349   9.756
11943WAT      O36070   9.406   0.891   2.478
11943WAT     H136071   9.503   0.889   2.452
11943WAT     H236072   9.375   0.986   2.484
11944WAT      O36073   4.683   8.900   9.430
11944WAT     H136074   4.687   8.984   9.483
11944WAT     H236075   4.639   8.917   9.342
11945WAT      O36076   0.521   0.841   4.954
11945WAT     H136077   0.519   0.767   5.022
11945WAT     H236078   0.435   0.891   4.958
11946WAT      O36079   2.711   2.465   2.988
11946WAT     H136080   2.677   2.445   3.080
11946WAT     H236081   2.675   2.397   2.924
11947WAT      O36082   6.581   3.685   1.120
11947WAT     H136083   6.483   3.705   1.124
11947WAT     H236084   6.630   3.762   1.079
11948WAT      O36085   3.189   2.752   8.476
11948WAT     H136086   3.258   2.733   8.407
11948WAT     H236087   3.197   2.686   8.551
11949WAT      O36088   2.351   3.117   2.730
11949WAT     H136089   2.336   3.214   2.709
11949WAT     H236090   2.428   3.109   2.794
11950WAT      O36091   8.048   3.169   8.203
11950WAT     H136092   8.040   3.259   8.246
11950WAT     H236093   8.022   3.098   8.268
11951WAT      O36094   9.310   6.034   3.522
11951WAT     H136095   9.258   5.957   3.486
11951WAT     H236096   9.299   6.113   3.463
11952WAT      O36097   4.843   5.908   4.273
11952WAT     H136098   4.818   6.003   4.289
11952WAT     H236099   4.830   5.886   4.177
11953WAT      O36100   9.641   1.616   7.065
11953WAT     H136101   9.567   1.636   7.000
11953WAT     H236102   9.689   1.533   7.036
11954WAT      O36103   7.067   5.379   0.681
11954WAT     H136104   6.999   5.343   0.745
11954WAT     H236105   7.159   5.353   0.711
11955WAT      O36106   9.241   8.196   3.958
11955WAT     H136107   9.290   8.215   3.873
11955WAT     H236108   9.213   8.100   3.959
11956WAT      O36109   1.894   4.989   5.862
11956WAT     H136110   1.834   5.045   5.805
11956WAT     H236111   1.895   5.025   5.955
11957WAT      O36112   3.677   3.779   2.719
11957WAT     H136113   3.710   3.808   2.629
11957WAT     H236114   3.627   3.854   2.762
11958WAT      O36115   9.420   2.536   3.013
11958WAT     H136116   9.361   2.560   2.935
11958WAT     H236117   9.396   2.445   3.046
11959WAT      O36118   9.186   3.720   1.537
11959WAT     H136119   9.199   3.626   1.507
11959WAT     H236120   9.196   3.726   1.636
11960WAT      O36121   4.792   9.229   1.861
11960WAT     H136122   4.705   9.211   1.815
11960WAT     H236123   4.801   9.167   1.939
11961WAT      O36124   8.428   8.639   7.215
11961WAT     H136125   8.342   8.663   7.170
11961WAT     H236126   8.436   8.540   7.222
11962WAT      O36127   1.458   3.798   7.286
11962WAT     H136128   1.405   3.882   7.282
11962WAT     H236129   1.409   3.731   7.342
11963WAT      O36130   3.743   2.125   3.600
11963WAT     H136131   3.695   2.043   3.570
11963WAT     H236132   3.842   2.110   3.593
11964WAT      O36133   4.798   9.338   7.179
11964WAT     H136134   4.867   9.281   7.134
11964WAT     H236135   4.723   9.356   7.117
11965WAT      O36136   6.802   8.972   2.906
11965WAT     H136137   6.854   8.969   2.991
11965WAT     H236138   6.846   8.913   2.838
11966WAT      O36139   6.924   0.827   4.963
11966WAT     H136140   7.017   0.815   4.927
11966WAT     H236141   6.888   0.738   4.991
11967WAT      O36142   4.631   5.770   0.639
11967WAT     H136143   4.710   5.830   0.625
11967WAT     H236144   4.660   5.687   0.687
11968WAT      O36145   1.362   2.557   4.793
11968WAT     H136146   1.316   2.646   4.797
11968WAT     H236147   1.364   2.516   4.884
11969WAT      O36148   9.272   2.898   5.814
11969WAT     H136149   9.196   2.854   5.861
11969WAT     H236150   9.345   2.918   5.880
11970WAT      O36151   3.802   9.256   4.692
11970WAT     H136152   3.860   9.317   4.747
11970WAT     H236153   3.830   9.161   4.707
11971WAT      O36154   4.948   5.223   8.156
11971WAT     H136155   5.027   5.198   8.101
11971WAT     H236156   4.864   5.195   8.108
11972WAT      O36157   8.831   4.446   5.879
11972WAT     H136158   8.797   4.495   5.799
11972WAT     H236159   8.755   4.424   5.940
11973WAT      O36160   7.576   6.359   3.972
11973WAT     H136161   7.567   6.310   3.885
11973WAT     H236162   7.522   6.312   4.042
11974WAT      O36163   0.201   1.477   6.858
11974WAT     H136164   0.200   1.468   6.759
11974WAT     H236165   0.227   1.571   6.882
11975WAT      O36166   4.034   0.809   7.249
11975WAT     H136167   4.094   0.887   7.267
11975WAT     H236168   4.037   0.745   7.325
11976WAT      O36169   7.518   1.122   0.158
11976WAT     H136170   7.575   1.102   0.078
11976WAT     H236171   7.536   1.054   0.229
11977WAT      O36172   9.042   2.744   6.793
11977WAT     H136173   9.108   2.670   6.783
11977WAT     H236174   8.971   2.736   6.723
11978WAT      O36175   3.767   9.368   4.091
11978WAT     H136176   3.684   9.422   4.083
11978WAT     H236177   3.745   9.271   4.092
11979WAT      O36178   4.660   9.790   0.335
11979WAT     H136179   4.591   9.747   0.392
11979WAT     H236180   4.625   9.875   0.297
11980WAT      O36181   3.621   3.292   1.084
11980WAT     H136182   3.590   3.352   1.011
11980WAT     H236183   3.600   3.197   1.061
11981WAT      O36184   5.437   6.820   4.272
11981WAT     H136185   5.403   6.765   4.349
11981WAT     H236186   5.380   6.802   4.192
11982WAT      O36187   9.109   4.788   7.268
11982WAT     H136188   9.127   4.736   7.351
11982WAT     H236189   9.150   4.879   7.276
11983WAT      O36190   1.632   1.097   6.662
11983WAT     H136191   1.716   1.052   6.633
11983WAT     H236192   1.615   1.078   6.759
11984WAT      O36193   2.386   3.006   5.216
11984WAT     H136194   2.432   3.012   5.305
11984WAT     H236195   2.377   3.097   5.176
11985WAT      O36196   2.025   7.437   4.720
11985WAT     H136197   1.973   7.519   4.741
11985WAT     H236198   1.966   7.372   4.671
11986WAT      O36199   8.843   2.957   9.106
11986WAT     H136200   8.818   2.971   9.202
11986WAT     H236201   8.938   2.985   9.092
11987WAT      O36202   4.952   0.357   0.184
11987WAT     H136203   4.997   0.441   0.213
11987WAT     H236204   4.993   0.279   0.231
11988WAT      O36205   5.564   7.329   8.604
11988WAT     H136206   5.468   7.352   8.590
11988WAT     H236207   5.578   7.299   8.698
11989WAT      O36208   6.430   5.150   2.875
11989WAT     H136209   6.504   5.164   2.941
11989WAT     H236210   6.363   5.224   2.885
11990WAT      O36211   0.969   1.864   2.183
11990WAT     H136212   0.918   1.782   2.159
11990WAT     H236213   1.041   1.841   2.249
11991WAT      O36214   1.404   5.590   3.632
11991WAT     H136215   1.487   5.541   3.658
11991WAT     H236216   1.424   5.656   3.560
11992WAT      O36217   2.268   1.193   0.069
11992WAT     H136218   2.229   1.179  -0.022
11992WAT     H236219   2.245   1.115   0.128
11993WAT      O36220   6.292   9.140   8.967
11993WAT     H136221   6.383   9.110   8.995
11993WAT     H236222   6.225   9.070   8.992
11994WAT      O36223   6.533   5.769   6.700
11994WAT     H136224   6.557   5.746   6.794
11994WAT     H236225   6.602   5.732   6.638
11995WAT      O36226   7.645   6.195   1.697
11995WAT     H136227   7.568   6.161   1.643
11995WAT     H236228   7.613   6.222   1.788
11996WAT      O36229   3.337   2.220   6.535
11996WAT     H136230   3.405   2.291   6.550
11996WAT     H236231   3.346   2.183   6.443
11997WAT      O36232   4.012   8.994   9.851
11997WAT     H136233   4.044   8.912   9.898
11997WAT     H236234   4.090   9.052   9.829
11998WAT      O36235   1.667   3.629   3.088
11998WAT     H136236   1.711   3.647   3.176
11998WAT     H236237   1.650   3.716   3.041
11999WAT      O36238   7.808   9.537   0.063
11999WAT     H136239   7.900   9.500   0.074
11999WAT     H236240   7.753   9.514   0.143
12000WAT      O36241   4.995   5.292   6.290
12000WAT     H136242   4.997   5.339   6.202
12000WAT     H236243   4.981   5.194   6.275
12001WAT      O36244   6.893   5.822   7.685
12001WAT     H136245   6.849   5.879   7.754
12001WAT     H236246   6.908   5.731   7.723
12002WAT      O36247   2.959   8.443   5.036
12002WAT     H136248   2.925   8.397   5.118
12002WAT     H236249   3.011   8.524   5.062
12003WAT      O36250   1.144   7.426   0.964
12003WAT     H136251   1.116   7.469   1.050
12003WAT     H236252   1.178   7.334   0.982
12004WAT      O36253   7.663   6.885   6.785
12004WAT     H136254   7.758   6.876   6.813
12004WAT     H236255   7.637   6.982   6.787
12005WAT      O36256   2.819   1.463   6.797
12005WAT     H136257   2.908   1.417   6.790
12005WAT     H236258   2.805   1.492   6.892
12006WAT      O36259   6.978   6.959   4.357
12006WAT     H136260   6.907   6.949   4.287
12006WAT     H236261   6.982   7.054   4.388
12007WAT      O36262   7.726   1.671   9.098
12007WAT     H136263   7.816   1.628   9.093
12007WAT     H236264   7.699   1.679   9.194
12008WAT      O36265   4.917   5.357   2.249
12008WAT     H136266   4.828   5.401   2.258
12008WAT     H236267   4.929   5.290   2.321
12009WAT      O36268   0.357   3.445   1.558
12009WAT     H136269   0.408   3.525   1.527
12009WAT     H236270   0.286   3.474   1.622
12010WAT      O36271   9.551   7.892   5.078
12010WAT     H136272   9.626   7.915   5.016
12010WAT     H236273   9.529   7.972   5.135
12011WAT      O36274   5.316   7.818   2.073
12011WAT     H136275   5.403   7.784   2.036
12011WAT     H236276   5.243   7.753   2.051
12012WAT      O36277   8.689   5.088   0.530
12012WAT     H136278   8.653   5.067   0.439
12012WAT     H236279   8.613   5.099   0.594
12013WAT      O36280   6.437   8.614   5.246
12013WAT     H136281   6.466   8.697   5.293
12013WAT     H236282   6.339   8.598   5.262
12014WAT      O36283   7.282   1.075   4.135
12014WAT     H136284   7.295   1.170   4.162
12014WAT     H236285   7.335   1.015   4.196
12015WAT      O36286   6.817   8.070   9.000
12015WAT     H136287   6.850   8.143   8.940
12015WAT     H236288   6.797   8.107   9.091
12016WAT      O36289   3.105   4.615   3.418
12016WAT     H136290   3.014   4.618   3.458
12016WAT     H236291   3.174   4.619   3.491
12017WAT      O36292   9.093   8.919   1.931
12017WAT     H136293   9.029   8.951   2.000
12017WAT     H236294   9.043   8.881   1.853
12018WAT      O36295   2.883   6.508   0.255
12018WAT     H136296   2.860   6.463   0.341
12018WAT     H236297   2.936   6.446   0.198
12019WAT      O36298   5.603   2.010   8.860
12019WAT     H136299   5.665   2.081   8.825
12019WAT     H236300   5.657   1.931   8.890
12020WAT      O36301   5.953   8.659   0.244
12020WAT     H136302   6.030   8.669   0.307
12020WAT     H236303   5.873   8.627   0.294
12021WAT      O36304   8.263   1.364   6.220
12021WAT     H136305   8.164   1.377   6.224
12021WAT     H236306   8.285   1.269   6.243
12022WAT      O36307   9.574   5.691   4.796
12022WAT     H136308   9.510   5.755   4.754
12022WAT     H236309   9.665   5.705   4.759
12023WAT      O36310   0.963   7.557   9.640
12023WAT     H136311   0.870   7.583   9.613
12023WAT     H236312   1.026   7.572   9.564
12024WAT      O36313   7.096   6.081   7.705
12024WAT     H136314   7.090   6.118   7.798
12024WAT     H236315   7.038   6.001   7.697
12025WAT      O36316   5.661   7.357   2.271
12025WAT     H136317   5.688   7.446   2.236
12025WAT     H236318   5.657   7.291   2.196
12026WAT      O36319   6.419   5.461   6.632
12026WAT     H136320   6.444   5.475   6.728
12026WAT     H236321   6.418   5.548   6.584
12027WAT      O36322   2.934   3.117   8.864
12027WAT     H136323   2.957   3.021   8.849
12027WAT     H236324   3.016   3.173   8.853
12028WAT      O36325   8.571   4.026   7.549
12028WAT     H136326   8.496   3.962   7.535
12028WAT     H236327   8.543   4.117   7.520
12029WAT      O36328   3.968   5.703   1.804
12029WAT     H136329   3.983   5.785   1.748
12029WAT     H236330   3.872   5.677   1.798
12030WAT      O36331   7.148   3.272   8.670
12030WAT     H136332   7.158   3.192   8.728
12030WAT     H236333   7.225   3.333   8.683
12031WAT      O36334   5.415   2.891   8.800
12031WAT     H136335   5.344   2.888   8.870
12031WAT     H236336   5.392   2.961   8.733
12032WAT      O36337   2.150   3.228   5.135
12032WAT     H136338   2.200   3.298   5.185
12032WAT     H236339   2.153   3.248   5.037
12033WAT      O36340   1.746   7.262   5.423
12033WAT     H136341   1.751   7.265   5.323
12033WAT     H236342   1.814   7.197   5.458
12034WAT      O36343   6.902   6.407   1.157
12034WAT     H136344   6.886   6.504   1.179
12034WAT     H236345   6.997   6.396   1.127
12035WAT      O36346   5.499   7.261   8.860
12035WAT     H136347   5.566   7.191   8.885
12035WAT     H236348   5.454   7.295   8.942
12036WAT      O36349   2.102   6.569   9.888
12036WAT     H136350   2.092   6.616   9.976
12036WAT     H236351   2.026   6.506   9.876
12037WAT      O36352   0.184   6.888   6.850
12037WAT     H136353   0.191   6.951   6.773
12037WAT     H236354   0.101   6.834   6.843
12038WAT      O36355   7.510   7.269   9.467
12038WAT     H136356   7.492   7.301   9.374
12038WAT     H236357   7.424   7.246   9.512
12039WAT      O36358   0.269   5.910   8.219
12039WAT     H136359   0.260   5.829   8.277
12039WAT     H236360   0.345   5.896   8.155
12040WAT      O36361   6.271   7.713   6.874
12040WAT     H136362   6.193   7.734   6.816
12040WAT     H236363   6.352   7.762   6.841
12041WAT      O36364   7.365   5.634   4.175
12041WAT     H136365   7.273   5.629   4.137
12041WAT     H236366   7.416   5.708   4.130
12042WAT      O36367   6.335   6.212   9.476
12042WAT     H136368   6.283   6.285   9.433
12042WAT     H236369   6.297   6.192   9.566
12043WAT      O36370   7.781   8.851   1.121
12043WAT     H136371   7.820   8.871   1.211
12043WAT     H236372   7.740   8.934   1.083
12044WAT      O36373   0.124   0.974   4.489
12044WAT     H136374   0.122   0.898   4.555
12044WAT     H236375   0.208   1.026   4.502
12045WAT      O36376   6.128   9.700   8.622
12045WAT     H136377   6.221   9.721   8.591
12045WAT     H236378   6.105   9.760   8.699
12046WAT      O36379   6.058   6.768   4.490
12046WAT     H136380   5.974   6.743   4.538
12046WAT     H236381   6.059   6.867   4.473
12047WAT      O36382   0.701   3.042   1.911
12047WAT     H136383   0.643   3.120   1.934
12047WAT     H236384   0.676   2.964   1.969
12048WAT      O36385   9.446   4.004   0.833
12048WAT     H136386   9.470   3.970   0.741
12048WAT     H236387   9.451   4.104   0.834
12049WAT      O36388   3.650   2.289   6.887
12049WAT     H136389   3.700   2.319   6.969
12049WAT     H236390   3.635   2.368   6.828
12050WAT      O36391   6.579   8.646   8.778
12050WAT     H136392   6.677   8.629   8.785
12050WAT     H236393   6.555   8.660   8.682
12051WAT      O36394   6.628   1.513   2.322
12051WAT     H136395   6.702   1.463   2.277
12051WAT     H236396   6.541   1.486   2.281
12052WAT      O36397   2.916   3.593   6.892
12052WAT     H136398   2.983   3.558   6.957
12052WAT     H236399   2.952   3.676   6.848
12053WAT      O36400   9.429   7.603   9.247
12053WAT     H136401   9.381   7.520   9.219
12053WAT     H236402   9.393   7.635   9.335
12054WAT      O36403   5.743   4.581   4.631
12054WAT     H136404   5.818   4.518   4.612
12054WAT     H236405   5.745   4.606   4.728
12055WAT      O36406   8.988   7.947   4.853
12055WAT     H136407   8.968   7.965   4.757
12055WAT     H236408   9.084   7.918   4.862
12056WAT      O36409   0.895   2.734   2.532
12056WAT     H136410   0.817   2.775   2.579
12056WAT     H236411   0.905   2.639   2.562
12057WAT      O36412   8.839   0.872   0.217
12057WAT     H136413   8.749   0.829   0.212
12057WAT     H236414   8.898   0.819   0.278
12058WAT      O36415   9.429   6.481   4.899
12058WAT     H136416   9.370   6.483   4.819
12058WAT     H236417   9.379   6.514   4.979
12059WAT      O36418   5.692   5.569   9.641
12059WAT     H136419   5.741   5.646   9.600
12059WAT     H236420   5.728   5.551   9.732
12060WAT      O36421   6.882   5.230   5.559
12060WAT     H136422   6.968   5.281   5.546
12060WAT     H236423   6.901   5.144   5.606
12061WAT      O36424   8.758   6.511   4.811
12061WAT     H136425   8.694   6.548   4.743
12061WAT     H236426   8.713   6.507   4.900
12062WAT      O36427   0.791   3.874   6.197
12062WAT     H136428   0.819   3.781   6.174
12062WAT     H236429   0.784   3.928   6.113
12063WAT      O36430   2.880   2.474   6.103
12063WAT     H136431   2.915   2.567   6.111
12063WAT     H236432   2.953   2.409   6.126
12064WAT      O36433   4.021   0.744   2.144
12064WAT     H136434   3.984   0.661   2.186
12064WAT     H236435   4.098   0.721   2.085
12065WAT      O36436   6.371   2.558   8.031
12065WAT     H136437   6.402   2.630   8.092
12065WAT     H236438   6.272   2.563   8.020
12066WAT      O36439   5.491   4.936   5.507
12066WAT     H136440   5.571   4.879   5.525
12066WAT     H236441   5.484   4.954   5.409
12067WAT      O36442   4.656   6.441   9.784
12067WAT     H136443   4.713   6.450   9.866
12067WAT     H236444   4.715   6.434   9.703
12068WAT      O36445   3.273   9.143   3.069
12068WAT     H136446   3.353   9.133   3.010
12068WAT     H236447   3.282   9.228   3.123
12069WAT      O36448   7.802   8.409   8.540
12069WAT     H136449   7.838   8.434   8.630
12069WAT     H236450   7.833   8.475   8.472
12070WAT      O36451   7.476   5.536   7.673
12070WAT     H136452   7.426   5.621   7.659
12070WAT     H236453   7.412   5.461   7.686
12071WAT      O36454   8.335   9.361   5.103
12071WAT     H136455   8.286   9.355   5.190
12071WAT     H236456   8.321   9.276   5.052
12072WAT      O36457   1.903   9.510   7.537
12072WAT     H136458   1.836   9.447   7.497
12072WAT     H236459   1.972   9.533   7.469
12073WAT      O36460   2.954   7.978   6.036
12073WAT     H136461   2.991   7.901   6.089
12073WAT     H236462   2.978   7.967   5.940
12074WAT      O36463   7.008   8.399   5.619
12074WAT     H136464   6.978   8.463   5.689
12074WAT     H236465   6.930   8.370   5.564
12075WAT      O36466   6.344   8.213   8.684
12075WAT     H136467   6.391   8.296   8.653
12075WAT     H236468   6.359   8.200   8.782
12076WAT      O36469   9.888   7.522   0.355
12076WAT     H136470   9.804   7.546   0.307
12076WAT     H236471   9.915   7.598   0.414
12077WAT      O36472   7.347   0.785   7.667
12077WAT     H136473   7.417   0.843   7.626
12077WAT     H236474   7.387   0.697   7.693
12078WAT      O36475   4.291   1.881   7.884
12078WAT     H136476   4.286   1.903   7.787
12078WAT     H236477   4.385   1.890   7.916
12079WAT      O36478   7.908   0.310   1.559
12079WAT     H136479   8.001   0.312   1.521
12079WAT     H236480   7.896   0.386   1.622
12080WAT      O36481   0.299   9.229   0.968
12080WAT     H136482   0.222   9.227   0.904
12080WAT     H236483   0.266   9.209   1.060
12081WAT      O36484   7.145   9.459   5.710
12081WAT     H136485   7.200   9.436   5.791
12081WAT     H236486   7.122   9.556   5.712
12082WAT      O36487   8.021   7.985   0.977
12082WAT     H136488   8.089   7.919   0.943
12082WAT     H236489   8.051   8.020   1.066
12083WAT      O36490   8.130   0.463   3.992
12083WAT     H136491   8.186   0.530   3.944
12083WAT     H236492   8.187   0.414   4.058
12084WAT      O36493   0.756   4.478   0.224
12084WAT     H136494   0.701   4.428   0.292
12084WAT     H236495   0.803   4.554   0.268
12085WAT      O36496   4.375   6.231   2.650
12085WAT     H136497   4.349   6.139   2.680
12085WAT     H236498   4.473   6.245   2.667
12086WAT      O36499   3.522   0.645   6.187
12086WAT     H136500   3.568   0.559   6.164
12086WAT     H236501   3.584   0.721   6.170
12087WAT      O36502   7.983   3.437   1.776
12087WAT     H136503   8.040   3.389   1.843
12087WAT     H236504   7.988   3.535   1.792
12088WAT      O36505   5.533   2.101   7.423
12088WAT     H136506   5.520   2.109   7.522
12088WAT     H236507   5.445   2.111   7.377
12089WAT      O36508   0.407   7.124   2.728
12089WAT     H136509   0.474   7.095   2.796
12089WAT     H236510   0.403   7.057   2.654
12090WAT      O36511   1.019   2.107   2.537
12090WAT     H136512   1.011   2.010   2.557
12090WAT     H236513   0.975   2.127   2.449
12091WAT      O36514   8.418   7.771   8.565
12091WAT     H136515   8.357   7.711   8.513
12091WAT     H236516   8.427   7.736   8.659
12092WAT      O36517   1.521   9.699   1.036
12092WAT     H136518   1.539   9.776   1.097
12092WAT     H236519   1.422   9.686   1.027
12093WAT      O36520   5.687   4.071   0.980
12093WAT     H136521   5.625   4.037   0.910
12093WAT     H236522   5.760   4.124   0.936
12094WAT      O36523   2.516   1.822   4.874
12094WAT     H136524   2.584   1.754   4.899
12094WAT     H236525   2.489   1.873   4.956
12095WAT      O36526   7.210   9.228   3.810
12095WAT     H136527   7.125   9.245   3.860
12095WAT     H236528   7.190   9.218   3.713
12096WAT      O36529   9.192   2.986   9.787
12096WAT     H136530   9.182   3.024   9.695
12096WAT     H236531   9.128   3.030   9.849
12097WAT      O36532   7.999   3.610   9.889
12097WAT     H136533   7.957   3.679   9.949
12097WAT     H236534   8.023   3.653   9.802
12098WAT      O36535   3.718   5.649   5.962
12098WAT     H136536   3.793   5.613   5.907
12098WAT     H236537   3.754   5.714   6.029
12099WAT      O36538   5.795   1.212   3.897
12099WAT     H136539   5.806   1.308   3.925
12099WAT     H236540   5.738   1.208   3.815
12100WAT      O36541   7.126   3.760   8.087
12100WAT     H136542   7.210   3.815   8.089
12100WAT     H236543   7.086   3.756   8.178
12101WAT      O36544   9.889   2.727   7.595
12101WAT     H136545   9.800   2.705   7.635
12101WAT     H236546   9.904   2.826   7.600
12102WAT      O36547   6.891   1.110   4.319
12102WAT     H136548   6.899   1.107   4.419
12102WAT     H236549   6.886   1.017   4.284
12103WAT      O36550   2.604   8.512   6.224
12103WAT     H136551   2.669   8.588   6.229
12103WAT     H236552   2.653   8.425   6.233
12104WAT      O36553   6.416   1.612   3.327
12104WAT     H136554   6.422   1.529   3.383
12104WAT     H236555   6.329   1.658   3.345
12105WAT      O36556   7.992   8.872   8.547
12105WAT     H136557   7.974   8.970   8.548
12105WAT     H236558   8.065   8.852   8.482
12106WAT      O36559   0.543   6.069   4.269
12106WAT     H136560   0.620   6.115   4.227
12106WAT     H236561   0.541   5.973   4.240
12107WAT      O36562   2.048   5.167   3.731
12107WAT     H136563   2.065   5.071   3.707
12107WAT     H236564   2.072   5.226   3.654
12108WAT      O36565   3.708   7.284   7.909
12108WAT     H136566   3.634   7.345   7.939
12108WAT     H236567   3.765   7.261   7.987
12109WAT      O36568   2.367   8.605   1.275
12109WAT     H136569   2.300   8.532   1.284
12109WAT     H236570   2.358   8.668   1.353
12110WAT      O36571   4.000   2.713   4.224
12110WAT     H136572   4.025   2.617   4.232
12110WAT     H236573   4.078   2.770   4.249
12111WAT      O36574   1.195   8.903   3.863
12111WAT     H136575   1.109   8.857   3.843
12111WAT     H236576   1.182   9.002   3.855
12112WAT      O36577   1.486   6.548   9.514
12112WAT     H136578   1.471   6.644   9.488
12112WAT     H236579   1.577   6.539   9.555
12113WAT      O36580   9.878   0.384   5.758
12113WAT     H136581   9.918   0.294   5.740
12113WAT     H236582   9.883   0.404   5.855
12114WAT      O36583   4.895   9.647   9.770
12114WAT     H136584   4.797   9.633   9.780
12114WAT     H236585   4.940   9.639   9.859
12115WAT      O36586   0.290   5.339   2.371
12115WAT     H136587   0.244   5.270   2.315
12115WAT     H236588   0.293   5.426   2.321
12116WAT      O36589   5.015   1.859   6.283
12116WAT     H136590   5.111   1.875   6.305
12116WAT     H236591   4.964   1.840   6.368
12117WAT      O36592   9.653   6.495   2.239
12117WAT     H136593   9.663   6.538   2.149
12117WAT     H236594   9.580   6.427   2.236
12118WAT      O36595   4.389   2.569   9.201
12118WAT     H136596   4.323   2.541   9.271
12118WAT     H236597   4.473   2.602   9.245
12119WAT      O36598   5.751   0.340   1.438
12119WAT     H136599   5.701   0.412   1.487
12119WAT     H236600   5.768   0.264   1.500
12120WAT      O36601   1.399   1.640   0.560
12120WAT     H136602   1.432   1.549   0.535
12120WAT     H236603   1.399   1.649   0.660
12121WAT      O36604   6.251   2.196   1.203
12121WAT     H136605   6.307   2.184   1.121
12121WAT     H236606   6.176   2.260   1.184
12122WAT      O36607   8.334   3.548   0.459
12122WAT     H136608   8.374   3.629   0.502
12122WAT     H236609   8.388   3.468   0.484
12123WAT      O36610   0.535   0.590   7.154
12123WAT     H136611   0.620   0.537   7.159
12123WAT     H236612   0.535   0.659   7.225
12124WAT      O36613   4.516   5.179   9.687
12124WAT     H136614   4.611   5.210   9.682
12124WAT     H236615   4.462   5.226   9.616
12125WAT      O36616   9.216   1.446   6.672
12125WAT     H136617   9.248   1.532   6.713
12125WAT     H236618   9.236   1.370   6.733
12126WAT      O36619   4.143   2.107   5.002
12126WAT     H136620   4.070   2.128   4.938
12126WAT     H236621   4.112   2.124   5.096
12127WAT      O36622   7.034   3.850   9.678
12127WAT     H136623   7.110   3.886   9.622
12127WAT     H236624   7.004   3.762   9.641
12128WAT      O36625   6.709   9.785   7.921
12128WAT     H136626   6.645   9.820   7.852
12128WAT     H236627   6.669   9.706   7.966
12129WAT      O36628   8.845   0.786   9.503
12129WAT     H136629   8.835   0.869   9.448
12129WAT     H236630   8.932   0.742   9.482
12130WAT      O36631   6.102   8.312   8.706
12130WAT     H136632   6.186   8.273   8.668
12130WAT     H236633   6.119   8.405   8.738
12131WAT      O36634   2.823   3.138   7.778
12131WAT     H136635   2.908   3.153   7.829
12131WAT     H236636   2.809   3.214   7.714
12132WAT      O36637   5.681   8.033   3.801
12132WAT     H136638   5.608   8.101   3.811
12132WAT     H236639   5.741   8.060   3.726
12133WAT      O36640   1.572   3.553   0.735
12133WAT     H136641   1.477   3.545   0.765
12133WAT     H236642   1.588   3.645   0.699
12134WAT      O36643   0.692   9.544   2.935
12134WAT     H136644   0.638   9.563   2.853
12134WAT     H236645   0.708   9.629   2.985
12135WAT      O36646   2.154   3.810   0.997
12135WAT     H136647   2.066   3.773   1.028
12135WAT     H236648   2.228   3.748   1.022
12136WAT      O36649   5.416   1.220   6.000
12136WAT     H136650   5.347   1.288   5.975
12136WAT     H236651   5.454   1.178   5.917
12137WAT      O36652   8.255   9.659   2.820
12137WAT     H136653   8.348   9.634   2.845
12137WAT     H236654   8.256   9.747   2.771
12138WAT      O36655   3.963   2.912   4.507
12138WAT     H136656   3.976   2.845   4.580
12138WAT     H236657   3.890   2.881   4.446
12139WAT      O36658   8.516   7.006   8.049
12139WAT     H136659   8.486   6.964   7.963
12139WAT     H236660   8.450   6.984   8.121
12140WAT      O36661   9.762   5.788   4.551
12140WAT     H136662   9.710   5.755   4.473
12140WAT     H236663   9.773   5.887   4.545
12141WAT      O36664   2.486   0.748   2.403
12141WAT     H136665   2.424   0.691   2.457
12141WAT     H236666   2.574   0.755   2.450
12142WAT      O36667   4.054   7.889   8.881
12142WAT     H136668   3.987   7.962   8.871
12142WAT     H236669   4.033   7.835   8.963
12143WAT      O36670   1.813   0.728   6.373
12143WAT     H136671   1.789   0.673   6.453
12143WAT     H236672   1.905   0.703   6.342
12144WAT      O36673   3.041   7.670   1.649
12144WAT     H136674   3.050   7.653   1.551
12144WAT     H236675   2.972   7.741   1.664
12145WAT      O36676   3.621   5.322   0.467
12145WAT     H136677   3.657   5.360   0.382
12145WAT     H236678   3.655   5.228   0.478
12146WAT      O36679   1.411   0.151   3.241
12146WAT     H136680   1.503   0.138   3.204
12146WAT     H236681   1.417   0.193   3.332
12147WAT      O36682   0.147   2.317   8.463
12147WAT     H136683   0.066   2.261   8.446
12147WAT     H236684   0.229   2.259   8.456
12148WAT      O36685   1.768   2.518   2.003
12148WAT     H136686   1.766   2.570   2.088
12148WAT     H236687   1.770   2.582   1.926
12149WAT      O36688   7.850   8.013   1.327
12149WAT     H136689   7.886   8.088   1.271
12149WAT     H236690   7.777   8.048   1.386
12150WAT      O36691   2.511   7.983   3.353
12150WAT     H136692   2.422   8.024   3.331
12150WAT     H236693   2.498   7.908   3.418
12151WAT      O36694   7.527   2.281   5.247
12151WAT     H136695   7.501   2.192   5.282
12151WAT     H236696   7.539   2.276   5.148
12152WAT      O36697   3.869   4.652   2.104
12152WAT     H136698   3.839   4.716   2.034
12152WAT     H236699   3.906   4.703   2.182
12153WAT      O36700   9.444   9.521   4.986
12153WAT     H136701   9.508   9.484   4.919
12153WAT     H236702   9.422   9.452   5.055
12154WAT      O36703   1.001   8.211   0.121
12154WAT     H136704   0.910   8.251   0.105
12154WAT     H236705   1.049   8.264   0.190
12155WAT      O36706   6.216   2.524   1.815
12155WAT     H136707   6.307   2.506   1.852
12155WAT     H236708   6.180   2.441   1.772
12156WAT      O36709   2.981   0.415   0.992
12156WAT     H136710   3.021   0.422   0.900
12156WAT     H236711   2.930   0.330   1.000
12157WAT      O36712   3.307   4.311   3.093
12157WAT     H136713   3.273   4.404   3.104
12157WAT     H236714   3.390   4.299   3.147
12158WAT      O36715   3.304   0.774   9.727
12158WAT     H136716   3.380   0.710   9.738
12158WAT     H236717   3.309   0.844   9.798
12159WAT      O36718   1.921   7.216   2.707
12159WAT     H136719   1.911   7.117   2.694
12159WAT     H236720   1.942   7.259   2.619
12160WAT      O36721   3.072   0.607   4.446
12160WAT     H136722   3.052   0.700   4.479
12160WAT     H236723   3.057   0.542   4.520
12161WAT      O36724   5.535   0.456   4.393
12161WAT     H136725   5.563   0.543   4.352
12161WAT     H236726   5.505   0.472   4.486
12162WAT      O36727   3.015   8.284   2.075
12162WAT     H136728   2.985   8.259   2.167
12162WAT     H236729   3.021   8.384   2.069
12163WAT      O36730   1.901   4.914   4.050
12163WAT     H136731   1.853   4.884   3.967
12163WAT     H236732   1.864   4.866   4.129
12164WAT      O36733   2.899   4.633   5.328
12164WAT     H136734   2.801   4.652   5.341
12164WAT     H236735   2.945   4.716   5.298
12165WAT      O36736   8.774   3.666   7.493
12165WAT     H136737   8.836   3.708   7.426
12165WAT     H236738   8.724   3.738   7.541
12166WAT      O36739   4.354   8.474   5.582
12166WAT     H136740   4.311   8.383   5.584
12166WAT     H236741   4.415   8.479   5.503
12167WAT      O36742   7.192   9.562   1.893
12167WAT     H136743   7.114   9.618   1.921
12167WAT     H236744   7.235   9.603   1.813
12168WAT      O36745   2.861   2.203   1.533
12168WAT     H136746   2.833   2.233   1.442
12168WAT     H236747   2.937   2.259   1.565
12169WAT      O36748   7.541   4.217   8.718
12169WAT     H136749   7.452   4.234   8.760
12169WAT     H236750   7.576   4.301   8.677
12170WAT      O36751   4.329   6.267   0.516
12170WAT     H136752   4.396   6.326   0.561
12170WAT     H236753   4.372   6.223   0.437
12171WAT      O36754   7.832   6.056   0.479
12171WAT     H136755   7.817   6.155   0.484
12171WAT     H236756   7.804   6.023   0.389
12172WAT      O36757   8.826   9.758   0.667
12172WAT     H136758   8.812   9.673   0.716
12172WAT     H236759   8.857   9.829   0.730
12173WAT      O36760   6.547   7.440   6.256
12173WAT     H136761   6.522   7.385   6.336
12173WAT     H236762   6.645   7.431   6.238
12174WAT      O36763   8.425   3.664   5.091
12174WAT     H136764   8.508   3.711   5.063
12174WAT     H236765   8.418   3.665   5.191
12175WAT      O36766   7.499   1.366   0.349
12175WAT     H136767   7.417   1.422   0.333
12175WAT     H236768   7.472   1.271   0.360
12176WAT      O36769   1.823   4.656   8.584
12176WAT     H136770   1.881   4.578   8.607
12176WAT     H236771   1.831   4.676   8.486
12177WAT      O36772   6.097   1.634   6.416
12177WAT     H136773   6.179   1.675   6.456
12177WAT     H236774   6.112   1.620   6.318
12178WAT      O36775   3.001   5.622   4.562
12178WAT     H136776   3.035   5.675   4.485
12178WAT     H236777   2.949   5.544   4.529
12179WAT      O36778   2.372   7.251   3.959
12179WAT     H136779   2.314   7.238   4.039
12179WAT     H236780   2.466   7.269   3.988
12180WAT      O36781   4.481   3.708   5.543
12180WAT     H136782   4.449   3.735   5.452
12180WAT     H236783   4.499   3.790   5.597
12181WAT      O36784   7.016   1.657   0.673
12181WAT     H136785   6.999   1.640   0.576
12181WAT     H236786   6.976   1.745   0.699
12182WAT      O36787   2.171   9.636   3.836
12182WAT     H136788   2.125   9.718   3.802
12182WAT     H236789   2.188   9.574   3.760
12183WAT      O36790   4.337   5.619   4.859
12183WAT     H136791   4.279   5.639   4.781
12183WAT     H236792   4.382   5.703   4.890
12184WAT      O36793   1.081   4.274   9.406
12184WAT     H136794   1.137   4.322   9.473
12184WAT     H236795   1.005   4.333   9.377
12185WAT      O36796   4.775   9.095   3.352
12185WAT     H136797   4.685   9.131   3.331
12185WAT     H236798   4.785   9.085   3.451
12186WAT      O36799   3.815   8.793   5.287
12186WAT     H136800   3.871   8.727   5.237
12186WAT     H236801   3.861   8.816   5.373
12187WAT      O36802   7.419   4.451   1.898
12187WAT     H136803   7.501   4.473   1.952
12187WAT     H236804   7.402   4.524   1.832
12188WAT      O36805   1.801   0.268   0.269
12188WAT     H136806   1.798   0.187   0.327
12188WAT     H236807   1.833   0.242   0.178
12189WAT      O36808   3.169   9.794   9.454
12189WAT     H136809   3.156   9.774   9.551
12189WAT     H236810   3.201   9.888   9.444
12190WAT      O36811   3.745   2.665   2.976
12190WAT     H136812   3.779   2.582   2.932
12190WAT     H236813   3.695   2.640   3.059
12191WAT      O36814   7.580   1.603   5.520
12191WAT     H136815   7.566   1.507   5.545
12191WAT     H236816   7.640   1.645   5.588
12192WAT      O36817   3.423   3.543   4.722
12192WAT     H136818   3.507   3.540   4.775
12192WAT     H236819   3.433   3.486   4.640
12193WAT      O36820   6.923   5.622   7.318
12193WAT     H136821   6.942   5.538   7.267
12193WAT     H236822   6.904   5.601   7.413
12194WAT      O36823   8.082   8.284   8.569
12194WAT     H136824   7.993   8.313   8.533
12194WAT     H236825   8.117   8.355   8.631
12195WAT      O36826   4.991   2.723   6.515
12195WAT     H136827   4.891   2.725   6.523
12195WAT     H236828   5.032   2.753   6.601
12196WAT      O36829   6.816   0.818   8.561
12196WAT     H136830   6.799   0.893   8.497
12196WAT     H236831   6.734   0.761   8.568
12197WAT      O36832   6.522   6.676   7.946
12197WAT     H136833   6.584   6.678   8.025
12197WAT     H236834   6.432   6.647   7.977
12198WAT      O36835   3.062   0.640   0.316
12198WAT     H136836   3.007   0.621   0.397
12198WAT     H236837   3.003   0.639   0.235
12199WAT      O36838   3.443   2.732   7.943
12199WAT     H136839   3.396   2.645   7.958
12199WAT     H236840   3.408   2.800   8.008
12200WAT      O36841   0.670   4.442   1.444
12200WAT     H136842   0.640   4.507   1.513
12200WAT     H236843   0.599   4.373   1.430
12201WAT      O36844   6.932   8.418   3.456
12201WAT     H136845   6.955   8.500   3.509
12201WAT     H236846   6.990   8.414   3.374
12202WAT      O36847   9.523   4.982   0.986
12202WAT     H136848   9.552   4.906   1.043
12202WAT     H236849   9.446   4.953   0.928
12203WAT      O36850   5.646   6.699   5.591
12203WAT     H136851   5.564   6.754   5.575
12203WAT     H236852   5.692   6.731   5.673
12204WAT      O36853   4.257   9.252   5.321
12204WAT     H136854   4.205   9.326   5.364
12204WAT     H236855   4.194   9.183   5.286
12205WAT      O36856   0.484   8.570   2.066
12205WAT     H136857   0.499   8.510   1.987
12205WAT     H236858   0.462   8.662   2.034
12206WAT      O36859   5.084   4.620   2.776
12206WAT     H136860   5.017   4.687   2.743
12206WAT     H236861   5.040   4.531   2.786
12207WAT      O36862   6.061   2.256   8.538
12207WAT     H136863   5.968   2.284   8.515
12207WAT     H236864   6.065   2.157   8.547
12208WAT      O36865   6.220   2.678   9.881
12208WAT     H136866   6.190   2.639   9.968
12208WAT     H236867   6.152   2.744   9.848
12209WAT      O36868   9.113   3.011   9.069
12209WAT     H136869   9.137   3.011   8.971
12209WAT     H236870   9.189   3.051   9.121
12210WAT      O36871   7.005   1.492   8.696
12210WAT     H136872   6.964   1.474   8.785
12210WAT     H236873   7.105   1.500   8.706
12211WAT      O36874   5.227   0.988   3.879
12211WAT     H136875   5.316   1.007   3.920
12211WAT     H236876   5.188   0.907   3.921
12212WAT      O36877   0.013   8.546   9.011
12212WAT     H136878  -0.023   8.464   8.967
12212WAT     H236879   0.061   8.521   9.095
12213WAT      O36880   4.193   9.830   8.661
12213WAT     H136881   4.163   9.735   8.649
12213WAT     H236882   4.238   9.840   8.750
12214WAT      O36883   1.510   3.875   2.504
12214WAT     H136884   1.528   3.807   2.575
12214WAT     H236885   1.550   3.843   2.417
12215WAT      O36886   1.730   9.444   2.620
12215WAT     H136887   1.762   9.350   2.636
12215WAT     H236888   1.656   9.465   2.684
12216WAT      O36889   4.133   6.538   2.352
12216WAT     H136890   4.123   6.631   2.386
12216WAT     H236891   4.052   6.513   2.299
12217WAT      O36892   3.665   8.153   4.309
12217WAT     H136893   3.685   8.217   4.383
12217WAT     H236894   3.685   8.196   4.221
12218WAT      O36895   5.060   4.148   6.928
12218WAT     H136896   5.090   4.105   7.013
12218WAT     H236897   4.961   4.158   6.928
12219WAT      O36898   2.602   0.660   7.615
12219WAT     H136899   2.666   0.737   7.611
12219WAT     H236900   2.516   0.685   7.570
12220WAT      O36901   1.746   0.758   3.829
12220WAT     H136902   1.650   0.781   3.815
12220WAT     H236903   1.764   0.666   3.795
12221WAT      O36904   1.091   4.717   1.407
12221WAT     H136905   1.030   4.766   1.345
12221WAT     H236906   1.050   4.629   1.432
12222WAT      O36907   3.849   6.386   0.259
12222WAT     H136908   3.890   6.476   0.244
12222WAT     H236909   3.865   6.357   0.353
12223WAT      O36910   3.314   1.702   2.107
12223WAT     H136911   3.397   1.741   2.068
12223WAT     H236912   3.335   1.613   2.147
12224WAT      O36913   8.573   0.669   1.606
12224WAT     H136914   8.568   0.769   1.601
12224WAT     H236915   8.643   0.643   1.673
12225WAT      O36916   3.692   7.017   5.965
12225WAT     H136917   3.765   7.026   6.033
12225WAT     H236918   3.630   6.943   5.992
12226WAT      O36919   1.524   2.309   7.095
12226WAT     H136920   1.589   2.330   7.167
12226WAT     H236921   1.569   2.311   7.006
12227WAT      O36922   4.771   9.640   8.157
12227WAT     H136923   4.707   9.646   8.081
12227WAT     H236924   4.859   9.678   8.130
12228WAT      O36925   8.677   0.229   5.645
12228WAT     H136926   8.706   0.138   5.617
12228WAT     H236927   8.752   0.275   5.693
12229WAT      O36928   9.706   5.542   0.492
12229WAT     H136929   9.744   5.559   0.401
12229WAT     H236930   9.615   5.500   0.483
12230WAT      O36931   4.473   1.518   8.963
12230WAT     H136932   4.490   1.509   8.865
12230WAT     H236933   4.517   1.443   9.012
12231WAT      O36934   8.994   8.529   8.574
12231WAT     H136935   8.963   8.485   8.658
12231WAT     H236936   8.983   8.467   8.497
12232WAT      O36937   9.813   4.118   2.608
12232WAT     H136938   9.894   4.109   2.550
12232WAT     H236939   9.801   4.034   2.661
12233WAT      O36940   0.688   1.119   8.521
12233WAT     H136941   0.682   1.020   8.529
12233WAT     H236942   0.783   1.148   8.525
12234WAT      O36943   0.008   6.215   5.076
12234WAT     H136944   0.025   6.124   5.114
12234WAT     H236945   0.092   6.268   5.078
12235WAT      O36946   1.448   4.994   6.333
12235WAT     H136947   1.408   4.955   6.250
12235WAT     H236948   1.542   5.023   6.313
12236WAT      O36949   7.904   5.631   2.516
12236WAT     H136950   7.952   5.581   2.444
12236WAT     H236951   7.877   5.721   2.482
12237WAT      O36952   3.713   1.076   9.211
12237WAT     H136953   3.772   1.139   9.161
12237WAT     H236954   3.672   1.123   9.289
12238WAT      O36955   2.133   5.319   7.940
12238WAT     H136956   2.104   5.349   8.031
12238WAT     H236957   2.231   5.300   7.941
12239WAT      O36958   0.182   8.794   4.378
12239WAT     H136959   0.206   8.889   4.356
12239WAT     H236960   0.097   8.794   4.431
12240WAT      O36961   8.169   8.926   5.944
12240WAT     H136962   8.086   8.982   5.939
12240WAT     H236963   8.229   8.949   5.867
12241WAT      O36964   3.434   5.093   7.835
12241WAT     H136965   3.396   5.176   7.875
12241WAT     H236966   3.477   5.038   7.906
12242WAT      O36967   4.670   7.239   6.968
12242WAT     H136968   4.599   7.285   7.020
12242WAT     H236969   4.644   7.236   6.871
12243WAT      O36970   4.817   1.189   1.783
12243WAT     H136971   4.908   1.198   1.825
12243WAT     H236972   4.792   1.093   1.778
12244WAT      O36973   5.065   0.037   7.607
12244WAT     H136974   5.092   0.019   7.512
12244WAT     H236975   5.036  -0.049   7.650
12245WAT      O36976   1.438   6.987   3.757
12245WAT     H136977   1.363   6.947   3.704
12245WAT     H236978   1.487   7.053   3.700
12246WAT      O36979   9.059   3.373   7.674
12246WAT     H136980   9.058   3.273   7.680
12246WAT     H236981   8.965   3.406   7.670
12247WAT      O36982   3.537   4.083   7.240
12247WAT     H136983   3.497   4.121   7.323
12247WAT     H236984   3.498   4.128   7.160
12248WAT      O36985   5.914   1.830   8.518
12248WAT     H136986   5.912   1.810   8.616
12248WAT     H236987   5.890   1.747   8.467
12249WAT      O36988   0.782   9.562   4.575
12249WAT     H136989   0.834   9.634   4.529
12249WAT     H236990   0.816   9.550   4.668
12250WAT      O36991   9.428   4.232   8.810
12250WAT     H136992   9.473   4.296   8.747
12250WAT     H236993   9.384   4.283   8.884
12251WAT      O36994   6.632   2.192   7.455
12251WAT     H136995   6.563   2.261   7.432
12251WAT     H236996   6.587   2.106   7.477
12252WAT      O36997   9.584   7.793   5.629
12252WAT     H136998   9.570   7.754   5.538
12252WAT     H236999   9.660   7.858   5.627
12253WAT      O37000   4.715   2.854   1.988
12253WAT     H137001   4.749   2.849   2.082
12253WAT     H237002   4.762   2.928   1.939
12254WAT      O37003   7.314   2.091   6.740
12254WAT     H137004   7.348   2.182   6.762
12254WAT     H237005   7.330   2.030   6.818
12255WAT      O37006   8.629   0.036   9.218
12255WAT     H137007   8.680   0.089   9.286
12255WAT     H237008   8.653   0.067   9.126
12256WAT      O37009   9.395   5.130   7.625
12256WAT     H137010   9.489   5.096   7.627
12256WAT     H237011   9.394   5.229   7.630
12257WAT      O37012   0.571   4.382   8.231
12257WAT     H137013   0.556   4.284   8.245
12257WAT     H237014   0.635   4.396   8.156
12258WAT      O37015   7.586   0.702   9.083
12258WAT     H137016   7.591   0.707   9.183
12258WAT     H237017   7.676   0.681   9.046
12259WAT      O37018   5.705   4.349   4.132
12259WAT     H137019   5.744   4.386   4.216
12259WAT     H237020   5.778   4.332   4.066
12260WAT      O37021   6.120   2.743   9.288
12260WAT     H137022   6.034   2.692   9.292
12260WAT     H237023   6.127   2.788   9.199
12261WAT      O37024   6.818   1.021   2.728
12261WAT     H137025   6.805   1.118   2.747
12261WAT     H237026   6.898   1.009   2.669
12262WAT      O37027   2.356   5.796   7.284
12262WAT     H137028   2.410   5.781   7.366
12262WAT     H237029   2.290   5.870   7.300
12263WAT      O37030   2.509   5.810   8.318
12263WAT     H137031   2.487   5.716   8.345
12263WAT     H237032   2.431   5.849   8.269
12264WAT      O37033   8.567   8.593   8.110
12264WAT     H137034   8.589   8.510   8.160
12264WAT     H237035   8.615   8.593   8.022
12265WAT      O37036   7.628   1.803   4.494
12265WAT     H137037   7.717   1.792   4.538
12265WAT     H237038   7.592   1.713   4.470
12266WAT      O37039   5.550   7.325   3.337
12266WAT     H137040   5.526   7.228   3.345
12266WAT     H237041   5.640   7.341   3.379
12267WAT      O37042   1.050   8.466   3.770
12267WAT     H137043   0.961   8.425   3.791
12267WAT     H237044   1.037   8.561   3.742
12268WAT      O37045   1.739   4.483   3.280
12268WAT     H137046   1.790   4.399   3.294
12268WAT     H237047   1.795   4.548   3.228
12269WAT      O37048   6.879   6.829   8.018
12269WAT     H137049   6.912   6.738   7.994
12269WAT     H237050   6.913   6.853   8.110
12270WAT      O37051   1.376   9.229   2.472
12270WAT     H137052   1.461   9.209   2.522
12270WAT     H237053   1.363   9.160   2.401
12271WAT      O37054   1.986   2.279   5.367
12271WAT     H137055   1.904   2.236   5.329
12271WAT     H237056   2.021   2.346   5.302
12272WAT      O37057   6.036   1.498   0.396
12272WAT     H137058   6.088   1.452   0.325
12272WAT     H237059   6.090   1.504   0.480
12273WAT      O37060   1.734   4.484   0.526
12273WAT     H137061   1.705   4.394   0.560
12273WAT     H237062   1.653   4.536   0.496
12274WAT      O37063   1.956   9.208   3.326
12274WAT     H137064   2.047   9.245   3.306
12274WAT     H237065   1.943   9.124   3.275
12275WAT      O37066   3.985   9.118   8.672
12275WAT     H137067   3.913   9.076   8.617
12275WAT     H237068   4.014   9.204   8.630
12276WAT      O37069   3.606   1.198   1.373
12276WAT     H137070   3.683   1.249   1.412
12276WAT     H237071   3.602   1.215   1.274
12277WAT      O37072   4.765   4.795   2.281
12277WAT     H137073   4.724   4.793   2.373
12277WAT     H237074   4.760   4.888   2.245
12278WAT      O37075   5.011   2.951   0.177
12278WAT     H137076   5.017   2.928   0.080
12278WAT     H237077   5.101   2.980   0.210
12279WAT      O37078   3.539   3.196   9.320
12279WAT     H137079   3.493   3.117   9.280
12279WAT     H237080   3.473   3.254   9.367
12280WAT      O37081   0.875   6.757   1.683
12280WAT     H137082   0.955   6.793   1.635
12280WAT     H237083   0.795   6.761   1.623
12281WAT      O37084   1.683   7.140   9.888
12281WAT     H137085   1.757   7.073   9.890
12281WAT     H237086   1.602   7.098   9.848
12282WAT      O37087   0.985   4.601   2.682
12282WAT     H137088   1.041   4.542   2.740
12282WAT     H237089   0.979   4.563   2.590
12283WAT      O37090   0.309   0.831   6.843
12283WAT     H137091   0.235   0.832   6.911
12283WAT     H237092   0.358   0.745   6.849
12284WAT      O37093   7.861   3.095   0.356
12284WAT     H137094   7.884   3.011   0.307
12284WAT     H237095   7.940   3.157   0.355
12285WAT      O37096   6.931   0.988   7.857
12285WAT     H137097   7.003   0.998   7.788
12285WAT     H237098   6.946   1.053   7.931
12286WAT      O37099   4.318   1.749   0.486
12286WAT     H137100   4.388   1.684   0.516
12286WAT     H237101   4.242   1.698   0.446
12287WAT      O37102   3.551   5.640   0.330
12287WAT     H137103   3.588   5.572   0.267
12287WAT     H237104   3.451   5.636   0.327
12288WAT      O37105   3.394   2.293   9.473
12288WAT     H137106   3.347   2.361   9.529
12288WAT     H237107   3.421   2.215   9.530
12289WAT      O37108   5.027   1.146   8.874
12289WAT     H137109   4.930   1.165   8.856
12289WAT     H237110   5.044   1.048   8.865
12290WAT      O37111   5.321   7.241   0.788
12290WAT     H137112   5.324   7.149   0.829
12290WAT     H237113   5.314   7.309   0.861
12291WAT      O37114   0.291   0.513   5.870
12291WAT     H137115   0.308   0.454   5.791
12291WAT     H237116   0.251   0.459   5.944
12292WAT      O37117   1.539   6.648   8.134
12292WAT     H137118   1.545   6.693   8.223
12292WAT     H237119   1.469   6.577   8.138
12293WAT      O37120   8.706   4.375   5.605
12293WAT     H137121   8.650   4.457   5.599
12293WAT     H237122   8.738   4.349   5.514
12294WAT      O37123   5.501   8.042   2.545
12294WAT     H137124   5.536   8.118   2.490
12294WAT     H237125   5.550   7.958   2.522
12295WAT      O37126   3.544   0.234   3.818
12295WAT     H137127   3.527   0.294   3.896
12295WAT     H237128   3.456   0.212   3.774
12296WAT      O37129   8.602   8.897   6.103
12296WAT     H137130   8.582   8.983   6.056
12296WAT     H237131   8.679   8.910   6.166
12297WAT      O37132   8.561   4.275   9.340
12297WAT     H137133   8.620   4.201   9.373
12297WAT     H237134   8.580   4.358   9.392
12298WAT      O37135   7.032   2.272   4.808
12298WAT     H137136   6.945   2.321   4.818
12298WAT     H237137   7.098   2.307   4.873
12299WAT      O37138   0.308   7.632   2.916
12299WAT     H137139   0.284   7.536   2.904
12299WAT     H237140   0.262   7.669   2.996
12300WAT      O37141   8.274   8.452   9.316
12300WAT     H137142   8.180   8.470   9.345
12300WAT     H237143   8.283   8.355   9.292
12301WAT      O37144   6.747   4.066   3.057
12301WAT     H137145   6.698   3.993   3.008
12301WAT     H237146   6.769   4.140   2.993
12302WAT      O37147   4.106   6.515   3.820
12302WAT     H137148   4.139   6.585   3.883
12302WAT     H237149   4.006   6.516   3.817
12303WAT      O37150   9.037   4.325   5.717
12303WAT     H137151   8.998   4.374   5.795
12303WAT     H237152   9.053   4.389   5.642
12304WAT      O37153   6.449   1.373   5.885
12304WAT     H137154   6.546   1.351   5.880
12304WAT     H237155   6.402   1.336   5.805
12305WAT      O37156   3.539   6.540   2.139
12305WAT     H137157   3.581   6.587   2.061
12305WAT     H237158   3.610   6.490   2.189
12306WAT      O37159   8.756   2.694   8.537
12306WAT     H137160   8.762   2.787   8.501
12306WAT     H237161   8.821   2.635   8.489
12307WAT      O37162   2.944   3.515   2.771
12307WAT     H137163   3.036   3.478   2.762
12307WAT     H237164   2.929   3.544   2.865
12308WAT      O37165   0.618   3.599   4.298
12308WAT     H137166   0.602   3.658   4.219
12308WAT     H237167   0.716   3.596   4.318
12309WAT      O37168   8.060   4.588   8.834
12309WAT     H137169   7.972   4.633   8.851
12309WAT     H237170   8.046   4.489   8.829
12310WAT      O37171   3.963   3.555   7.948
12310WAT     H137172   4.030   3.485   7.921
12310WAT     H237173   3.970   3.633   7.886
12311WAT      O37174   8.417   1.812   7.593
12311WAT     H137175   8.479   1.869   7.647
12311WAT     H237176   8.398   1.857   7.506
12312WAT      O37177   8.624   4.399   1.881
12312WAT     H137178   8.717   4.394   1.844
12312WAT     H237179   8.570   4.324   1.844
12313WAT      O37180   1.641   9.003   6.914
12313WAT     H137181   1.624   8.916   6.869
12313WAT     H237182   1.672   8.987   7.007
12314WAT      O37183   2.127   9.522   8.201
12314WAT     H137184   2.185   9.441   8.204
12314WAT     H237185   2.155   9.585   8.274
12315WAT      O37186   7.237   8.823   6.945
12315WAT     H137187   7.280   8.880   6.875
12315WAT     H237188   7.297   8.746   6.967
12316WAT      O37189   3.125   2.160   7.482
12316WAT     H137190   3.175   2.111   7.554
12316WAT     H237191   3.179   2.160   7.398
12317WAT      O37192   5.427   9.130   2.932
12317WAT     H137193   5.426   9.183   2.848
12317WAT     H237194   5.334   9.101   2.955
12318WAT      O37195   9.735   3.877   8.604
12318WAT     H137196   9.777   3.800   8.651
12318WAT     H237197   9.783   3.961   8.628
12319WAT      O37198   0.147   4.665   6.497
12319WAT     H137199   0.226   4.672   6.559
12319WAT     H237200   0.173   4.613   6.416
12320WAT      O37201   9.495   5.941   7.120
12320WAT     H137202   9.479   5.903   7.029
12320WAT     H237203   9.410   5.941   7.172
12321WAT      O37204   0.113   6.910   1.528
12321WAT     H137205   0.056   6.893   1.608
12321WAT     H237206   0.202   6.865   1.539
12322WAT      O37207   5.718   5.051   0.407
12322WAT     H137208   5.630   5.004   0.405
12322WAT     H237209   5.766   5.029   0.492
12323WAT      O37210   6.622   1.452   3.631
12323WAT     H137211   6.571   1.504   3.699
12323WAT     H237212   6.560   1.391   3.581
12324WAT      O37213   5.237   1.079   2.299
12324WAT     H137214   5.320   1.114   2.255
12324WAT     H237215   5.254   1.066   2.396
12325WAT      O37216   1.042   5.861   2.971
12325WAT     H137217   0.961   5.848   2.914
12325WAT     H237218   1.124   5.847   2.917
12326WAT      O37219   5.942   5.363   8.836
12326WAT     H137220   5.853   5.332   8.802
12326WAT     H237221   6.014   5.310   8.792
12327WAT      O37222   5.573   5.129   7.227
12327WAT     H137223   5.602   5.046   7.180
12327WAT     H237224   5.580   5.207   7.165
12328WAT      O37225   1.428   8.166   8.493
12328WAT     H137226   1.443   8.155   8.395
12328WAT     H237227   1.373   8.248   8.509
12329WAT      O37228   2.839   0.200   8.421
12329WAT     H137229   2.822   0.221   8.325
12329WAT     H237230   2.824   0.103   8.437
12330WAT      O37231   8.243   2.115   9.499
12330WAT     H137232   8.244   2.182   9.425
12330WAT     H237233   8.337   2.090   9.523
12331WAT      O37234   0.093   9.778   5.885
12331WAT     H137235   0.151   9.749   5.961
12331WAT     H237236   0.150   9.798   5.805
12332WAT      O37237   4.000   0.772   6.977
12332WAT     H137238   4.016   0.775   7.076
12332WAT     H237239   4.073   0.720   6.933
12333WAT      O37240   5.501   4.547   4.215
12333WAT     H137241   5.546   4.471   4.168
12333WAT     H237242   5.429   4.511   4.274
12334WAT      O37243   2.988   8.611   2.942
12334WAT     H137244   2.928   8.543   2.984
12334WAT     H237245   2.961   8.625   2.847
12335WAT      O37246   7.629   5.633   8.476
12335WAT     H137247   7.610   5.730   8.485
12335WAT     H237248   7.720   5.620   8.437
12336WAT      O37249   5.228   4.013   1.504
12336WAT     H137250   5.232   4.097   1.451
12336WAT     H237251   5.289   3.945   1.463
12337WAT      O37252   6.863   2.867   4.462
12337WAT     H137253   6.797   2.940   4.448
12337WAT     H237254   6.943   2.882   4.403
12338WAT      O37255   6.301   3.178   0.390
12338WAT     H137256   6.320   3.225   0.304
12338WAT     H237257   6.213   3.131   0.383
12339WAT      O37258   4.267   9.287   0.265
12339WAT     H137259   4.180   9.315   0.224
12339WAT     H237260   4.260   9.193   0.297
12340WAT      O37261   1.912   6.491   4.568
12340WAT     H137262   1.864   6.481   4.655
12340WAT     H237263   2.006   6.461   4.578
12341WAT      O37264   9.793   0.902   3.462
12341WAT     H137265   9.757   0.810   3.445
12341WAT     H237266   9.752   0.939   3.545
12342WAT      O37267   1.221   7.365   1.252
12342WAT     H137268   1.167   7.449   1.255
12342WAT     H237269   1.312   7.385   1.214
12343WAT      O37270   1.608   2.052   5.062
12343WAT     H137271   1.565   1.963   5.051
12343WAT     H237272   1.567   2.117   4.998
12344WAT      O37273   7.135   9.693   3.126
12344WAT     H137274   7.168   9.633   3.199
12344WAT     H237275   7.038   9.672   3.108
12345WAT      O37276   2.667   5.637   0.705
12345WAT     H137277   2.766   5.622   0.714
12345WAT     H237278   2.624   5.632   0.795
12346WAT      O37279   0.049   1.269   7.022
12346WAT     H137280   0.092   1.267   7.113
12346WAT     H237281   0.101   1.329   6.962
12347WAT      O37282   4.050   0.712   8.558
12347WAT     H137283   4.087   0.711   8.465
12347WAT     H237284   4.125   0.721   8.623
12348WAT      O37285   1.158   4.411   8.989
12348WAT     H137286   1.174   4.403   8.891
12348WAT     H237287   1.152   4.320   9.029
12349WAT      O37288   5.944   3.944   7.666
12349WAT     H137289   6.013   3.950   7.593
12349WAT     H237290   5.855   3.924   7.625
12350WAT      O37291   5.403   1.870   8.081
12350WAT     H137292   5.415   1.881   8.179
12350WAT     H237293   5.319   1.819   8.063
12351WAT      O37294   0.535   3.227   5.450
12351WAT     H137295   0.613   3.168   5.474
12351WAT     H237296   0.477   3.238   5.531
12352WAT      O37297   2.949   3.180   2.725
12352WAT     H137298   2.882   3.107   2.709
12352WAT     H237299   2.980   3.176   2.820
12353WAT      O37300   2.285   1.245   1.275
12353WAT     H137301   2.220   1.318   1.295
12353WAT     H237302   2.239   1.157   1.282
12354WAT      O37303   7.364   9.400   3.983
12354WAT     H137304   7.387   9.356   4.069
12354WAT     H237305   7.319   9.334   3.923
12355WAT      O37306   7.099   8.211   0.218
12355WAT     H137307   7.186   8.168   0.192
12355WAT     H237308   7.086   8.202   0.317
12356WAT      O37309   5.612   6.716   6.827
12356WAT     H137310   5.587   6.681   6.917
12356WAT     H237311   5.638   6.813   6.835
12357WAT      O37312   6.591   4.572   7.568
12357WAT     H137313   6.517   4.626   7.607
12357WAT     H237314   6.655   4.632   7.520
12358WAT      O37315   6.307   0.992   2.547
12358WAT     H137316   6.328   1.048   2.467
12358WAT     H237317   6.388   0.984   2.604
12359WAT      O37318   7.338   4.750   9.303
12359WAT     H137319   7.340   4.650   9.305
12359WAT     H237320   7.423   4.786   9.340
12360WAT      O37321   4.055   4.089   5.683
12360WAT     H137322   3.967   4.055   5.716
12360WAT     H237323   4.070   4.057   5.590
12361WAT      O37324   9.210   5.140   3.650
12361WAT     H137325   9.271   5.071   3.611
12361WAT     H237326   9.264   5.211   3.693
12362WAT      O37327   3.242   3.077   9.725
12362WAT     H137328   3.320   3.051   9.669
12362WAT     H237329   3.196   2.994   9.757
12363WAT      O37330   3.763   9.506   7.430
12363WAT     H137331   3.824   9.553   7.367
12363WAT     H237332   3.809   9.425   7.468
12364WAT      O37333   9.443   2.697   9.066
12364WAT     H137334   9.426   2.762   8.993
12364WAT     H237335   9.399   2.610   9.044
12365WAT      O37336   0.857   3.347   1.743
12365WAT     H137337   0.874   3.260   1.790
12365WAT     H237338   0.914   3.418   1.783
12366WAT      O37339   4.551   5.884   3.776
12366WAT     H137340   4.647   5.859   3.769
12366WAT     H237341   4.520   5.924   3.690
12367WAT      O37342   5.561   8.122   5.424
12367WAT     H137343   5.600   8.030   5.433
12367WAT     H237344   5.474   8.117   5.375
12368WAT      O37345   3.209   1.223   5.150
12368WAT     H137346   3.188   1.316   5.181
12368WAT     H237347   3.171   1.157   5.214
12369WAT      O37348   9.044   8.182   4.319
12369WAT     H137349   8.995   8.259   4.360
12369WAT     H237350   9.135   8.175   4.359
12370WAT      O37351   3.726   1.435   4.333
12370WAT     H137352   3.723   1.336   4.322
12370WAT     H237353   3.813   1.461   4.375
12371WAT      O37354   7.353   1.483   5.811
12371WAT     H137355   7.388   1.576   5.800
12371WAT     H237356   7.397   1.440   5.890
12372WAT      O37357   4.426   0.420   9.063
12372WAT     H137358   4.345   0.369   9.093
12372WAT     H237359   4.509   0.370   9.091
12373WAT      O37360   6.824   1.741   2.601
12373WAT     H137361   6.877   1.796   2.666
12373WAT     H237362   6.832   1.781   2.509
12374WAT      O37363   8.379   1.038   0.378
12374WAT     H137364   8.329   1.098   0.440
12374WAT     H237365   8.420   0.963   0.430
12375WAT      O37366   2.483   3.493   0.743
12375WAT     H137367   2.555   3.503   0.811
12375WAT     H237368   2.500   3.411   0.687
12376WAT      O37369   5.884   4.765   2.763
12376WAT     H137370   5.979   4.792   2.782
12376WAT     H237371   5.880   4.666   2.748
12377WAT      O37372   5.819   4.662   0.606
12377WAT     H137373   5.721   4.666   0.625
12377WAT     H237374   5.855   4.756   0.600
12378WAT      O37375   0.851   0.013   8.276
12378WAT     H137376   0.832  -0.031   8.364
12378WAT     H237377   0.919   0.085   8.288
12379WAT      O37378   7.333   7.895   6.687
12379WAT     H137379   7.242   7.855   6.672
12379WAT     H237380   7.323   7.984   6.731
12380WAT      O37381   5.957   8.708   4.211
12380WAT     H137382   6.047   8.741   4.183
12380WAT     H237383   5.949   8.713   4.311
12381WAT      O37384   7.037   3.859   4.402
12381WAT     H137385   7.127   3.849   4.360
12381WAT     H237386   6.972   3.893   4.335
12382WAT      O37387   2.383   0.931   5.510
12382WAT     H137388   2.418   0.900   5.598
12382WAT     H237389   2.386   0.856   5.444
12383WAT      O37390   8.531   1.188   6.497
12383WAT     H137391   8.556   1.283   6.515
12383WAT     H237392   8.521   1.139   6.584
12384WAT      O37393   8.541   7.115   1.948
12384WAT     H137394   8.480   7.037   1.964
12384WAT     H237395   8.531   7.182   2.021
12385WAT      O37396   6.525   3.554   1.472
12385WAT     H137397   6.558   3.480   1.413
12385WAT     H237398   6.437   3.527   1.511
12386WAT      O37399   3.133   8.567   3.721
12386WAT     H137400   3.056   8.585   3.659
12386WAT     H237401   3.143   8.644   3.785
12387WAT      O37402   9.006   7.864   6.550
12387WAT     H137403   8.928   7.911   6.509
12387WAT     H237404   8.993   7.858   6.649
12388WAT      O37405   8.062   8.648   1.443
12388WAT     H137406   8.042   8.646   1.541
12388WAT     H237407   8.107   8.563   1.416
12389WAT      O37408   6.755   4.663   8.549
12389WAT     H137409   6.832   4.722   8.529
12389WAT     H237410   6.687   4.713   8.602
12390WAT      O37411   1.350   3.047   4.509
12390WAT     H137412   1.380   2.968   4.455
12390WAT     H237413   1.430   3.100   4.537
12391WAT      O37414   4.991   1.458   9.831
12391WAT     H137415   4.965   1.388   9.765
12391WAT     H237416   5.028   1.414   9.913
12392WAT      O37417   8.201   8.096   5.619
12392WAT     H137418   8.156   8.111   5.707
12392WAT     H237419   8.137   8.117   5.545
12393WAT      O37420   6.902   3.190   3.743
12393WAT     H137421   6.839   3.218   3.671
12393WAT     H237422   6.950   3.106   3.714
12394WAT      O37423   6.550   1.668   2.657
12394WAT     H137424   6.648   1.666   2.638
12394WAT     H237425   6.522   1.761   2.683
12395WAT      O37426   5.704   3.464   4.414
12395WAT     H137427   5.772   3.517   4.464
12395WAT     H237428   5.748   3.386   4.370
12396WAT      O37429   8.514   4.595   8.296
12396WAT     H137430   8.589   4.607   8.360
12396WAT     H237431   8.544   4.539   8.219
12397WAT      O37432   9.181   9.318   9.455
12397WAT     H137433   9.222   9.231   9.428
12397WAT     H237434   9.252   9.378   9.493
12398WAT      O37435   7.138   1.864   3.722
12398WAT     H137436   7.073   1.896   3.654
12398WAT     H237437   7.141   1.928   3.799
12399WAT      O37438   7.555   0.620   1.344
12399WAT     H137439   7.558   0.540   1.403
12399WAT     H237440   7.488   0.686   1.379
12400WAT      O37441   9.335   2.683   6.454
12400WAT     H137442   9.358   2.677   6.356
12400WAT     H237443   9.244   2.645   6.469
12401WAT      O37444   7.646   1.405   1.239
12401WAT     H137445   7.711   1.407   1.315
12401WAT     H237446   7.678   1.342   1.168
12402WAT      O37447   5.304   1.751   0.369
12402WAT     H137448   5.232   1.745   0.438
12402WAT     H237449   5.378   1.808   0.403
12403WAT      O37450   8.176   3.716   4.240
12403WAT     H137451   8.266   3.695   4.203
12403WAT     H237452   8.141   3.799   4.197
12404WAT      O37453   4.172   0.332   8.717
12404WAT     H137454   4.128   0.405   8.664
12404WAT     H237455   4.172   0.356   8.814
12405WAT      O37456   1.909   7.986   4.054
12405WAT     H137457   1.909   8.060   3.987
12405WAT     H237458   2.003   7.961   4.077
12406WAT      O37459   4.170   1.299   4.323
12406WAT     H137460   4.195   1.331   4.232
12406WAT     H237461   4.101   1.359   4.362
12407WAT      O37462   2.939   0.780   0.585
12407WAT     H137463   2.894   0.779   0.496
12407WAT     H237464   2.896   0.713   0.646
12408WAT      O37465   6.677   1.462   5.607
12408WAT     H137466   6.619   1.525   5.555
12408WAT     H237467   6.731   1.407   5.545
12409WAT      O37468   5.808   5.349   7.717
12409WAT     H137469   5.802   5.250   7.710
12409WAT     H237470   5.787   5.390   7.628
12410WAT      O37471   6.916   0.131   3.869
12410WAT     H137472   6.982   0.058   3.885
12410WAT     H237473   6.959   0.219   3.889
12411WAT      O37474   7.126   4.592   1.842
12411WAT     H137475   7.137   4.636   1.931
12411WAT     H237476   7.202   4.617   1.783
12412WAT      O37477   8.665   1.882   8.302
12412WAT     H137478   8.743   1.819   8.304
12412WAT     H237479   8.594   1.849   8.364
12413WAT      O37480   6.808   5.716   2.424
12413WAT     H137481   6.836   5.756   2.511
12413WAT     H237482   6.736   5.772   2.384
12414WAT      O37483   8.939   8.428   8.948
12414WAT     H137484   8.961   8.446   9.044
12414WAT     H237485   8.920   8.330   8.936
12415WAT      O37486   3.005   6.956   1.078
12415WAT     H137487   2.980   7.039   1.127
12415WAT     H237488   3.016   6.881   1.143
12416WAT      O37489   6.319   4.125   8.674
12416WAT     H137490   6.266   4.204   8.706
12416WAT     H237491   6.413   4.152   8.657
12417WAT      O37492   4.770   9.833   6.125
12417WAT     H137493   4.815   9.798   6.043
12417WAT     H237494   4.821   9.804   6.206
12418WAT      O37495   2.603   2.309   2.773
12418WAT     H137496   2.605   2.238   2.703
12418WAT     H237497   2.514   2.308   2.818
12419WAT      O37498   7.080   2.590   2.816
12419WAT     H137499   7.029   2.504   2.806
12419WAT     H237500   7.092   2.632   2.726
12420WAT      O37501   2.618   2.131   4.296
12420WAT     H137502   2.679   2.111   4.219
12420WAT     H237503   2.532   2.169   4.262
12421WAT      O37504   8.376   0.542   7.086
12421WAT     H137505   8.437   0.478   7.038
12421WAT     H237506   8.302   0.491   7.130
12422WAT      O37507   9.271   8.508   6.377
12422WAT     H137508   9.330   8.551   6.308
12422WAT     H237509   9.255   8.413   6.352
12423WAT      O37510   6.300   7.927   6.221
12423WAT     H137511   6.341   7.855   6.278
12423WAT     H237512   6.369   7.963   6.158
12424WAT      O37513   3.674   3.224   5.101
12424WAT     H137514   3.690   3.293   5.172
12424WAT     H237515   3.595   3.252   5.045
12425WAT      O37516   2.456   4.640   5.054
12425WAT     H137517   2.399   4.582   4.995
12425WAT     H237518   2.491   4.586   5.130
12426WAT      O37519   0.816   4.546   5.303
12426WAT     H137520   0.765   4.628   5.278
12426WAT     H237521   0.776   4.506   5.385
12427WAT      O37522   0.056   9.189   1.827
12427WAT     H137523   0.077   9.151   1.737
12427WAT     H237524  -0.002   9.125   1.878
12428WAT      O37525   3.199   0.667   5.092
12428WAT     H137526   3.252   0.593   5.132
12428WAT     H237527   3.220   0.675   4.994
12429WAT      O37528   6.372   0.691   0.078
12429WAT     H137529   6.345   0.630   0.003
12429WAT     H237530   6.471   0.706   0.075
12430WAT      O37531   4.100   4.043   8.789
12430WAT     H137532   4.103   4.028   8.887
12430WAT     H237533   4.088   4.141   8.770
12431WAT      O37534   6.913   9.534   9.459
12431WAT     H137535   7.009   9.543   9.431
12431WAT     H237536   6.863   9.485   9.388
12432WAT      O37537   0.894   7.699   5.188
12432WAT     H137538   0.876   7.766   5.260
12432WAT     H237539   0.910   7.609   5.228
12433WAT      O37540   6.404   9.592   4.664
12433WAT     H137541   6.329   9.609   4.727
12433WAT     H237542   6.376   9.615   4.571
12434WAT      O37543   9.224   2.906   8.139
12434WAT     H137544   9.223   2.872   8.233
12434WAT     H237545   9.252   3.002   8.139
12435WAT      O37546   2.542   2.542   8.925
12435WAT     H137547   2.637   2.565   8.946
12435WAT     H237548   2.487   2.625   8.929
12436WAT      O37549   5.997   9.013   2.252
12436WAT     H137550   5.936   9.076   2.205
12436WAT     H237551   5.956   8.922   2.255
12437WAT      O37552   1.868   7.901   9.536
12437WAT     H137553   1.959   7.934   9.560
12437WAT     H237554   1.814   7.886   9.619
12438WAT      O37555   0.353   6.179   2.502
12438WAT     H137556   0.309   6.251   2.556
12438WAT     H237557   0.409   6.122   2.562
12439WAT      O37558   6.162   4.597   9.553
12439WAT     H137559   6.245   4.645   9.582
12439WAT     H237560   6.141   4.525   9.619
12440WAT      O37561   6.973  -0.000   3.597
12440WAT     H137562   6.955   0.078   3.537
12440WAT     H237563   6.936   0.019   3.688
12441WAT      O37564   8.263   8.217   6.799
12441WAT     H137565   8.287   8.218   6.896
12441WAT     H237566   8.169   8.186   6.789
12442WAT      O37567   6.146   6.325   1.238
12442WAT     H137568   6.183   6.254   1.178
12442WAT     H237569   6.082   6.382   1.187
12443WAT      O37570   3.108   4.238   9.221
12443WAT     H137571   3.153   4.262   9.307
12443WAT     H237572   3.173   4.192   9.161
12444WAT      O37573   0.246   6.282   6.879
12444WAT     H137574   0.237   6.320   6.787
12444WAT     H237575   0.235   6.183   6.876
12445WAT      O37576   4.597   1.508   6.767
12445WAT     H137577   4.522   1.521   6.832
12445WAT     H237578   4.683   1.497   6.817
12446WAT      O37579   0.066   8.124   1.805
12446WAT     H137580  -0.004   8.064   1.766
12446WAT     H237581   0.038   8.154   1.895
12447WAT      O37582   4.389   8.087   1.147
12447WAT     H137583   4.433   8.022   1.085
12447WAT     H237584   4.380   8.046   1.238
12448WAT      O37585   6.351   7.541   7.077
12448WAT     H137586   6.438   7.493   7.066
12448WAT     H237587   6.336   7.601   6.999
12449WAT      O37588   3.429   8.274   2.600
12449WAT     H137589   3.441   8.372   2.585
12449WAT     H237590   3.373   8.260   2.682
12450WAT      O37591   0.135   5.239   2.156
12450WAT     H137592   0.079   5.322   2.151
12450WAT     H237593   0.212   5.247   2.093
12451WAT      O37594   6.002   5.042   4.566
12451WAT     H137595   6.015   5.077   4.659
12451WAT     H237596   5.918   5.081   4.528
12452WAT      O37597   1.555   8.720   7.068
12452WAT     H137598   1.526   8.730   6.973
12452WAT     H237599   1.603   8.634   7.079
12453WAT      O37600   3.344   2.560   2.846
12453WAT     H137601   3.284   2.481   2.834
12453WAT     H237602   3.342   2.616   2.763
12454WAT      O37603   0.663   7.824   5.657
12454WAT     H137604   0.735   7.765   5.691
12454WAT     H237605   0.614   7.865   5.734
12455WAT      O37606   5.176   8.390   7.770
12455WAT     H137607   5.195   8.300   7.730
12455WAT     H237608   5.255   8.421   7.822
12456WAT      O37609   2.176   1.731   3.502
12456WAT     H137610   2.206   1.646   3.460
12456WAT     H237611   2.248   1.764   3.564
12457WAT      O37612   6.754   2.302   1.919
12457WAT     H137613   6.708   2.244   1.852
12457WAT     H237614   6.731   2.271   2.011
12458WAT      O37615   0.623   8.770   2.681
12458WAT     H137616   0.624   8.682   2.727
12458WAT     H237617   0.548   8.773   2.616
12459WAT      O37618   9.860   5.456   2.103
12459WAT     H137619   9.824   5.517   2.173
12459WAT     H237620   9.876   5.507   2.019
12460WAT      O37621   9.445   2.925   7.363
12460WAT     H137622   9.402   2.874   7.437
12460WAT     H237623   9.525   2.874   7.330
12461WAT      O37624   7.647   8.737   2.591
12461WAT     H137625   7.632   8.748   2.492
12461WAT     H237626   7.630   8.824   2.637
12462WAT      O37627   9.732   3.346   1.692
12462WAT     H137628   9.651   3.287   1.686
12462WAT     H237629   9.779   3.328   1.778
12463WAT      O37630   5.547   5.621   7.974
12463WAT     H137631   5.589   5.705   8.006
12463WAT     H237632   5.480   5.642   7.903
12464WAT      O37633   2.981   2.273   9.627
12464WAT     H137634   2.888   2.297   9.599
12464WAT     H237635   3.011   2.192   9.577
12465WAT      O37636   7.725   6.864   6.523
12465WAT     H137637   7.817   6.863   6.562
12465WAT     H237638   7.657   6.862   6.597
12466WAT      O37639   4.253   4.839   2.496
12466WAT     H137640   4.273   4.895   2.416
12466WAT     H237641   4.176   4.878   2.546
12467WAT      O37642   8.817   1.646   3.769
12467WAT     H137643   8.745   1.654   3.839
12467WAT     H237644   8.835   1.736   3.729
12468WAT      O37645   2.929   1.491   1.768
12468WAT     H137646   2.895   1.577   1.808
12468WAT     H237647   3.013   1.509   1.717
12469WAT      O37648   0.158   6.857   7.102
12469WAT     H137649   0.242   6.811   7.133
12469WAT     H237650   0.175   6.899   7.013
12470WAT      O37651   6.167   2.860   4.623
12470WAT     H137652   6.085   2.851   4.566
12470WAT     H237653   6.141   2.889   4.715
12471WAT      O37654   2.809   4.203   3.258
12471WAT     H137655   2.799   4.122   3.200
12471WAT     H237656   2.891   4.253   3.230
12472WAT      O37657   0.476   8.359   4.017
12472WAT     H137658   0.558   8.412   4.038
12472WAT     H237659   0.398   8.399   4.066
12473WAT      O37660   0.119   2.252   1.151
12473WAT     H137661   0.079   2.168   1.115
12473WAT     H237662   0.055   2.294   1.216
12474WAT      O37663   2.526   7.852   0.332
12474WAT     H137664   2.465   7.809   0.399
12474WAT     H237665   2.521   7.801   0.246
12475WAT      O37666   2.166   1.611   2.989
12475WAT     H137667   2.176   1.664   3.073
12475WAT     H237668   2.246   1.554   2.976
12476WAT      O37669   8.366   6.634   6.701
12476WAT     H137670   8.437   6.666   6.639
12476WAT     H237671   8.370   6.686   6.786
12477WAT      O37672   6.769   2.654   3.102
12477WAT     H137673   6.807   2.662   3.010
12477WAT     H237674   6.713   2.571   3.107
12478WAT      O37675   4.181   0.422   5.507
12478WAT     H137676   4.177   0.486   5.584
12478WAT     H237677   4.171   0.329   5.541
12479WAT      O37678   8.516   6.481   1.020
12479WAT     H137679   8.585   6.533   1.070
12479WAT     H237680   8.435   6.470   1.078
12480WAT      O37681   9.625   0.007   0.304
12480WAT     H137682   9.600   0.003   0.208
12480WAT     H237683   9.680   0.089   0.322
12481WAT      O37684   3.621   9.023   1.191
12481WAT     H137685   3.678   9.023   1.273
12481WAT     H237686   3.574   8.936   1.182
12482WAT      O37687   2.408   6.067   2.449
12482WAT     H137688   2.392   6.164   2.434
12482WAT     H237689   2.320   6.019   2.455
12483WAT      O37690   9.642   0.040   7.327
12483WAT     H137691   9.665   0.133   7.356
12483WAT     H237692   9.726  -0.014   7.319
12484WAT      O37693   4.189   8.943   3.457
12484WAT     H137694   4.113   8.885   3.428
12484WAT     H237695   4.243   8.968   3.377
12485WAT      O37696   9.175   3.571   3.524
12485WAT     H137697   9.090   3.527   3.498
12485WAT     H237698   9.170   3.599   3.620
12486WAT      O37699   1.528   0.564   1.239
12486WAT     H137700   1.510   0.512   1.322
12486WAT     H237701   1.476   0.649   1.241
12487WAT      O37702   5.713   5.391   7.478
12487WAT     H137703   5.784   5.361   7.414
12487WAT     H237704   5.662   5.311   7.511
12488WAT      O37705   4.141   2.016   9.521
12488WAT     H137706   4.155   1.947   9.449
12488WAT     H237707   4.063   2.074   9.497
12489WAT      O37708   5.780   8.162   2.664
12489WAT     H137709   5.792   8.233   2.734
12489WAT     H237710   5.695   8.179   2.614
12490WAT      O37711   0.370   7.050   4.348
12490WAT     H137712   0.312   7.004   4.281
12490WAT     H237713   0.464   7.054   4.313
12491WAT      O37714   7.302   4.332   4.828
12491WAT     H137715   7.229   4.399   4.814
12491WAT     H237716   7.336   4.301   4.739
12492WAT      O37717   9.231   5.696   5.270
12492WAT     H137718   9.148   5.653   5.306
12492WAT     H237719   9.283   5.628   5.219
12493WAT      O37720   5.918   7.335   5.781
12493WAT     H137721   5.904   7.416   5.725
12493WAT     H237722   5.856   7.337   5.859
12494WAT      O37723   9.151   7.844   4.430
12494WAT     H137724   9.212   7.782   4.479
12494WAT     H237725   9.205   7.906   4.373
12495WAT      O37726   1.997   7.276   4.318
12495WAT     H137727   2.019   7.368   4.349
12495WAT     H237728   1.984   7.216   4.398
12496WAT      O37729   7.741   9.066   9.731
12496WAT     H137730   7.807   9.088   9.803
12496WAT     H237731   7.787   9.065   9.642
12497WAT      O37732   1.627   5.613   5.094
12497WAT     H137733   1.534   5.594   5.064
12497WAT     H237734   1.689   5.613   5.015
12498WAT      O37735   4.907   0.903   3.832
12498WAT     H137736   4.927   0.930   3.926
12498WAT     H237737   4.853   0.818   3.832
12499WAT      O37738   2.154   0.749   2.972
12499WAT     H137739   2.127   0.839   2.937
12499WAT     H237740   2.075   0.688   2.969
12500WAT      O37741   2.991   4.494   2.011
12500WAT     H137742   3.039   4.581   2.002
12500WAT     H237743   2.912   4.505   2.071
12501WAT      O37744   5.473   4.857   1.558
12501WAT     H137745   5.517   4.856   1.468
12501WAT     H237746   5.397   4.792   1.558
12502WAT      O37747   8.172   1.238   3.267
12502WAT     H137748   8.229   1.317   3.286
12502WAT     H237749   8.184   1.211   3.171
12503WAT      O37750   5.821   5.519   3.417
12503WAT     H137751   5.769   5.454   3.361
12503WAT     H237752   5.761   5.594   3.445
12504WAT      O37753   7.317   4.188   3.770
12504WAT     H137754   7.358   4.097   3.774
12504WAT     H237755   7.337   4.237   3.855
12505WAT      O37756   1.249   5.386   3.481
12505WAT     H137757   1.160   5.363   3.522
12505WAT     H237758   1.300   5.444   3.545
12506WAT      O37759   1.242   9.254   1.359
12506WAT     H137760   1.145   9.239   1.374
12506WAT     H237761   1.295   9.190   1.414
12507WAT      O37762   9.292   4.894   5.959
12507WAT     H137763   9.314   4.934   6.047
12507WAT     H237764   9.370   4.905   5.897
12508WAT      O37765   7.181   9.607   2.604
12508WAT     H137766   7.127   9.532   2.643
12508WAT     H237767   7.188   9.681   2.670
12509WAT      O37768   7.807   3.119   1.277
12509WAT     H137769   7.887   3.173   1.250
12509WAT     H237770   7.759   3.163   1.352
12510WAT      O37771   9.505   0.865   1.624
12510WAT     H137772   9.543   0.783   1.580
12510WAT     H237773   9.549   0.879   1.712
12511WAT      O37774   9.115   2.286   4.547
12511WAT     H137775   9.101   2.378   4.585
12511WAT     H237776   9.179   2.291   4.471
12512WAT      O37777   9.254   7.330   0.120
12512WAT     H137778   9.327   7.315   0.053
12512WAT     H237779   9.294   7.329   0.212
12513WAT      O37780   2.796   2.590   9.300
12513WAT     H137781   2.811   2.588   9.201
12513WAT     H237782   2.846   2.513   9.342
12514WAT      O37783   3.415   8.303   5.028
12514WAT     H137784   3.499   8.277   5.074
12514WAT     H237785   3.407   8.402   5.025
12515WAT      O37786   4.747   7.120   2.381
12515WAT     H137787   4.707   7.172   2.457
12515WAT     H237788   4.756   7.024   2.408
12516WAT      O37789   0.131   2.076   7.714
12516WAT     H137790   0.075   1.994   7.703
12516WAT     H237791   0.111   2.141   7.641
12517WAT      O37792   6.243   0.034   2.722
12517WAT     H137793   6.276   0.049   2.629
12517WAT     H237794   6.298  -0.036   2.766
12518WAT      O37795   6.730   6.897   5.196
12518WAT     H137796   6.704   6.993   5.196
12518WAT     H237797   6.710   6.856   5.107
12519WAT      O37798   9.619   5.032   2.709
12519WAT     H137799   9.633   4.948   2.656
12519WAT     H237800   9.618   5.011   2.806
12520WAT      O37801   2.104   5.363   2.618
12520WAT     H137802   2.069   5.295   2.554
12520WAT     H237803   2.132   5.445   2.568
12521WAT      O37804   2.701   8.241   7.412
12521WAT     H137805   2.765   8.280   7.346
12521WAT     H237806   2.608   8.272   7.392
12522WAT      O37807   1.309   9.636   0.831
12522WAT     H137808   1.272   9.625   0.739
12522WAT     H237809   1.274   9.564   0.890
12523WAT      O37810   9.032   7.183   0.154
12523WAT     H137811   9.058   7.091   0.183
12523WAT     H237812   9.113   7.240   0.149
12524WAT      O37813   0.105   2.558   0.056
12524WAT     H137814   0.145   2.593   0.140
12524WAT     H237815   0.007   2.580   0.053
12525WAT      O37816   1.323   2.936   7.174
12525WAT     H137817   1.233   2.969   7.202
12525WAT     H237818   1.391   3.008   7.188
12526WAT      O37819   7.242   7.211   8.439
12526WAT     H137820   7.279   7.304   8.433
12526WAT     H237821   7.200   7.186   8.352
12527WAT      O37822   3.777   0.062   3.769
12527WAT     H137823   3.797   0.068   3.671
12527WAT     H237824   3.693   0.112   3.789
12528WAT      O37825   9.160   1.228   5.226
12528WAT     H137826   9.172   1.281   5.142
12528WAT     H237827   9.205   1.140   5.217
12529WAT      O37828   1.887   8.730   0.622
12529WAT     H137829   1.928   8.736   0.531
12529WAT     H237830   1.792   8.702   0.614
12530WAT      O37831   7.005   3.052   6.757
12530WAT     H137832   6.923   3.080   6.707
12530WAT     H237833   6.999   3.085   6.851
12531WAT      O37834   3.260   0.193   2.233
12531WAT     H137835   3.221   0.285   2.240
12531WAT     H237836   3.255   0.148   2.322
12532WAT      O37837   8.154   5.118   4.062
12532WAT     H137838   8.108   5.149   3.980
12532WAT     H237839   8.177   5.197   4.119
12533WAT      O37840   8.100   8.007   4.831
12533WAT     H137841   8.094   8.056   4.744
12533WAT     H237842   8.182   8.036   4.880
12534WAT      O37843   6.053   8.358   0.231
12534WAT     H137844   6.024   8.268   0.198
12534WAT     H237845   6.062   8.420   0.154
12535WAT      O37846   6.993   7.070   8.968
12535WAT     H137847   7.048   7.009   8.911
12535WAT     H237848   7.003   7.164   8.934
12536WAT      O37849   5.600   2.088   3.465
12536WAT     H137850   5.578   2.082   3.368
12536WAT     H237851   5.697   2.106   3.477
12537WAT      O37852   6.124   2.452   7.514
12537WAT     H137853   6.140   2.454   7.415
12537WAT     H237854   6.209   2.472   7.562
12538WAT      O37855   8.435   7.457   1.254
12538WAT     H137856   8.370   7.530   1.233
12538WAT     H237857   8.413   7.377   1.199
12539WAT      O37858   7.070   7.507   3.055
12539WAT     H137859   6.990   7.504   2.996
12539WAT     H237860   7.045   7.475   3.147
12540WAT      O37861   0.934   6.772   8.138
12540WAT     H137862   0.908   6.853   8.190
12540WAT     H237863   0.917   6.788   8.040
12541WAT      O37864   2.812   9.137   8.433
12541WAT     H137865   2.864   9.067   8.382
12541WAT     H237866   2.769   9.200   8.368
12542WAT      O37867   8.675   2.913   7.365
12542WAT     H137868   8.728   2.997   7.366
12542WAT     H237869   8.726   2.841   7.412
12543WAT      O37870   3.260   5.567   6.009
12543WAT     H137871   3.312   5.652   6.011
12543WAT     H237872   3.198   5.564   6.088
12544WAT      O37873   9.476   7.145   2.886
12544WAT     H137874   9.454   7.239   2.909
12544WAT     H237875   9.410   7.083   2.929
12545WAT      O37876   3.996   0.988   6.223
12545WAT     H137877   4.000   0.987   6.124
12545WAT     H237878   4.065   0.925   6.260
12546WAT      O37879   1.838   8.797   4.844
12546WAT     H137880   1.788   8.828   4.926
12546WAT     H237881   1.809   8.852   4.766
12547WAT      O37882   6.025   0.554   8.162
12547WAT     H137883   6.026   0.455   8.149
12547WAT     H237884   6.061   0.598   8.079
12548WAT      O37885   4.586   5.097   1.874
12548WAT     H137886   4.662   5.152   1.911
12548WAT     H237887   4.609   5.067   1.782
12549WAT      O37888   0.938   3.792   5.903
12549WAT     H137889   0.920   3.727   5.977
12549WAT     H237890   0.875   3.869   5.910
12550WAT      O37891   4.680   8.396   4.126
12550WAT     H137892   4.772   8.434   4.138
12550WAT     H237893   4.613   8.458   4.166
12551WAT      O37894   5.081   4.161   8.595
12551WAT     H137895   5.026   4.180   8.676
12551WAT     H237896   5.163   4.111   8.621
12552WAT      O37897   5.481   4.661   9.712
12552WAT     H137898   5.461   4.572   9.754
12552WAT     H237899   5.398   4.699   9.672
12553WAT      O37900   1.378   7.481   9.216
12553WAT     H137901   1.442   7.487   9.139
12553WAT     H237902   1.380   7.388   9.254
12554WAT      O37903   4.592   1.846   4.579
12554WAT     H137904   4.643   1.794   4.648
12554WAT     H237905   4.526   1.907   4.624
12555WAT      O37906   1.787   5.417   6.943
12555WAT     H137907   1.862   5.431   6.879
12555WAT     H237908   1.722   5.351   6.905
12556WAT      O37909   3.490   7.912   2.606
12556WAT     H137910   3.570   7.958   2.645
12556WAT     H237911   3.492   7.919   2.506
12557WAT      O37912   5.158   1.696   8.390
12557WAT     H137913   5.209   1.613   8.369
12557WAT     H237914   5.211   1.776   8.360
12558WAT      O37915   0.731   3.157   3.057
12558WAT     H137916   0.784   3.080   3.021
12558WAT     H237917   0.633   3.134   3.057
12559WAT      O37918   2.620   7.798   2.645
12559WAT     H137919   2.625   7.888   2.689
12559WAT     H237920   2.575   7.806   2.556
12560WAT      O37921   5.036   7.312   7.476
12560WAT     H137922   5.057   7.226   7.430
12560WAT     H237923   5.007   7.380   7.409
12561WAT      O37924   0.159   4.642   3.466
12561WAT     H137925   0.202   4.559   3.431
12561WAT     H237926   0.066   4.648   3.429
12562WAT      O37927   7.449   3.512   1.092
12562WAT     H137928   7.454   3.416   1.066
12562WAT     H237929   7.460   3.569   1.011
12563WAT      O37930   7.900   2.395   4.178
12563WAT     H137931   7.857   2.311   4.211
12563WAT     H237932   7.831   2.452   4.133
12564WAT      O37933   4.594   7.392   1.819
12564WAT     H137934   4.505   7.367   1.780
12564WAT     H237935   4.651   7.432   1.748
12565WAT      O37936   7.954   8.932   4.330
12565WAT     H137937   8.003   8.872   4.393
12565WAT     H237938   8.007   9.016   4.316
12566WAT      O37939   6.583   1.634   4.576
12566WAT     H137940   6.492   1.662   4.607
12566WAT     H237941   6.599   1.538   4.602
12567WAT      O37942   5.374   7.667   5.585
12567WAT     H137943   5.429   7.716   5.516
12567WAT     H237944   5.433   7.642   5.662
12568WAT      O37945   5.151   5.328   3.279
12568WAT     H137946   5.131   5.356   3.185
12568WAT     H237947   5.066   5.324   3.331
12569WAT      O37948   3.892   3.892   8.465
12569WAT     H137949   3.978   3.856   8.502
12569WAT     H237950   3.902   3.989   8.445
12570WAT      O37951   9.271   1.176   4.294
12570WAT     H137952   9.312   1.267   4.291
12570WAT     H237953   9.285   1.136   4.385
12571WAT      O37954   1.533   1.087   6.109
12571WAT     H137955   1.602   1.136   6.161
12571WAT     H237956   1.521   0.996   6.148
12572WAT      O37957   6.169   1.182   4.356
12572WAT     H137958   6.084   1.223   4.322
12572WAT     H237959   6.151   1.090   4.389
12573WAT      O37960   4.732   3.003   9.372
12573WAT     H137961   4.830   2.997   9.353
12573WAT     H237962   4.719   3.044   9.463
12574WAT      O37963   8.029   1.880   7.211
12574WAT     H137964   8.043   1.973   7.176
12574WAT     H237965   8.116   1.830   7.209
12575WAT      O37966   2.077   3.905   7.689
12575WAT     H137967   2.059   3.916   7.787
12575WAT     H237968   1.996   3.931   7.636
12576WAT      O37969   7.144   4.083   5.342
12576WAT     H137970   7.090   4.000   5.327
12576WAT     H237971   7.175   4.086   5.437
12577WAT      O37972   8.067   5.886   3.566
12577WAT     H137973   8.003   5.963   3.562
12577WAT     H237974   8.016   5.801   3.564
12578WAT      O37975   9.180   3.152   4.985
12578WAT     H137976   9.178   3.243   5.025
12578WAT     H237977   9.228   3.155   4.897
12579WAT      O37978   0.971   4.594   3.025
12579WAT     H137979   1.052   4.555   2.983
12579WAT     H237980   0.978   4.694   3.026
12580WAT      O37981   3.472   4.687   2.784
12580WAT     H137982   3.519   4.632   2.853
12580WAT     H237983   3.525   4.686   2.699
12581WAT      O37984   6.453   9.006   7.311
12581WAT     H137985   6.423   9.009   7.216
12581WAT     H237986   6.449   9.098   7.351
12582WAT      O37987   1.291   5.076   0.847
12582WAT     H137988   1.305   5.149   0.914
12582WAT     H237989   1.333   4.992   0.880
12583WAT      O37990   5.635   7.402   3.633
12583WAT     H137991   5.551   7.350   3.645
12583WAT     H237992   5.616   7.499   3.640
12584WAT      O37993   6.916   5.026   5.178
12584WAT     H137994   6.953   4.960   5.113
12584WAT     H237995   6.949   5.005   5.270
12585WAT      O37996   0.019   1.920   6.878
12585WAT     H137997   0.035   1.823   6.855
12585WAT     H237998  -0.079   1.936   6.887
12586WAT      O37999   7.807   7.851   1.104
12586WAT     H138000   7.875   7.889   1.042
12586WAT     H238001   7.804   7.905   1.188
12587WAT      O38002   8.489   8.042   7.540
12587WAT     H138003   8.538   7.989   7.609
12587WAT     H238004   8.544   8.123   7.516
12588WAT      O38005   2.843   0.450   5.545
12588WAT     H138006   2.768   0.447   5.610
12588WAT     H238007   2.832   0.376   5.478
12589WAT      O38008   8.337   7.960   1.370
12589WAT     H138009   8.323   7.875   1.420
12589WAT     H238010   8.423   7.955   1.319
12590WAT      O38011   3.848   8.077   5.821
12590WAT     H138012   3.801   8.165   5.822
12590WAT     H238013   3.858   8.044   5.915
12591WAT      O38014   5.928   3.712   5.575
12591WAT     H138015   5.865   3.782   5.541
12591WAT     H238016   6.018   3.753   5.591
12592WAT      O38017   2.704   4.228   1.841
12592WAT     H138018   2.694   4.262   1.934
12592WAT     H238019   2.798   4.240   1.811
12593WAT      O38020   8.587   7.685   7.290
12593WAT     H138021   8.560   7.774   7.328
12593WAT     H238022   8.634   7.632   7.361
12594WAT      O38023   5.208   7.109   0.572
12594WAT     H138024   5.112   7.083   0.558
12594WAT     H238025   5.217   7.156   0.660
12595WAT      O38026   0.638   2.190   0.765
12595WAT     H138027   0.626   2.115   0.829
12595WAT     H238028   0.594   2.273   0.801
12596WAT      O38029   6.189   0.854   1.053
12596WAT     H138030   6.175   0.788   1.127
12596WAT     H238031   6.103   0.866   1.003
12597WAT      O38032   8.151   7.379   8.612
12597WAT     H138033   8.081   7.312   8.587
12597WAT     H238034   8.229   7.332   8.654
12598WAT      O38035   1.709   1.370   4.545
12598WAT     H138036   1.626   1.376   4.488
12598WAT     H238037   1.789   1.393   4.490
12599WAT      O38038   2.767   8.782   9.822
12599WAT     H138039   2.859   8.743   9.828
12599WAT     H238040   2.725   8.783   9.913
12600WAT      O38041   6.639   2.067   8.869
12600WAT     H138042   6.633   2.053   8.968
12600WAT     H238043   6.551   2.045   8.827
12601WAT      O38044   5.101   1.225   3.868
12601WAT     H138045   5.151   1.139   3.872
12601WAT     H238046   5.074   1.252   3.960
12602WAT      O38047   5.099   1.386   2.067
12602WAT     H138048   5.097   1.331   1.984
12602WAT     H238049   5.047   1.341   2.139
12603WAT      O38050   5.983   6.823   3.989
12603WAT     H138051   5.977   6.916   3.954
12603WAT     H238052   5.892   6.789   4.013
12604WAT      O38053   5.305   7.992   5.090
12604WAT     H138054   5.210   8.003   5.062
12604WAT     H238055   5.312   8.002   5.190
12605WAT      O38056   1.171   1.329   5.447
12605WAT     H138057   1.126   1.257   5.395
12605WAT     H238058   1.104   1.398   5.474
12606WAT      O38059   6.491   4.750   5.140
12606WAT     H138060   6.494   4.809   5.059
12606WAT     H238061   6.566   4.774   5.201
12607WAT      O38062   2.838   7.960   1.474
12607WAT     H138063   2.864   8.014   1.555
12607WAT     H238064   2.740   7.939   1.478
12608WAT      O38065   1.078   5.222   2.075
12608WAT     H138066   1.127   5.296   2.029
12608WAT     H238067   1.096   5.136   2.028
12609WAT      O38068   6.208   3.763   7.890
12609WAT     H138069   6.280   3.764   7.959
12609WAT     H238070   6.230   3.828   7.817
12610WAT      O38071   0.067   8.187   7.802
12610WAT     H138072   0.104   8.095   7.792
12610WAT     H238073   0.005   8.189   7.881
12611WAT      O38074   9.743   9.492   1.874
12611WAT     H138075   9.712   9.413   1.927
12611WAT     H238076   9.740   9.469   1.776
12612WAT      O38077   9.355   8.012   0.576
12612WAT     H138078   9.366   8.090   0.514
12612WAT     H238079   9.339   8.045   0.669
12613WAT      O38080   6.630   7.132   1.879
12613WAT     H138081   6.615   7.195   1.954
12613WAT     H238082   6.574   7.159   1.801
12614WAT      O38083   3.849   8.952   7.016
12614WAT     H138084   3.807   8.890   7.082
12614WAT     H238085   3.850   9.045   7.053
12615WAT      O38086   7.320   0.358   5.301
12615WAT     H138087   7.276   0.362   5.391
12615WAT     H238088   7.391   0.288   5.301
12616WAT      O38089   3.136   9.674   1.561
12616WAT     H138090   3.112   9.744   1.494
12616WAT     H238091   3.090   9.694   1.647
12617WAT      O38092   1.102   4.135   2.028
12617WAT     H138093   1.040   4.151   1.951
12617WAT     H238094   1.070   4.055   2.080
12618WAT      O38095   9.078   3.729   4.225
12618WAT     H138096   9.019   3.774   4.158
12618WAT     H238097   9.173   3.755   4.209
12619WAT      O38098   8.836   2.012   9.753
12619WAT     H138099   8.911   1.984   9.694
12619WAT     H238100   8.758   1.952   9.738
12620WAT      O38101   5.359   6.073   6.550
12620WAT     H138102   5.338   6.151   6.609
12620WAT     H238103   5.458   6.067   6.536
12621WAT      O38104   8.467   5.601   3.622
12621WAT     H138105   8.542   5.661   3.649
12621WAT     H238106   8.402   5.652   3.567
12622WAT      O38107   0.550   7.922   5.875
12622WAT     H138108   0.575   7.849   5.939
12622WAT     H238109   0.575   8.010   5.915
12623WAT      O38110   2.187   5.288   1.915
12623WAT     H138111   2.232   5.201   1.934
12623WAT     H238112   2.129   5.313   1.993
12624WAT      O38113   1.545   4.800   2.677
12624WAT     H138114   1.610   4.826   2.749
12624WAT     H238115   1.469   4.865   2.677
12625WAT      O38116   5.446   8.992   6.262
12625WAT     H138117   5.365   8.933   6.256
12625WAT     H238118   5.526   8.936   6.284
12626WAT      O38119   8.285   7.243   9.838
12626WAT     H138120   8.201   7.195   9.813
12626WAT     H238121   8.333   7.192   9.909
12627WAT      O38122   8.323   2.830   1.860
12627WAT     H138123   8.299   2.926   1.848
12627WAT     H238124   8.363   2.795   1.775
12628WAT      O38125   9.829   1.719   2.345
12628WAT     H138126   9.782   1.691   2.262
12628WAT     H238127   9.914   1.766   2.322
12629WAT      O38128   2.438   1.985   5.069
12629WAT     H138129   2.372   2.058   5.050
12629WAT     H238130   2.523   2.026   5.104
12630WAT      O38131   0.538   7.443   1.209
12630WAT     H138132   0.499   7.357   1.176
12630WAT     H238133   0.556   7.436   1.307
12631WAT      O38134   9.779   8.986   1.896
12631WAT     H138135   9.855   8.938   1.940
12631WAT     H238136   9.709   8.921   1.867
12632WAT      O38137   3.022   8.896   5.296
12632WAT     H138138   3.078   8.849   5.364
12632WAT     H238139   2.968   8.829   5.245
12633WAT      O38140   5.701   1.475   5.939
12633WAT     H138141   5.663   1.436   5.855
12633WAT     H238142   5.630   1.524   5.988
12634WAT      O38143   6.169   3.714   0.528
12634WAT     H138144   6.099   3.680   0.465
12634WAT     H238145   6.222   3.637   0.563
12635WAT      O38146   2.628   8.546   2.450
12635WAT     H138147   2.581   8.495   2.378
12635WAT     H238148   2.642   8.486   2.530
12636WAT      O38149   8.532   7.353   1.783
12636WAT     H138150   8.525   7.265   1.829
12636WAT     H238151   8.484   7.348   1.695
12637WAT      O38152   9.873   2.785   0.336
12637WAT     H138153   9.866   2.880   0.308
12637WAT     H238154   9.805   2.730   0.286
12638WAT      O38155   9.870   1.182   7.558
12638WAT     H138156   9.795   1.133   7.604
12638WAT     H238157   9.857   1.177   7.459
12639WAT      O38158   1.574   3.508   8.195
12639WAT     H138159   1.594   3.563   8.275
12639WAT     H238160   1.510   3.435   8.219
12640WAT      O38161   5.084   5.654   1.895
12640WAT     H138162   5.114   5.749   1.890
12640WAT     H238163   4.996   5.644   1.849
12641WAT      O38164   8.687   0.241   3.346
12641WAT     H138165   8.739   0.157   3.332
12641WAT     H238166   8.666   0.282   3.257
12642WAT      O38167   6.893   7.616   7.430
12642WAT     H138168   6.847   7.527   7.431
12642WAT     H238169   6.898   7.652   7.524
12643WAT      O38170   7.344   6.762   4.787
12643WAT     H138171   7.442   6.758   4.766
12643WAT     H238172   7.305   6.846   4.750
12644WAT      O38173   0.057   2.041   0.326
12644WAT     H138174   0.146   2.048   0.372
12644WAT     H238175  -0.010   2.002   0.390
12645WAT      O38176   4.107   8.318   8.045
12645WAT     H138177   4.107   8.280   8.138
12645WAT     H238178   4.058   8.406   8.046
12646WAT      O38179   3.375   7.479   3.844
12646WAT     H138180   3.350   7.443   3.754
12646WAT     H238181   3.320   7.560   3.864
12647WAT      O38182   0.707   0.206   5.962
12647WAT     H138183   0.785   0.266   5.980
12647WAT     H238184   0.652   0.196   6.045
12648WAT      O38185   8.673   0.193   3.828
12648WAT     H138186   8.768   0.187   3.799
12648WAT     H238187   8.628   0.268   3.780
12649WAT      O38188   6.726   1.727   1.966
12649WAT     H138189   6.734   1.785   1.885
12649WAT     H238190   6.786   1.648   1.956
12650WAT      O38191   3.969   8.926   0.322
12650WAT     H138192   4.066   8.948   0.336
12650WAT     H238193   3.947   8.842   0.370
12651WAT      O38194   0.416   1.763   2.178
12651WAT     H138195   0.441   1.695   2.247
12651WAT     H238196   0.318   1.782   2.184
12652WAT      O38197   8.934   2.308   3.765
12652WAT     H138198   8.882   2.284   3.683
12652WAT     H238199   8.931   2.407   3.779
12653WAT      O38200   7.106   2.048   3.922
12653WAT     H138201   7.038   2.003   3.980
12653WAT     H238202   7.109   2.145   3.944
12654WAT      O38203   1.439   5.360   3.999
12654WAT     H138204   1.368   5.428   3.978
12654WAT     H238205   1.455   5.357   4.097
12655WAT      O38206   7.121   2.478   7.350
12655WAT     H138207   7.162   2.570   7.350
12655WAT     H238208   7.188   2.412   7.315
12656WAT      O38209   4.817   7.917   9.149
12656WAT     H138210   4.835   7.895   9.053
12656WAT     H238211   4.746   7.856   9.185
12657WAT      O38212   7.420   9.288   2.601
12657WAT     H138213   7.448   9.334   2.685
12657WAT     H238214   7.379   9.200   2.623
12658WAT      O38215   8.917   4.012   3.922
12658WAT     H138216   8.889   4.102   3.890
12658WAT     H238217   8.937   3.952   3.844
12659WAT      O38218   6.271   9.046   5.826
12659WAT     H138219   6.332   9.103   5.772
12659WAT     H238220   6.199   9.103   5.867
12660WAT      O38221   9.160   5.633   3.902
12660WAT     H138222   9.174   5.711   3.964
12660WAT     H238223   9.114   5.559   3.952
12661WAT      O38224   4.965   9.408   4.037
12661WAT     H138225   4.967   9.316   3.997
12661WAT     H238226   5.029   9.413   4.113
12662WAT      O38227   3.653   1.229   8.198
12662WAT     H138228   3.645   1.300   8.128
12662WAT     H238229   3.626   1.141   8.161
12663WAT      O38230   0.524   9.249   1.661
12663WAT     H138231   0.610   9.214   1.698
12663WAT     H238232   0.485   9.315   1.725
12664WAT      O38233   5.376   0.466   8.194
12664WAT     H138234   5.291   0.493   8.149
12664WAT     H238235   5.358   0.449   8.291
12665WAT      O38236   1.802   2.481   7.934
12665WAT     H138237   1.841   2.407   7.880
12665WAT     H238238   1.772   2.555   7.874
12666WAT      O38239   5.224   0.110   2.702
12666WAT     H138240   5.125   0.109   2.712
12666WAT     H238241   5.265   0.151   2.784
12667WAT      O38242   9.650   8.540   6.608
12667WAT     H138243   9.633   8.484   6.689
12667WAT     H238244   9.571   8.598   6.591
12668WAT      O38245   6.432   5.334   1.620
12668WAT     H138246   6.483   5.383   1.549
12668WAT     H238247   6.482   5.251   1.645
12669WAT      O38248   7.746   6.334   3.543
12669WAT     H138249   7.659   6.285   3.540
12669WAT     H238250   7.729   6.431   3.558
12670WAT      O38251   4.948   1.742   7.507
12670WAT     H138252   4.904   1.668   7.455
12670WAT     H238253   4.984   1.705   7.592
12671WAT      O38254   6.177   3.162   5.669
12671WAT     H138255   6.170   3.246   5.723
12671WAT     H238256   6.252   3.106   5.703
12672WAT      O38257   1.325   2.639   8.932
12672WAT     H138258   1.424   2.649   8.930
12672WAT     H238259   1.299   2.552   8.889
12673WAT      O38260   1.564   8.845   9.042
12673WAT     H138261   1.537   8.910   9.112
12673WAT     H238262   1.622   8.890   8.974
12674WAT      O38263   1.297   6.403   1.133
12674WAT     H138264   1.281   6.367   1.040
12674WAT     H238265   1.244   6.350   1.198
12675WAT      O38266   8.101   0.448   3.210
12675WAT     H138267   8.154   0.370   3.177
12675WAT     H238268   8.155   0.532   3.202
12676WAT      O38269   1.369   1.620   8.732
12676WAT     H138270   1.408   1.531   8.708
12676WAT     H238271   1.442   1.688   8.739
12677WAT      O38272   9.132   2.716   8.993
12677WAT     H138273   9.149   2.641   9.057
12677WAT     H238274   9.078   2.788   9.038
12678WAT      O38275   5.460   4.388   5.101
12678WAT     H138276   5.478   4.438   5.185
12678WAT     H238277   5.546   4.361   5.058
12679WAT      O38278   6.547   4.026   9.701
12679WAT     H138279   6.482   4.008   9.774
12679WAT     H238280   6.640   4.010   9.734
12680WAT      O38281   3.802   7.388   8.417
12680WAT     H138282   3.835   7.451   8.347
12680WAT     H238283   3.870   7.381   8.490
12681WAT      O38284   9.294   4.097   7.678
12681WAT     H138285   9.344   4.129   7.758
12681WAT     H238286   9.203   4.065   7.706
12682WAT      O38287   9.416   0.285   0.231
12682WAT     H138288   9.431   0.351   0.304
12682WAT     H238289   9.319   0.281   0.209
12683WAT      O38290   4.755   3.954   4.345
12683WAT     H138291   4.763   3.860   4.312
12683WAT     H238292   4.846   3.990   4.367
12684WAT      O38293   0.442   9.564   9.438
12684WAT     H138294   0.518   9.609   9.391
12684WAT     H238295   0.387   9.514   9.371
12685WAT      O38296   1.820   5.764   0.155
12685WAT     H138297   1.817   5.716   0.067
12685WAT     H238298   1.902   5.822   0.158
12686WAT      O38299   0.689   1.469   3.744
12686WAT     H138300   0.695   1.468   3.645
12686WAT     H238301   0.597   1.498   3.772
12687WAT      O38302   5.661   0.174   7.288
12687WAT     H138303   5.660   0.247   7.220
12687WAT     H238304   5.568   0.142   7.304
12688WAT      O38305   7.516   5.557   2.285
12688WAT     H138306   7.532   5.607   2.370
12688WAT     H238307   7.422   5.522   2.284
12689WAT      O38308   7.956   5.250   8.764
12689WAT     H138309   8.000   5.185   8.827
12689WAT     H238310   8.005   5.338   8.768
12690WAT      O38311   7.189   9.590   4.076
12690WAT     H138312   7.140   9.636   4.002
12690WAT     H238313   7.261   9.532   4.037
12691WAT      O38314   3.681   5.160   1.064
12691WAT     H138315   3.719   5.207   1.144
12691WAT     H238316   3.755   5.125   1.007
12692WAT      O38317   8.210   7.087   1.399
12692WAT     H138318   8.208   7.087   1.299
12692WAT     H238319   8.304   7.098   1.430
12693WAT      O38320   7.061   0.884   9.378
12693WAT     H138321   7.150   0.927   9.360
12693WAT     H238322   7.061   0.791   9.341
12694WAT      O38323   9.198   1.112   8.563
12694WAT     H138324   9.142   1.187   8.528
12694WAT     H238325   9.245   1.068   8.486
12695WAT      O38326   4.437   6.796   2.598
12695WAT     H138327   4.486   6.722   2.552
12695WAT     H238328   4.466   6.799   2.694
12696WAT      O38329   0.121   0.704   3.977
12696WAT     H138330   0.120   0.606   3.996
12696WAT     H238331   0.169   0.721   3.891
12697WAT      O38332   8.270   5.183   2.849
12697WAT     H138333   8.331   5.228   2.783
12697WAT     H238334   8.324   5.133   2.916
12698WAT      O38335   0.121   8.676   0.053
12698WAT     H138336   0.155   8.721   0.136
12698WAT     H238337   0.033   8.715   0.028
12699WAT      O38338   3.631   0.273   3.443
12699WAT     H138339   3.556   0.277   3.510
12699WAT     H238340   3.683   0.358   3.448
12700WAT      O38341   0.731   9.636   6.733
12700WAT     H138342   0.777   9.562   6.684
12700WAT     H238343   0.640   9.606   6.761
12701WAT      O38344   1.539   6.569   3.555
12701WAT     H138345   1.540   6.626   3.637
12701WAT     H238346   1.615   6.596   3.495
12702WAT      O38347   5.298   7.418   3.324
12702WAT     H138348   5.398   7.425   3.332
12702WAT     H238349   5.269   7.326   3.352
12703WAT      O38350   4.919   7.594   4.863
12703WAT     H138351   4.829   7.551   4.862
12703WAT     H238352   4.910   7.693   4.862
12704WAT      O38353   4.062   1.800   9.347
12704WAT     H138354   3.977   1.765   9.308
12704WAT     H238355   4.136   1.736   9.329
12705WAT      O38356   8.441   1.781   4.174
12705WAT     H138357   8.513   1.732   4.224
12705WAT     H238358   8.472   1.875   4.154
12706WAT      O38359   1.533   6.432   5.005
12706WAT     H138360   1.435   6.409   4.997
12706WAT     H238361   1.570   6.451   4.914
12707WAT      O38362   5.164   0.232   0.543
12707WAT     H138363   5.134   0.327   0.531
12707WAT     H238364   5.142   0.202   0.635
12708WAT      O38365   9.754   6.410   4.568
12708WAT     H138366   9.725   6.372   4.656
12708WAT     H238367   9.673   6.439   4.516
12709WAT      O38368   5.212   7.281   3.859
12709WAT     H138369   5.202   7.208   3.792
12709WAT     H238370   5.122   7.317   3.883
12710WAT      O38371   3.682   3.743   7.796
12710WAT     H138372   3.706   3.647   7.810
12710WAT     H238373   3.734   3.801   7.858
12711WAT      O38374   6.297   3.488   6.065
12711WAT     H138375   6.302   3.491   5.965
12711WAT     H238376   6.381   3.525   6.104
12712WAT      O38377   3.134   8.755   5.506
12712WAT     H138378   3.179   8.777   5.593
12712WAT     H238379   3.052   8.701   5.524
12713WAT      O38380   4.833   4.919   1.123
12713WAT     H138381   4.830   4.929   1.222
12713WAT     H238382   4.766   4.850   1.094
12714WAT      O38383   7.578   3.606   9.186
12714WAT     H138384   7.518   3.527   9.169
12714WAT     H238385   7.626   3.593   9.273
12715WAT      O38386   9.264   7.764   4.878
12715WAT     H138387   9.334   7.694   4.866
12715WAT     H238388   9.174   7.722   4.872
12716WAT      O38389   1.186   9.462   9.526
12716WAT     H138390   1.225   9.373   9.551
12716WAT     H238391   1.103   9.478   9.580
12717WAT      O38392   0.950   9.290   8.873
12717WAT     H138393   0.982   9.245   8.956
12717WAT     H238394   0.868   9.244   8.839
12718WAT      O38395   3.060   9.684   1.009
12718WAT     H138396   3.031   9.753   0.943
12718WAT     H238397   3.077   9.597   0.962
12719WAT      O38398   4.845   4.762   2.903
12719WAT     H138399   4.918   4.760   2.972
12719WAT     H238400   4.881   4.801   2.818
12720WAT      O38401   4.289   3.996   1.946
12720WAT     H138402   4.340   4.082   1.954
12720WAT     H238403   4.201   4.004   1.993
12721WAT      O38404   0.841   1.713   9.838
12721WAT     H138405   0.893   1.638   9.796
12721WAT     H238406   0.748   1.682   9.858
12722WAT      O38407   2.415   3.381   6.138
12722WAT     H138408   2.478   3.404   6.064
12722WAT     H238409   2.327   3.351   6.099
12723WAT      O38410   2.285   1.621   1.533
12723WAT     H138411   2.383   1.616   1.512
12723WAT     H238412   2.236   1.661   1.456
12724WAT      O38413   3.101   9.601   2.263
12724WAT     H138414   3.080   9.522   2.320
12724WAT     H238415   3.194   9.592   2.227
12725WAT      O38416   0.072   5.875   0.215
12725WAT     H138417   0.068   5.941   0.139
12725WAT     H238418   0.060   5.783   0.179
12726WAT      O38419   7.639   7.376   5.379
12726WAT     H138420   7.585   7.409   5.301
12726WAT     H238421   7.700   7.302   5.349
12727WAT      O38422   4.764   6.514   5.397
12727WAT     H138423   4.708   6.552   5.471
12727WAT     H238424   4.813   6.588   5.350
12728WAT      O38425   0.802   5.073   9.148
12728WAT     H138426   0.789   5.084   9.246
12728WAT     H238427   0.892   5.033   9.130
12729WAT      O38428   1.806   9.380   0.348
12729WAT     H138429   1.724   9.324   0.337
12729WAT     H238430   1.886   9.321   0.355
12730WAT      O38431   4.832   6.121   6.907
12730WAT     H138432   4.879   6.055   6.848
12730WAT     H238433   4.754   6.160   6.858
12731WAT      O38434   2.611   4.023   6.263
12731WAT     H138435   2.706   4.046   6.280
12731WAT     H238436   2.559   4.025   6.349
12732WAT      O38437   0.542   4.735   6.270
12732WAT     H138438   0.491   4.821   6.275
12732WAT     H238439   0.507   4.680   6.195
12733WAT      O38440   8.499   1.111   6.756
12733WAT     H138441   8.438   1.154   6.823
12733WAT     H238442   8.591   1.105   6.794
12734WAT      O38443   2.369   6.418   0.907
12734WAT     H138444   2.389   6.383   0.816
12734WAT     H238445   2.453   6.448   0.951
12735WAT      O38446   4.241   0.456   2.837
12735WAT     H138447   4.328   0.453   2.887
12735WAT     H238448   4.197   0.545   2.853
12736WAT      O38449   5.837   6.533   9.590
12736WAT     H138450   5.921   6.585   9.575
12736WAT     H238451   5.811   6.488   9.505
12737WAT      O38452   7.575   5.101   6.329
12737WAT     H138453   7.488   5.064   6.361
12737WAT     H238454   7.566   5.128   6.233
12738WAT      O38455   5.360   8.043   5.704
12738WAT     H138456   5.280   8.022   5.648
12738WAT     H238457   5.382   7.964   5.761
12739WAT      O38458   7.208   6.838   1.524
12739WAT     H138459   7.247   6.812   1.436
12739WAT     H238460   7.160   6.925   1.516
12740WAT      O38461   7.332   3.543   0.209
12740WAT     H138462   7.244   3.583   0.184
12740WAT     H238463   7.358   3.475   0.141
12741WAT      O38464   7.803   7.617   9.230
12741WAT     H138465   7.841   7.661   9.149
12741WAT     H238466   7.723   7.563   9.204
12742WAT      O38467   0.812   5.352   7.361
12742WAT     H138468   0.755   5.285   7.314
12742WAT     H238469   0.769   5.377   7.448
12743WAT      O38470   5.581   7.233   5.144
12743WAT     H138471   5.530   7.224   5.230
12743WAT     H238472   5.657   7.297   5.157
12744WAT      O38473   6.714   4.013   4.525
12744WAT     H138474   6.790   4.056   4.476
12744WAT     H238475   6.725   4.029   4.623
12745WAT      O38476   5.481   2.719   1.270
12745WAT     H138477   5.502   2.811   1.237
12745WAT     H238478   5.441   2.724   1.361
12746WAT      O38479   8.838   6.940   7.540
12746WAT     H138480   8.936   6.925   7.531
12746WAT     H238481   8.793   6.921   7.453
12747WAT      O38482   7.153   7.083   6.976
12747WAT     H138483   7.191   6.991   6.982
12747WAT     H238484   7.170   7.121   6.884
12748WAT      O38485   5.525   8.741   5.673
12748WAT     H138486   5.429   8.762   5.694
12748WAT     H238487   5.558   8.805   5.603
12749WAT      O38488   4.323   4.476   3.771
12749WAT     H138489   4.296   4.570   3.795
12749WAT     H238490   4.400   4.448   3.828
12750WAT      O38491   3.327   5.462   5.183
12750WAT     H138492   3.260   5.421   5.122
12750WAT     H238493   3.416   5.418   5.170
12751WAT      O38494   7.512   7.645   3.632
12751WAT     H138495   7.569   7.586   3.575
12751WAT     H238496   7.568   7.718   3.671
12752WAT      O38497   8.482   1.831   1.047
12752WAT     H138498   8.420   1.808   1.122
12752WAT     H238499   8.536   1.911   1.072
12753WAT      O38500   8.849   1.464   6.039
12753WAT     H138501   8.890   1.418   6.118
12753WAT     H238502   8.770   1.517   6.069
12754WAT      O38503   7.827   7.684   6.977
12754WAT     H138504   7.873   7.609   7.025
12754WAT     H238505   7.761   7.646   6.912
12755WAT      O38506   8.509   3.370   5.910
12755WAT     H138507   8.470   3.406   5.826
12755WAT     H238508   8.466   3.282   5.931
12756WAT      O38509   5.478   9.378   7.397
12756WAT     H138510   5.400   9.431   7.366
12756WAT     H238511   5.467   9.358   7.495
12757WAT      O38512   4.342   7.189   2.659
12757WAT     H138513   4.376   7.283   2.657
12757WAT     H238514   4.373   7.140   2.578
12758WAT      O38515   3.960   6.588   5.581
12758WAT     H138516   3.922   6.573   5.489
12758WAT     H238517   3.941   6.681   5.610
12759WAT      O38518   8.573   9.044   4.699
12759WAT     H138519   8.636   8.995   4.639
12759WAT     H238520   8.481   9.007   4.688
12760WAT      O38521   7.980   4.703   7.455
12760WAT     H138522   7.924   4.776   7.493
12760WAT     H238523   7.933   4.660   7.378
12761WAT      O38524   8.309   7.761   5.060
12761WAT     H138525   8.403   7.777   5.093
12761WAT     H238526   8.248   7.753   5.139
12762WAT      O38527   3.491   4.508   5.332
12762WAT     H138528   3.499   4.468   5.240
12762WAT     H238529   3.418   4.463   5.382
12763WAT      O38530   4.624   5.826   1.924
12763WAT     H138531   4.620   5.882   2.007
12763WAT     H238532   4.532   5.800   1.896
12764WAT      O38533   4.180   1.197   5.277
12764WAT     H138534   4.167   1.099   5.261
12764WAT     H238535   4.142   1.222   5.366
12765WAT      O38536   3.759   7.832   1.873
12765WAT     H138537   3.786   7.866   1.963
12765WAT     H238538   3.749   7.909   1.810
12766WAT      O38539   8.627   8.983   4.957
12766WAT     H138540   8.594   8.993   4.863
12766WAT     H238541   8.712   9.035   4.968
12767WAT      O38542   3.465   1.585   0.204
12767WAT     H138543   3.483   1.642   0.285
12767WAT     H238544   3.469   1.642   0.122
12768WAT      O38545   5.227   6.793   4.741
12768WAT     H138546   5.303   6.735   4.769
12768WAT     H238547   5.210   6.861   4.813
12769WAT      O38548   5.171   1.550   6.887
12769WAT     H138549   5.138   1.470   6.937
12769WAT     H238550   5.178   1.627   6.950
12770WAT      O38551   9.811   7.035   8.896
12770WAT     H138552   9.886   7.026   8.830
12770WAT     H238553   9.756   6.951   8.894
12771WAT      O38554   8.164   5.738   5.080
12771WAT     H138555   8.224   5.691   5.015
12771WAT     H238556   8.078   5.688   5.087
12772WAT      O38557   5.745   6.643   3.172
12772WAT     H138558   5.804   6.660   3.093
12772WAT     H238559   5.802   6.619   3.251
12773WAT      O38560   5.240   8.098   9.106
12773WAT     H138561   5.154   8.146   9.093
12773WAT     H238562   5.299   8.149   9.169
12774WAT      O38563   5.506   7.743   3.121
12774WAT     H138564   5.446   7.789   3.055
12774WAT     H238565   5.469   7.754   3.213
12775WAT      O38566   7.796   7.485   7.327
12775WAT     H138567   7.707   7.531   7.323
12775WAT     H238568   7.802   7.432   7.411
12776WAT      O38569   1.134   7.917   7.242
12776WAT     H138570   1.076   7.854   7.190
12776WAT     H238571   1.115   7.907   7.340
12777WAT      O38572   1.876   0.182   4.620
12777WAT     H138573   1.893   0.279   4.638
12777WAT     H238574   1.951   0.145   4.564
12778WAT      O38575   6.690   5.466   5.206
12778WAT     H138576   6.729   5.375   5.187
12778WAT     H238577   6.706   5.525   5.127
12779WAT      O38578   7.463   3.151   0.155
12779WAT     H138579   7.467   3.087   0.079
12779WAT     H238580   7.548   3.204   0.159
12780WAT      O38581   4.873   7.206   0.951
12780WAT     H138582   4.855   7.297   0.989
12780WAT     H238583   4.842   7.203   0.856
12781WAT      O38584   7.705   8.017   9.284
12781WAT     H138585   7.802   7.991   9.290
12781WAT     H238586   7.654   7.972   9.357
12782WAT      O38587   2.965   5.143   9.744
12782WAT     H138588   2.880   5.121   9.698
12782WAT     H238589   2.955   5.230   9.793
12783WAT      O38590   9.725   5.325   8.624
12783WAT     H138591   9.730   5.233   8.662
12783WAT     H238592   9.787   5.385   8.673
12784WAT      O38593   1.818   9.443   4.503
12784WAT     H138594   1.732   9.467   4.548
12784WAT     H238595   1.823   9.490   4.414
12785WAT      O38596   3.656   4.096   4.741
12785WAT     H138597   3.698   4.170   4.688
12785WAT     H238598   3.641   4.017   4.681
12786WAT      O38599   1.206   8.879   5.818
12786WAT     H138600   1.154   8.964   5.823
12786WAT     H238601   1.144   8.804   5.794
12787WAT      O38602   8.255   7.298   8.294
12787WAT     H138603   8.204   7.213   8.310
12787WAT     H238604   8.338   7.299   8.349
12788WAT      O38605   0.250   6.000   2.837
12788WAT     H138606   0.312   5.939   2.787
12788WAT     H238607   0.291   6.024   2.925
12789WAT      O38608   4.774   9.798   3.684
12789WAT     H138609   4.766   9.801   3.783
12789WAT     H238610   4.770   9.891   3.647
12790WAT      O38611   4.810   4.695   8.332
12790WAT     H138612   4.894   4.672   8.382
12790WAT     H238613   4.757   4.612   8.317
12791WAT      O38614   6.152   0.572   2.957
12791WAT     H138615   6.220   0.505   2.928
12791WAT     H238616   6.064   0.526   2.973
12792WAT      O38617   7.948   8.647   4.752
12792WAT     H138618   7.871   8.710   4.738
12792WAT     H238619   7.915   8.553   4.746
12793WAT      O38620   9.755   3.801   2.161
12793WAT     H138621   9.852   3.820   2.142
12793WAT     H238622   9.714   3.880   2.205
12794WAT      O38623   0.202   2.866   8.765
12794WAT     H138624   0.230   2.786   8.711
12794WAT     H238625   0.281   2.900   8.816
12795WAT      O38626   6.183   7.807   1.224
12795WAT     H138627   6.241   7.826   1.144
12795WAT     H238628   6.154   7.893   1.265
12796WAT      O38629   7.859   0.519   5.862
12796WAT     H138630   7.805   0.491   5.783
12796WAT     H238631   7.801   0.517   5.944
12797WAT      O38632   5.075   5.085   7.513
12797WAT     H138633   5.041   5.001   7.471
12797WAT     H238634   5.165   5.107   7.474
12798WAT      O38635   2.955   1.432   5.690
12798WAT     H138636   3.051   1.408   5.696
12798WAT     H238637   2.912   1.420   5.780
12799WAT      O38638   9.213   7.234   1.842
12799WAT     H138639   9.138   7.291   1.809
12799WAT     H238640   9.190   7.197   1.932
12800WAT      O38641   1.860   3.748   2.578
12800WAT     H138642   1.843   3.699   2.493
12800WAT     H238643   1.902   3.686   2.644
12801WAT      O38644   1.403   6.473   9.810
12801WAT     H138645   1.406   6.470   9.710
12801WAT     H238646   1.467   6.543   9.843
12802WAT      O38647   7.953   2.399   2.297
12802WAT     H138648   7.987   2.413   2.390
12802WAT     H238649   7.893   2.476   2.272
12803WAT      O38650   9.571   2.239   7.283
12803WAT     H138651   9.587   2.150   7.326
12803WAT     H238652   9.657   2.276   7.249
12804WAT      O38653   4.462   7.863   0.043
12804WAT     H138654   4.403   7.888   0.120
12804WAT     H238655   4.548   7.914   0.050
12805WAT      O38656   1.294   7.320   3.759
12805WAT     H138657   1.267   7.369   3.676
12805WAT     H238658   1.388   7.345   3.783
12806WAT      O38659   7.945   2.404   8.138
12806WAT     H138660   7.899   2.440   8.057
12806WAT     H238661   7.902   2.442   8.220
12807WAT      O38662   4.812   2.925   7.867
12807WAT     H138663   4.807   2.882   7.957
12807WAT     H238664   4.901   2.904   7.825
12808WAT      O38665   2.445   7.629   3.840
12808WAT     H138666   2.397   7.568   3.903
12808WAT     H238667   2.474   7.578   3.760
12809WAT      O38668   8.044   7.731   6.695
12809WAT     H138669   8.067   7.657   6.758
12809WAT     H238670   7.973   7.789   6.736
12810WAT      O38671   9.303   4.654   8.372
12810WAT     H138672   9.322   4.568   8.419
12810WAT     H238673   9.363   4.661   8.291
12811WAT      O38674   8.514   7.181   8.434
12811WAT     H138675   8.556   7.199   8.523
12811WAT     H238676   8.526   7.261   8.375
12812WAT      O38677   8.099   2.841   7.302
12812WAT     H138678   8.132   2.831   7.396
12812WAT     H238679   8.100   2.938   7.277
12813WAT      O38680   2.658   9.723   0.402
12813WAT     H138681   2.700   9.763   0.321
12813WAT     H238682   2.726   9.671   0.453
12814WAT      O38683   3.996   2.584   7.909
12814WAT     H138684   4.041   2.594   7.821
12814WAT     H238685   3.925   2.515   7.903
12815WAT      O38686   1.591   9.187   9.746
12815WAT     H138687   1.594   9.090   9.768
12815WAT     H238688   1.683   9.226   9.753
12816WAT      O38689   8.556   7.848   7.765
12816WAT     H138690   8.512   7.881   7.849
12816WAT     H238691   8.520   7.757   7.743
12817WAT      O38692   3.580   4.625   5.585
12817WAT     H138693   3.581   4.598   5.488
12817WAT     H238694   3.537   4.714   5.594
12818WAT      O38695   2.194   0.992   1.416
12818WAT     H138696   2.228   0.911   1.463
12818WAT     H238697   2.117   1.030   1.468
12819WAT      O38698   9.689   9.611   3.472
12819WAT     H138699   9.746   9.603   3.390
12819WAT     H238700   9.747   9.629   3.552
12820WAT      O38701   2.133   8.679   6.307
12820WAT     H138702   2.128   8.632   6.219
12820WAT     H238703   2.096   8.620   6.378
12821WAT      O38704   1.737   2.831   3.471
12821WAT     H138705   1.694   2.919   3.449
12821WAT     H238706   1.667   2.761   3.480
12822WAT      O38707   6.152   0.191   9.563
12822WAT     H138708   6.153   0.104   9.513
12822WAT     H238709   6.058   0.216   9.585
12823WAT      O38710   3.869   5.941   8.980
12823WAT     H138711   3.899   5.955   9.074
12823WAT     H238712   3.923   5.999   8.919
12824WAT      O38713   8.350   4.430   2.821
12824WAT     H138714   8.290   4.415   2.743
12824WAT     H238715   8.309   4.498   2.882
12825WAT      O38716   0.079   8.438   8.676
12825WAT     H138717   0.103   8.522   8.724
12825WAT     H238718   0.116   8.360   8.725
12826WAT      O38719   7.758   6.982   2.191
12826WAT     H138720   7.793   6.890   2.209
12826WAT     H238721   7.661   6.985   2.215
12827WAT      O38722   5.329   9.319   3.145
12827WAT     H138723   5.367   9.404   3.108
12827WAT     H238724   5.365   9.242   3.093
12828WAT      O38725   1.912   5.268   9.443
12828WAT     H138726   1.968   5.296   9.365
12828WAT     H238727   1.909   5.168   9.446
12829WAT      O38728   0.658   2.839   2.608
12829WAT     H138729   0.666   2.939   2.608
12829WAT     H238730   0.615   2.809   2.524
12830WAT      O38731   9.531   1.200   9.654
12830WAT     H138732   9.619   1.228   9.693
12830WAT     H238733   9.466   1.276   9.662
12831WAT      O38734   6.182   6.406   3.105
12831WAT     H138735   6.184   6.326   3.165
12831WAT     H238736   6.106   6.398   3.041
12832WAT      O38737   1.792   4.847   8.801
12832WAT     H138738   1.818   4.789   8.723
12832WAT     H238739   1.722   4.912   8.773
12833WAT      O38740   1.752   9.006   4.196
12833WAT     H138741   1.657   9.013   4.165
12833WAT     H238742   1.792   9.098   4.200
12834WAT      O38743   5.710   7.975   0.617
12834WAT     H138744   5.756   8.053   0.575
12834WAT     H238745   5.771   7.896   0.617
12835WAT      O38746   8.779   4.504   0.186
12835WAT     H138747   8.837   4.565   0.132
12835WAT     H238748   8.710   4.557   0.235
12836WAT      O38749   5.391   9.220   1.973
12836WAT     H138750   5.310   9.277   1.992
12836WAT     H238751   5.472   9.266   2.008
12837WAT      O38752   7.764   0.854   3.622
12837WAT     H138753   7.680   0.823   3.666
12837WAT     H238754   7.824   0.895   3.691
12838WAT      O38755   2.790   5.415   2.759
12838WAT     H138756   2.729   5.336   2.765
12838WAT     H238757   2.885   5.384   2.757
12839WAT      O38758   6.592   3.687   5.496
12839WAT     H138759   6.644   3.638   5.427
12839WAT     H238760   6.579   3.628   5.576
12840WAT      O38761   3.710   0.159   0.847
12840WAT     H138762   3.757   0.208   0.773
12840WAT     H238763   3.711   0.061   0.828
12841WAT      O38764   5.030   0.124   4.875
12841WAT     H138765   5.062   0.031   4.859
12841WAT     H238766   4.980   0.128   4.961
12842WAT      O38767   2.496   4.463   6.576
12842WAT     H138768   2.406   4.490   6.542
12842WAT     H238769   2.553   4.432   6.499
12843WAT      O38770   5.042   4.445   0.885
12843WAT     H138771   4.989   4.530   0.881
12843WAT     H238772   4.980   4.367   0.893
12844WAT      O38773   1.153   1.848   1.045
12844WAT     H138774   1.193   1.935   1.017
12844WAT     H238775   1.083   1.821   0.979
12845WAT      O38776   4.740   0.662   3.914
12845WAT     H138777   4.706   0.647   3.821
12845WAT     H238778   4.668   0.637   3.979
12846WAT      O38779   2.925   3.787   6.040
12846WAT     H138780   2.898   3.838   5.959
12846WAT     H238781   2.983   3.709   6.014
12847WAT      O38782   2.430   1.848   9.250
12847WAT     H138783   2.380   1.882   9.170
12847WAT     H238784   2.480   1.923   9.292
12848WAT      O38785   1.720   2.846   7.051
12848WAT     H138786   1.807   2.811   7.086
12848WAT     H238787   1.653   2.845   7.125
12849WAT      O38788   8.687   1.776   7.964
12849WAT     H138789   8.687   1.678   7.945
12849WAT     H238790   8.660   1.792   8.059
12850WAT      O38791   5.296   6.044   6.102
12850WAT     H138792   5.271   5.951   6.072
12850WAT     H238793   5.271   6.109   6.030
12851WAT      O38794   4.712   5.943   8.445
12851WAT     H138795   4.667   5.966   8.359
12851WAT     H238796   4.684   6.009   8.516
12852WAT      O38797   1.814   9.116   9.218
12852WAT     H138798   1.715   9.126   9.226
12852WAT     H238799   1.851   9.084   9.305
12853WAT      O38800   7.394   4.251   9.248
12853WAT     H138801   7.316   4.203   9.208
12853WAT     H238802   7.475   4.193   9.245
12854WAT      O38803   0.631   7.538   8.127
12854WAT     H138804   0.646   7.590   8.042
12854WAT     H238805   0.656   7.442   8.112
12855WAT      O38806   7.471   0.528   2.137
12855WAT     H138807   7.451   0.431   2.151
12855WAT     H238808   7.552   0.538   2.079
12856WAT      O38809   4.825   2.042   3.111
12856WAT     H138810   4.809   1.997   3.023
12856WAT     H238811   4.873   1.980   3.173
12857WAT      O38812   4.961   7.396   6.459
12857WAT     H138813   4.968   7.450   6.543
12857WAT     H238814   4.950   7.457   6.380
12858WAT      O38815   1.842   5.167   5.682
12858WAT     H138816   1.863   5.248   5.736
12858WAT     H238817   1.748   5.172   5.648
12859WAT      O38818   0.910   1.839   6.910
12859WAT     H138819   0.992   1.893   6.891
12859WAT     H238820   0.931   1.768   6.978
12860WAT      O38821   3.965   2.126   0.075
12860WAT     H138822   3.889   2.100   0.016
12860WAT     H238823   4.039   2.165   0.020
12861WAT      O38824   9.027   7.340   8.930
12861WAT     H138825   8.931   7.315   8.920
12861WAT     H238826   9.060   7.310   9.019
12862WAT      O38827   0.496   3.031   6.411
12862WAT     H138828   0.516   2.941   6.449
12862WAT     H238829   0.402   3.056   6.433
12863WAT      O38830   4.039   9.413   5.483
12863WAT     H138831   4.022   9.504   5.522
12863WAT     H238832   3.979   9.399   5.404
12864WAT      O38833   6.813   2.744   0.773
12864WAT     H138834   6.907   2.738   0.741
12864WAT     H238835   6.770   2.827   0.735
12865WAT      O38836   4.741   5.297   6.564
12865WAT     H138837   4.750   5.382   6.512
12865WAT     H238838   4.715   5.223   6.502
12866WAT      O38839   2.171   2.898   3.288
12866WAT     H138840   2.225   2.964   3.340
12866WAT     H238841   2.074   2.923   3.293
12867WAT      O38842   4.300   4.645   1.299
12867WAT     H138843   4.383   4.699   1.283
12867WAT     H238844   4.241   4.650   1.218
12868WAT      O38845   0.365   2.069   9.274
12868WAT     H138846   0.357   2.096   9.369
12868WAT     H238847   0.282   2.023   9.244
12869WAT      O38848   7.839   4.124   2.642
12869WAT     H138849   7.908   4.054   2.661
12869WAT     H238850   7.844   4.151   2.546
12870WAT      O38851   2.792   6.713   6.626
12870WAT     H138852   2.840   6.747   6.545
12870WAT     H238853   2.852   6.654   6.679
12871WAT      O38854   2.275   2.127   7.242
12871WAT     H138855   2.289   2.056   7.311
12871WAT     H238856   2.218   2.091   7.168
12872WAT      O38857   1.127   9.042   3.113
12872WAT     H138858   1.059   9.103   3.072
12872WAT     H238859   1.216   9.059   3.071
12873WAT      O38860   6.456   2.990   1.733
12873WAT     H138861   6.524   3.061   1.716
12873WAT     H238862   6.403   2.975   1.649
12874WAT      O38863   5.924   7.836   1.052
12874WAT     H138864   5.914   7.737   1.043
12874WAT     H238865   5.992   7.856   1.123
12875WAT      O38866   7.870   5.645   5.915
12875WAT     H138867   7.933   5.696   5.857
12875WAT     H238868   7.919   5.570   5.960
12876WAT      O38869   1.073   4.935   6.069
12876WAT     H138870   1.058   4.928   6.168
12876WAT     H238871   1.037   4.854   6.024
12877WAT      O38872   3.379   8.379   3.978
12877WAT     H138873   3.360   8.281   3.976
12877WAT     H238874   3.302   8.427   4.022
12878WAT      O38875   9.436   6.834   7.004
12878WAT     H138876   9.398   6.773   6.935
12878WAT     H238877   9.454   6.784   7.088
12879WAT      O38878   7.147   3.348   3.370
12879WAT     H138879   7.091   3.272   3.337
12879WAT     H238880   7.241   3.335   3.339
12880WAT      O38881   6.185   1.141   4.813
12880WAT     H138882   6.257   1.077   4.841
12880WAT     H238883   6.221   1.205   4.746
12881WAT      O38884   9.032   1.186   1.708
12881WAT     H138885   9.058   1.282   1.694
12881WAT     H238886   9.101   1.141   1.765
12882WAT      O38887   0.294   8.802   7.661
12882WAT     H138888   0.206   8.833   7.625
12882WAT     H238889   0.362   8.803   7.587
12883WAT      O38890   9.809   1.212   2.692
12883WAT     H138891   9.872   1.284   2.723
12883WAT     H238892   9.735   1.254   2.638
12884WAT      O38893   7.155   5.036   3.928
12884WAT     H138894   7.244   5.018   3.970
12884WAT     H238895   7.132   5.133   3.940
12885WAT      O38896   8.852   7.348   7.368
12885WAT     H138897   8.908   7.280   7.415
12885WAT     H238898   8.880   7.354   7.273
12886WAT      O38899   5.600   1.584   8.531
12886WAT     H138900   5.664   1.548   8.599
12886WAT     H238901   5.524   1.628   8.578
12887WAT      O38902   1.294   8.081   6.056
12887WAT     H138903   1.270   8.046   6.147
12887WAT     H238904   1.319   8.005   5.997
12888WAT      O38905   5.198   1.101   6.749
12888WAT     H138906   5.215   1.160   6.670
12888WAT     H238907   5.268   1.029   6.752
12889WAT      O38908   9.302   2.108   6.564
12889WAT     H138909   9.222   2.116   6.623
12889WAT     H238910   9.273   2.119   6.468
12890WAT      O38911   2.117   0.836   5.818
12890WAT     H138912   2.130   0.773   5.741
12890WAT     H238913   2.037   0.894   5.801
12891WAT      O38914   0.437   3.301   6.854
12891WAT     H138915   0.426   3.391   6.811
12891WAT     H238916   0.471   3.236   6.786
12892WAT      O38917   7.662   7.357   7.061
12892WAT     H138918   7.585   7.304   7.097
12892WAT     H238919   7.739   7.351   7.125
12893WAT      O38920   6.662   3.093   7.070
12893WAT     H138921   6.594   3.078   7.142
12893WAT     H238922   6.626   3.159   7.003
12894WAT      O38923   2.414   8.697   2.188
12894WAT     H138924   2.486   8.641   2.229
12894WAT     H238925   2.453   8.783   2.154
12895WAT      O38926   5.584   2.352   3.604
12895WAT     H138927   5.569   2.271   3.547
12895WAT     H238928   5.547   2.432   3.557
12896WAT      O38929   4.916   3.570   3.197
12896WAT     H138930   4.872   3.573   3.107
12896WAT     H238931   4.917   3.662   3.237
12897WAT      O38932   9.720   0.228   6.120
12897WAT     H138933   9.719   0.226   6.220
12897WAT     H238934   9.704   0.136   6.084
12898WAT      O38935   8.275   0.720   4.976
12898WAT     H138936   8.197   0.781   4.958
12898WAT     H238937   8.341   0.767   5.035
12899WAT      O38938   0.445   8.062   3.324
12899WAT     H138939   0.464   8.014   3.410
12899WAT     H238940   0.530   8.079   3.275
12900WAT      O38941   2.712   8.930   6.339
12900WAT     H138942   2.639   8.879   6.385
12900WAT     H238943   2.678   9.020   6.313
12901WAT      O38944   6.093   4.359   4.399
12901WAT     H138945   6.156   4.437   4.396
12901WAT     H238946   6.110   4.300   4.319
12902WAT      O38947   7.611   4.829   7.061
12902WAT     H138948   7.690   4.838   7.001
12902WAT     H238949   7.591   4.917   7.103
12903WAT      O38950   9.456   8.449   7.338
12903WAT     H138951   9.553   8.473   7.336
12903WAT     H238952   9.442   8.363   7.289
12904WAT      O38953   7.657   3.383   0.891
12904WAT     H138954   7.664   3.453   0.820
12904WAT     H238955   7.679   3.293   0.850
12905WAT      O38956   2.991   2.255   1.853
12905WAT     H138957   2.923   2.316   1.811
12905WAT     H238958   3.056   2.310   1.906
12906WAT      O38959   1.025   8.984   6.970
12906WAT     H138960   1.022   9.058   7.037
12906WAT     H238961   1.106   8.927   6.987
12907WAT      O38962   6.776   5.604   6.249
12907WAT     H138963   6.743   5.594   6.155
12907WAT     H238964   6.853   5.541   6.263
12908WAT      O38965   3.495   1.316   9.653
12908WAT     H138966   3.454   1.226   9.668
12908WAT     H238967   3.557   1.338   9.728
12909WAT      O38968   1.506   1.878   8.241
12909WAT     H138969   1.584   1.918   8.192
12909WAT     H238970   1.489   1.786   8.207
12910WAT      O38971   9.068   6.253   4.760
12910WAT     H138972   9.149   6.309   4.744
12910WAT     H238973   9.034   6.271   4.852
12911WAT      O38974   7.284   2.856   0.551
12911WAT     H138975   7.364   2.800   0.573
12911WAT     H238976   7.307   2.920   0.478
12912WAT      O38977   8.155   6.377   8.145
12912WAT     H138978   8.061   6.343   8.145
12912WAT     H238979   8.202   6.347   8.227
12913WAT      O38980   9.692   0.468   8.478
12913WAT     H138981   9.606   0.443   8.525
12913WAT     H238982   9.681   0.454   8.380
12914WAT      O38983   1.142   6.338   2.569
12914WAT     H138984   1.239   6.317   2.576
12914WAT     H238985   1.125   6.390   2.486
12915WAT      O38986   0.768   1.687   6.114
12915WAT     H138987   0.715   1.671   6.197
12915WAT     H238988   0.824   1.606   6.094
12916WAT      O38989   5.321   5.777   3.868
12916WAT     H138990   5.301   5.710   3.940
12916WAT     H238991   5.342   5.865   3.910
12917WAT      O38992   9.717   5.242   9.477
12917WAT     H138993   9.775   5.276   9.551
12917WAT     H238994   9.723   5.143   9.473
12918WAT      O38995   3.476   2.788   1.059
12918WAT     H138996   3.424   2.704   1.047
12918WAT     H238997   3.564   2.767   1.102
12919WAT      O38998   0.373   5.222   8.716
12919WAT     H138999   0.357   5.259   8.625
12919WAT     H239000   0.402   5.126   8.709
12920WAT      O39001   7.659   4.926   6.544
12920WAT     H139002   7.618   4.842   6.510
12920WAT     H239003   7.664   4.993   6.470
12921WAT      O39004   1.046   1.509   4.140
12921WAT     H139005   1.022   1.575   4.211
12921WAT     H239006   0.964   1.459   4.111
12922WAT      O39007   3.186   6.531   0.606
12922WAT     H139008   3.168   6.629   0.596
12922WAT     H239009   3.213   6.492   0.518
12923WAT      O39010   7.889   7.271   8.989
12923WAT     H139011   7.922   7.177   8.981
12923WAT     H239012   7.794   7.270   9.020
12924WAT      O39013   1.812   2.804   9.163
12924WAT     H139014   1.802   2.716   9.115
12924WAT     H239015   1.762   2.800   9.250
12925WAT      O39016   6.380   0.098   6.799
12925WAT     H139017   6.288   0.111   6.762
12925WAT     H239018   6.380   0.020   6.862
12926WAT      O39019   8.365   2.339   5.785
12926WAT     H139020   8.318   2.395   5.853
12926WAT     H239021   8.455   2.378   5.766
12927WAT      O39022   5.569   7.639   5.294
12927WAT     H139023   5.642   7.668   5.232
12927WAT     H239024   5.492   7.603   5.242
12928WAT      O39025   9.209   7.924   9.218
12928WAT     H139026   9.151   7.852   9.255
12928WAT     H239027   9.183   7.942   9.123
12929WAT      O39028   6.920   8.374   7.766
12929WAT     H139029   6.931   8.282   7.803
12929WAT     H239030   6.912   8.439   7.841
12930WAT      O39031   4.001   3.285   3.788
12930WAT     H139032   3.999   3.315   3.883
12930WAT     H239033   4.030   3.361   3.729
12931WAT      O39034   5.812   3.844   4.084
12931WAT     H139035   5.712   3.850   4.077
12931WAT     H239036   5.839   3.749   4.101
12932WAT      O39037   3.910   1.073   0.099
12932WAT     H139038   3.887   1.000   0.162
12932WAT     H239039   3.900   1.161   0.145
12933WAT      O39040   1.740   1.891   6.958
12933WAT     H139041   1.792   1.975   6.974
12933WAT     H239042   1.661   1.888   7.020
12934WAT      O39043   7.608   3.504   9.701
12934WAT     H139044   7.622   3.602   9.714
12934WAT     H239045   7.521   3.488   9.655
12935WAT      O39046   7.290   7.479   4.298
12935WAT     H139047   7.290   7.381   4.321
12935WAT     H239048   7.204   7.502   4.253
12936WAT      O39049   8.002   7.402   4.525
12936WAT     H139050   8.081   7.440   4.574
12936WAT     H239051   7.919   7.448   4.555
12937WAT      O39052   3.623   8.300   7.436
12937WAT     H139053   3.636   8.343   7.347
12937WAT     H239054   3.648   8.203   7.430
12938WAT      O39055   1.308   0.160   4.227
12938WAT     H139056   1.213   0.128   4.229
12938WAT     H239057   1.360   0.113   4.298
12939WAT      O39058   9.154   9.617   7.776
12939WAT     H139059   9.067   9.569   7.785
12939WAT     H239060   9.139   9.704   7.728
12940WAT      O39061   0.829   9.430   4.829
12940WAT     H139062   0.764   9.485   4.881
12940WAT     H239063   0.918   9.433   4.875
12941WAT      O39064   1.749   6.512   2.165
12941WAT     H139065   1.811   6.434   2.168
12941WAT     H239066   1.681   6.503   2.239
12942WAT      O39067   8.118   5.830   8.967
12942WAT     H139068   8.177   5.869   9.037
12942WAT     H239069   8.035   5.885   8.958
12943WAT      O39070   4.278   6.899   4.360
12943WAT     H139071   4.289   6.807   4.324
12943WAT     H239072   4.182   6.916   4.382
12944WAT      O39073   3.519   9.186   0.264
12944WAT     H139074   3.559   9.203   0.354
12944WAT     H239075   3.500   9.088   0.254
12945WAT      O39076   6.268   1.041   8.878
12945WAT     H139077   6.184   1.089   8.852
12945WAT     H239078   6.254   0.993   8.965
12946WAT      O39079   6.028   1.043   8.115
12946WAT     H139080   5.935   1.055   8.081
12946WAT     H239081   6.028   1.048   8.215
12947WAT      O39082   9.198   5.950   5.163
12947WAT     H139083   9.185   5.861   5.207
12947WAT     H239084   9.294   5.961   5.137
12948WAT      O39085   0.213   7.665   6.919
12948WAT     H139086   0.253   7.577   6.944
12948WAT     H239087   0.229   7.731   6.993
12949WAT      O39088   3.264   0.205   1.818
12949WAT     H139089   3.278   0.304   1.821
12949WAT     H239090   3.267   0.168   1.910
12950WAT      O39091   6.031   8.240   9.030
12950WAT     H139092   5.984   8.193   8.955
12950WAT     H239093   6.129   8.243   9.011
12951WAT      O39094   5.312   3.589   0.338
12951WAT     H139095   5.249   3.664   0.318
12951WAT     H239096   5.279   3.537   0.416
12952WAT      O39097   5.311   3.458   6.220
12952WAT     H139098   5.232   3.477   6.278
12952WAT     H239099   5.282   3.452   6.125
12953WAT      O39100   8.149   0.403   7.142
12953WAT     H139101   8.131   0.359   7.054
12953WAT     H239102   8.062   0.416   7.191
12954WAT      O39103   2.961   5.848   6.238
12954WAT     H139104   3.061   5.844   6.249
12954WAT     H239105   2.930   5.767   6.189
12955WAT      O39106   3.507   4.831   9.117
12955WAT     H139107   3.452   4.908   9.085
12955WAT     H239108   3.451   4.772   9.174
12956WAT      O39109   0.968   6.128   8.922
12956WAT     H139110   1.055   6.084   8.900
12956WAT     H239111   0.892   6.066   8.901
12957WAT      O39112   3.463   5.762   9.519
12957WAT     H139113   3.527   5.783   9.592
12957WAT     H239114   3.374   5.803   9.539
12958WAT      O39115   8.887   8.711   9.414
12958WAT     H139116   8.878   8.805   9.381
12958WAT     H239117   8.803   8.683   9.459
12959WAT      O39118   6.730   7.805   0.155
12959WAT     H139119   6.809   7.861   0.181
12959WAT     H239120   6.650   7.834   0.207
12960WAT      O39121   8.330   1.723   5.461
12960WAT     H139122   8.261   1.795   5.467
12960WAT     H239123   8.376   1.714   5.550
12961WAT      O39124   9.163   0.109   5.960
12961WAT     H139125   9.127   0.021   5.993
12961WAT     H239126   9.092   0.178   5.968
12962WAT      O39127   9.435   4.200   5.786
12962WAT     H139128   9.378   4.118   5.783
12962WAT     H239129   9.518   4.185   5.733
12963WAT      O39130   2.963   6.687   4.623
12963WAT     H139131   2.972   6.613   4.557
12963WAT     H239132   2.976   6.775   4.576
12964WAT      O39133   8.156   2.638   3.807
12964WAT     H139134   8.196   2.700   3.873
12964WAT     H239135   8.202   2.549   3.811
12965WAT      O39136   9.285   8.976   4.698
12965WAT     H139137   9.280   8.972   4.798
12965WAT     H239138   9.362   9.034   4.671
12966WAT      O39139   3.814   0.839   0.208
12966WAT     H139140   3.718   0.847   0.233
12966WAT     H239141   3.851   0.753   0.242
12967WAT      O39142   2.389   3.451   9.138
12967WAT     H139143   2.355   3.517   9.206
12967WAT     H239144   2.413   3.365   9.184
12968WAT      O39145   4.632   2.146   3.847
12968WAT     H139146   4.557   2.212   3.848
12968WAT     H239147   4.710   2.186   3.799
12969WAT      O39148   9.626   4.365   4.844
12969WAT     H139149   9.595   4.273   4.818
12969WAT     H239150   9.719   4.360   4.880
12970WAT      O39151   0.098   5.641   0.083
12970WAT     H139152   0.197   5.625   0.078
12970WAT     H239153   0.052   5.554   0.102
12971WAT      O39154   8.114   8.883   6.598
12971WAT     H139155   8.055   8.922   6.668
12971WAT     H239156   8.151   8.956   6.540
12972WAT      O39157   4.859   5.869   7.995
12972WAT     H139158   4.927   5.814   7.947
12972WAT     H239159   4.905   5.932   8.057
12973WAT      O39160   5.546   9.821   5.110
12973WAT     H139161   5.552   9.751   5.181
12973WAT     H239162   5.491   9.788   5.034
12974WAT      O39163   8.548   7.215   4.865
12974WAT     H139164   8.496   7.226   4.950
12974WAT     H239165   8.584   7.122   4.860
12975WAT      O39166   8.795   3.742   1.920
12975WAT     H139167   8.837   3.678   1.985
12975WAT     H239168   8.697   3.724   1.914
12976WAT      O39169   1.316   5.246   9.614
12976WAT     H139170   1.324   5.155   9.655
12976WAT     H239171   1.393   5.263   9.553
12977WAT      O39172   0.111   8.267   4.268
12977WAT     H139173   0.108   8.184   4.211
12977WAT     H239174   0.188   8.324   4.239
12978WAT      O39175   9.852   5.866   3.388
12978WAT     H139176   9.861   5.961   3.418
12978WAT     H239177   9.756   5.840   3.388
12979WAT      O39178   0.066   5.326   2.523
12979WAT     H139179   0.155   5.333   2.477
12979WAT     H239180   0.058   5.236   2.566
12980WAT      O39181   7.863   4.123   9.200
12980WAT     H139182   7.926   4.049   9.221
12980WAT     H239183   7.914   4.208   9.190
12981WAT      O39184   9.637   8.334   9.209
12981WAT     H139185   9.581   8.417   9.203
12981WAT     H239186   9.603   8.266   9.144
12982WAT      O39187   3.694   5.519   1.142
12982WAT     H139188   3.638   5.464   1.080
12982WAT     H239189   3.766   5.462   1.182
12983WAT      O39190   6.128   1.538   1.258
12983WAT     H139191   6.182   1.611   1.301
12983WAT     H239192   6.117   1.463   1.322
12984WAT      O39193   4.499   4.359   8.834
12984WAT     H139194   4.548   4.368   8.921
12984WAT     H239195   4.473   4.264   8.819
12985WAT      O39196   2.392   2.767   8.919
12985WAT     H139197   2.375   2.805   8.828
12985WAT     H239198   2.307   2.764   8.971
12986WAT      O39199   0.648   9.455   0.911
12986WAT     H139200   0.565   9.483   0.959
12986WAT     H239201   0.716   9.424   0.977
12987WAT      O39202   4.347   4.166   7.149
12987WAT     H139203   4.424   4.229   7.161
12987WAT     H239204   4.306   4.181   7.059
12988WAT      O39205   6.857   2.366   7.206
12988WAT     H139206   6.855   2.377   7.306
12988WAT     H239207   6.951   2.352   7.176
12989WAT      O39208   8.932   9.773   8.116
12989WAT     H139209   9.031   9.780   8.103
12989WAT     H239210   8.893   9.865   8.121
12990WAT      O39211   3.577   0.140   4.965
12990WAT     H139212   3.609   0.105   4.877
12990WAT     H239213   3.646   0.120   5.035
12991WAT      O39214   9.796   7.987   7.604
12991WAT     H139215   9.712   8.009   7.654
12991WAT     H239216   9.859   8.065   7.608
12992WAT      O39217   2.426   3.640   6.471
12992WAT     H139218   2.446   3.653   6.374
12992WAT     H239219   2.430   3.543   6.494
12993WAT      O39220   3.665   5.408   4.885
12993WAT     H139221   3.718   5.328   4.855
12993WAT     H239222   3.597   5.431   4.816
12994WAT      O39223   1.334   4.965   5.390
12994WAT     H139224   1.324   5.003   5.481
12994WAT     H239225   1.301   5.031   5.322
12995WAT      O39226   2.891   9.617   2.615
12995WAT     H139227   2.959   9.678   2.657
12995WAT     H239228   2.836   9.669   2.550
12996WAT      O39229   6.921   3.348   7.531
12996WAT     H139230   6.822   3.333   7.529
12996WAT     H239231   6.940   3.432   7.583
12997WAT      O39232   2.047   0.289   3.969
12997WAT     H139233   2.120   0.323   4.028
12997WAT     H239234   1.968   0.349   3.975
12998WAT      O39235   8.463   0.351   5.932
12998WAT     H139236   8.561   0.336   5.917
12998WAT     H239237   8.416   0.263   5.933
12999WAT      O39238   1.766   7.914   9.783
12999WAT     H139239   1.723   7.870   9.861
12999WAT     H239240   1.848   7.962   9.813
13000WAT      O39241   3.252   6.770   5.022
13000WAT     H139242   3.219   6.837   5.088
13000WAT     H239243   3.182   6.754   4.952
13001WAT      O39244   9.087   4.003   0.122
13001WAT     H139245   9.143   4.086   0.129
13001WAT     H239246   9.054   3.994   0.028
13002WAT      O39247   0.032   7.715   4.046
13002WAT     H139248  -0.046   7.687   4.102
13002WAT     H239249   0.059   7.808   4.071
13003WAT      O39250   8.189   8.345   0.301
13003WAT     H139251   8.129   8.400   0.358
13003WAT     H239252   8.185   8.249   0.331
13004WAT      O39253   3.307   7.409   7.149
13004WAT     H139254   3.350   7.320   7.136
13004WAT     H239255   3.228   7.398   7.210
13005WAT      O39256   2.559   3.139   8.497
13005WAT     H139257   2.559   3.144   8.397
13005WAT     H239258   2.513   3.220   8.534
13006WAT      O39259   2.392   7.994   4.617
13006WAT     H139260   2.398   7.898   4.646
13006WAT     H239261   2.361   7.998   4.522
13007WAT      O39262   2.773   7.092   5.221
13007WAT     H139263   2.742   7.151   5.295
13007WAT     H239264   2.729   7.003   5.228
13008WAT      O39265   0.693   9.068   7.072
13008WAT     H139266   0.761   9.018   7.126
13008WAT     H239267   0.689   9.030   6.980
13009WAT      O39268   9.884   1.050   4.787
13009WAT     H139269   9.952   0.979   4.773
13009WAT     H239270   9.809   1.038   4.722
13010WAT      O39271   5.535   5.846   7.168
13010WAT     H139272   5.489   5.797   7.242
13010WAT     H239273   5.562   5.937   7.199
13011WAT      O39274   6.412   1.974   9.401
13011WAT     H139275   6.494   1.917   9.394
13011WAT     H239276   6.434   2.059   9.448
13012WAT      O39277   1.636   7.612   3.212
13012WAT     H139278   1.695   7.576   3.140
13012WAT     H239279   1.693   7.645   3.288
13013WAT      O39280   5.108   6.893   2.091
13013WAT     H139281   5.074   6.801   2.112
13013WAT     H239282   5.045   6.961   2.128
13014WAT      O39283   3.411   8.761   2.375
13014WAT     H139284   3.468   8.715   2.307
13014WAT     H239285   3.331   8.801   2.331
13015WAT      O39286   8.226   0.469   5.234
13015WAT     H139287   8.291   0.407   5.190
13015WAT     H239288   8.169   0.417   5.299
13016WAT      O39289   1.611   6.638   7.434
13016WAT     H139290   1.655   6.673   7.351
13016WAT     H239291   1.618   6.538   7.435
13017WAT      O39292   1.642   6.219   4.590
13017WAT     H139293   1.691   6.275   4.524
13017WAT     H239294   1.554   6.191   4.552
13018WAT      O39295   3.727   3.040   3.970
13018WAT     H139296   3.770   2.953   3.991
13018WAT     H239297   3.641   3.024   3.921
13019WAT      O39298   4.470   4.487   7.476
13019WAT     H139299   4.564   4.464   7.500
13019WAT     H239300   4.422   4.520   7.557
13020WAT      O39301   2.387   1.238   3.835
13020WAT     H139302   2.466   1.299   3.846
13020WAT     H239303   2.304   1.284   3.868
13021WAT      O39304   7.541   6.669   6.660
13021WAT     H139305   7.579   6.719   6.737
13021WAT     H239306   7.479   6.728   6.609
13022WAT      O39307   5.676   1.048   4.809
13022WAT     H139308   5.600   1.113   4.807
13022WAT     H239309   5.718   1.043   4.719
13023WAT      O39310   7.769   6.369   1.961
13023WAT     H139311   7.741   6.434   2.032
13023WAT     H239312   7.697   6.300   1.949
13024WAT      O39313   4.732   9.690   1.290
13024WAT     H139314   4.771   9.602   1.262
13024WAT     H239315   4.804   9.746   1.332
13025WAT      O39316   8.368   8.688   1.850
13025WAT     H139317   8.435   8.714   1.919
13025WAT     H239318   8.379   8.747   1.770
13026WAT      O39319   6.335   5.700   1.438
13026WAT     H139320   6.274   5.655   1.373
13026WAT     H239321   6.348   5.795   1.411
13027WAT      O39322   9.289   4.360   9.016
13027WAT     H139323   9.224   4.310   8.959
13027WAT     H239324   9.294   4.318   9.106
13028WAT      O39325   7.435   8.420   1.459
13028WAT     H139326   7.509   8.454   1.402
13028WAT     H239327   7.473   8.377   1.541
13029WAT      O39328   8.321   8.511   8.097
13029WAT     H139329   8.307   8.420   8.134
13029WAT     H239330   8.413   8.543   8.121
13030WAT      O39331   9.403   7.067   4.645
13030WAT     H139332   9.381   7.095   4.738
13030WAT     H239333   9.489   7.016   4.645
13031WAT      O39334   0.960   2.529   6.799
13031WAT     H139335   1.049   2.501   6.764
13031WAT     H239336   0.950   2.499   6.893
13032WAT      O39337   4.729   1.288   5.777
13032WAT     H139338   4.656   1.230   5.742
13032WAT     H239339   4.722   1.294   5.876
13033WAT      O39340   9.580   0.926   8.617
13033WAT     H139341   9.645   0.989   8.659
13033WAT     H239342   9.630   0.855   8.567
13034WAT      O39343   3.314   6.660   7.178
13034WAT     H139344   3.355   6.683   7.090
13034WAT     H239345   3.385   6.637   7.244
13035WAT      O39346   1.925   6.233   6.101
13035WAT     H139347   2.021   6.216   6.076
13035WAT     H239348   1.891   6.158   6.158
13036WAT      O39349   8.245   3.660   1.581
13036WAT     H139350   8.304   3.699   1.510
13036WAT     H239351   8.232   3.728   1.653
13037WAT      O39352   2.148   5.639   8.089
13037WAT     H139353   2.056   5.646   8.050
13037WAT     H239354   2.211   5.698   8.038
13038WAT      O39355   9.360   1.443   3.219
13038WAT     H139356   9.416   1.374   3.266
13038WAT     H239357   9.295   1.397   3.158
13039WAT      O39358   7.978   7.146   9.777
13039WAT     H139359   7.979   7.047   9.761
13039WAT     H239360   7.959   7.165   9.873
13040WAT      O39361   8.210   3.855   4.477
13040WAT     H139362   8.302   3.881   4.505
13040WAT     H239363   8.215   3.801   4.392
13041WAT      O39364   0.748   6.105   4.777
13041WAT     H139365   0.661   6.078   4.735
13041WAT     H239366   0.820   6.102   4.707
13042WAT      O39367   5.284   7.485   7.526
13042WAT     H139368   5.261   7.550   7.599
13042WAT     H239369   5.203   7.428   7.506
13043WAT      O39370   8.466   3.783   8.605
13043WAT     H139371   8.516   3.770   8.520
13043WAT     H239372   8.474   3.701   8.662
13044WAT      O39373   4.849   0.885   9.466
13044WAT     H139374   4.854   0.790   9.434
13044WAT     H239375   4.787   0.936   9.407
13045WAT      O39376   8.802   7.579   8.848
13045WAT     H139377   8.872   7.535   8.792
13045WAT     H239378   8.793   7.675   8.822
13046WAT      O39379   6.074   1.149   2.579
13046WAT     H139380   6.165   1.114   2.600
13046WAT     H239381   6.080   1.243   2.545
13047WAT      O39382   9.688   3.866   3.706
13047WAT     H139383   9.681   3.829   3.613
13047WAT     H239384   9.597   3.893   3.737
13048WAT      O39385   4.013   5.983   9.213
13048WAT     H139386   4.004   6.071   9.259
13048WAT     H239387   3.990   5.909   9.276
13049WAT      O39388   5.328   5.119   7.371
13049WAT     H139389   5.295   5.070   7.291
13049WAT     H239390   5.422   5.150   7.354
13050WAT      O39391   2.577   6.513   1.960
13050WAT     H139392   2.574   6.606   1.998
13050WAT     H239393   2.645   6.459   2.009
13051WAT      O39394   6.604   3.748   7.735
13051WAT     H139395   6.542   3.673   7.709
13051WAT     H239396   6.619   3.808   7.657
13052WAT      O39397   3.340   6.537   4.580
13052WAT     H139398   3.248   6.524   4.541
13052WAT     H239399   3.333   6.545   4.680
13053WAT      O39400   3.279   2.063   5.579
13053WAT     H139401   3.253   1.998   5.650
13053WAT     H239402   3.199   2.085   5.523
13054WAT      O39403   7.083   8.924   1.783
13054WAT     H139404   6.997   8.878   1.804
13054WAT     H239405   7.125   8.882   1.703
13055WAT      O39406   7.675   3.569   6.480
13055WAT     H139407   7.643   3.629   6.407
13055WAT     H239408   7.653   3.474   6.458
13056WAT      O39409   4.026   8.901   2.143
13056WAT     H139410   3.954   8.942   2.198
13056WAT     H239411   4.098   8.969   2.126
13057WAT      O39412   1.974   6.873   3.356
13057WAT     H139413   2.053   6.835   3.308
13057WAT     H239414   1.903   6.898   3.290
13058WAT      O39415   3.986   3.113   2.847
13058WAT     H139416   3.986   3.016   2.871
13058WAT     H239417   4.023   3.166   2.924
13059WAT      O39418   9.045   0.267   7.530
13059WAT     H139419   9.009   0.184   7.572
13059WAT     H239420   8.982   0.342   7.546
13060WAT      O39421   3.399   9.154   8.280
13060WAT     H139422   3.421   9.086   8.350
13060WAT     H239423   3.397   9.111   8.190
13061WAT      O39424   2.455   7.150   7.075
13061WAT     H139425   2.426   7.141   7.170
13061WAT     H239426   2.386   7.201   7.023
13062WAT      O39427   2.896   5.131   6.595
13062WAT     H139428   2.880   5.225   6.564
13062WAT     H239429   2.986   5.124   6.638
13063WAT      O39430   8.393   5.120   6.368
13063WAT     H139431   8.324   5.191   6.352
13063WAT     H239432   8.349   5.030   6.363
13064WAT      O39433   6.298   1.032   6.740
13064WAT     H139434   6.274   0.935   6.742
13064WAT     H239435   6.398   1.042   6.740
13065WAT      O39436   2.916   4.622   9.418
13065WAT     H139437   2.827   4.594   9.453
13065WAT     H239438   2.948   4.556   9.350
13066WAT      O39439   0.053   5.126   0.171
13066WAT     H139440   0.113   5.198   0.207
13066WAT     H239441  -0.024   5.169   0.124
13067WAT      O39442   8.250   0.213   3.561
13067WAT     H139443   8.168   0.155   3.560
13067WAT     H239444   8.328   0.162   3.524
13068WAT      O39445   6.191   5.605   6.807
13068WAT     H139446   6.185   5.692   6.758
13068WAT     H239447   6.106   5.589   6.857
13069WAT      O39448   6.312   2.557   2.113
13069WAT     H139449   6.348   2.505   2.035
13069WAT     H239450   6.374   2.633   2.133
13070WAT      O39451   1.791   4.469   5.194
13070WAT     H139452   1.778   4.379   5.236
13070WAT     H239453   1.816   4.536   5.264
13071WAT      O39454   1.020   5.496   1.403
13071WAT     H139455   0.931   5.449   1.397
13071WAT     H239456   1.030   5.558   1.326
13072WAT      O39457   7.099   0.958   7.644
13072WAT     H139458   7.117   0.966   7.546
13072WAT     H239459   7.173   0.906   7.688
13073WAT      O39460   5.077   0.645   3.501
13073WAT     H139461   5.088   0.594   3.416
13073WAT     H239462   5.105   0.587   3.578
13074WAT      O39463   3.072   7.972   7.764
13074WAT     H139464   3.131   7.893   7.780
13074WAT     H239465   3.000   7.948   7.699
13075WAT      O39466   3.739   8.670   5.661
13075WAT     H139467   3.712   8.750   5.607
13075WAT     H239468   3.658   8.631   5.704
13076WAT      O39469   9.121   8.486   7.318
13076WAT     H139470   9.157   8.454   7.406
13076WAT     H239471   9.139   8.417   7.248
13077WAT      O39472   2.310   6.733   6.674
13077WAT     H139473   2.401   6.696   6.690
13077WAT     H239474   2.287   6.725   6.577
13078WAT      O39475   0.633   0.341   1.560
13078WAT     H139476   0.675   0.318   1.472
13078WAT     H239477   0.654   0.435   1.584
13079WAT      O39478   2.958   1.546   2.493
13079WAT     H139479   3.046   1.499   2.496
13079WAT     H239480   2.957   1.619   2.561
13080WAT      O39481   5.247   6.378   7.196
13080WAT     H139482   5.165   6.376   7.138
13080WAT     H239483   5.329   6.385   7.138
13081WAT      O39484   9.641   2.492   0.850
13081WAT     H139485   9.560   2.453   0.893
13081WAT     H239486   9.633   2.485   0.751
13082WAT      O39487   9.676   3.482   0.313
13082WAT     H139488   9.722   3.551   0.257
13082WAT     H239489   9.580   3.475   0.285
13083WAT      O39490   9.723   9.034   5.641
13083WAT     H139491   9.690   8.949   5.601
13083WAT     H239492   9.807   9.016   5.692
13084WAT      O39493   2.395   1.179   6.587
13084WAT     H139494   2.433   1.159   6.497
13084WAT     H239495   2.320   1.244   6.577
13085WAT      O39496   5.648   9.549   1.743
13085WAT     H139497   5.701   9.570   1.660
13085WAT     H239498   5.656   9.451   1.763
13086WAT      O39499   4.627   6.919   3.028
13086WAT     H139500   4.674   6.883   3.109
13086WAT     H239501   4.564   6.991   3.056
13087WAT      O39502   3.689   8.676   1.113
13087WAT     H139503   3.788   8.680   1.132
13087WAT     H239504   3.675   8.651   1.017
13088WAT      O39505   0.728   2.734   4.321
13088WAT     H139506   0.722   2.800   4.246
13088WAT     H239507   0.669   2.655   4.301
13089WAT      O39508   4.643   7.188   9.652
13089WAT     H139509   4.640   7.226   9.744
13089WAT     H239510   4.613   7.257   9.586
13090WAT      O39511   8.802   5.591   5.829
13090WAT     H139512   8.775   5.618   5.922
13090WAT     H239513   8.745   5.639   5.762
13091WAT      O39514   1.774   9.022   2.967
13091WAT     H139515   1.725   9.109   2.972
13091WAT     H239516   1.852   9.031   2.905
13092WAT      O39517   7.554   9.089   0.285
13092WAT     H139518   7.520   9.126   0.198
13092WAT     H239519   7.502   9.130   0.360
13093WAT      O39520   7.042   6.427   1.888
13093WAT     H139521   7.094   6.510   1.866
13093WAT     H239522   7.000   6.391   1.805
13094WAT      O39523   7.176   0.669   1.028
13094WAT     H139524   7.195   0.613   1.108
13094WAT     H239525   7.085   0.646   0.993
13095WAT      O39526   0.198   4.483   2.440
13095WAT     H139527   0.236   4.398   2.476
13095WAT     H239528   0.214   4.488   2.342
13096WAT      O39529   4.939   0.991   1.096
13096WAT     H139530   4.888   0.907   1.109
13096WAT     H239531   4.924   1.052   1.174
13097WAT      O39532   2.612   1.599   2.841
13097WAT     H139533   2.622   1.696   2.819
13097WAT     H239534   2.640   1.543   2.763
13098WAT      O39535   2.712   0.191   5.216
13098WAT     H139536   2.616   0.164   5.219
13098WAT     H239537   2.770   0.111   5.201
13099WAT      O39538   2.897   0.224   2.753
13099WAT     H139539   2.922   0.301   2.812
13099WAT     H239540   2.810   0.242   2.709
13100WAT      O39541   8.729   2.172   0.048
13100WAT     H139542   8.758   2.132  -0.039
13100WAT     H239543   8.728   2.271   0.040
13101WAT      O39544   8.137   8.679   6.414
13101WAT     H139545   8.192   8.712   6.337
13101WAT     H239546   8.129   8.752   6.483
13102WAT      O39547   5.599   5.176   8.311
13102WAT     H139548   5.502   5.193   8.291
13102WAT     H239549   5.655   5.244   8.263
13103WAT      O39550   8.220   9.390   5.337
13103WAT     H139551   8.280   9.468   5.353
13103WAT     H239552   8.185   9.355   5.424
13104WAT      O39553   5.115   3.290   0.718
13104WAT     H139554   5.167   3.333   0.792
13104WAT     H239555   5.053   3.221   0.757
13105WAT      O39556   3.023   2.820   3.057
13105WAT     H139557   2.959   2.860   3.124
13105WAT     H239558   3.107   2.874   3.056
13106WAT      O39559   7.917   8.112   0.760
13106WAT     H139560   7.962   8.201   0.766
13106WAT     H239561   7.954   8.052   0.831
13107WAT      O39562   7.837   0.524   9.704
13107WAT     H139563   7.742   0.497   9.718
13107WAT     H239564   7.841   0.605   9.646
13108WAT      O39565   6.855   1.337   5.420
13108WAT     H139566   6.881   1.390   5.339
13108WAT     H239567   6.805   1.255   5.392
13109WAT      O39568   1.207   7.109   2.162
13109WAT     H139569   1.257   7.117   2.076
13109WAT     H239570   1.148   7.188   2.174
13110WAT      O39571   4.047   0.832   0.812
13110WAT     H139572   4.135   0.820   0.766
13110WAT     H239573   4.053   0.906   0.878
13111WAT      O39574   3.219   1.583   4.084
13111WAT     H139575   3.177   1.572   3.994
13111WAT     H239576   3.308   1.627   4.074
13112WAT      O39577   0.201   3.200   8.243
13112WAT     H139578   0.167   3.151   8.163
13112WAT     H239579   0.275   3.148   8.286
13113WAT      O39580   8.965   7.904   2.167
13113WAT     H139581   8.935   7.950   2.083
13113WAT     H239582   9.019   7.968   2.222
13114WAT      O39583   0.765   4.817   1.423
13114WAT     H139584   0.674   4.782   1.400
13114WAT     H239585   0.820   4.825   1.341
13115WAT      O39586   1.109   3.555   6.176
13115WAT     H139587   1.170   3.484   6.142
13115WAT     H239588   1.161   3.619   6.233
13116WAT      O39589   9.422   6.888   7.537
13116WAT     H139590   9.338   6.877   7.484
13116WAT     H239591   9.465   6.976   7.514
13117WAT      O39592   6.660   3.797   7.269
13117WAT     H139593   6.690   3.716   7.319
13117WAT     H239594   6.713   3.876   7.298
13118WAT      O39595   6.271   4.797   7.865
13118WAT     H139596   6.301   4.765   7.775
13118WAT     H239597   6.351   4.805   7.925
13119WAT      O39598   7.743   8.768   8.271
13119WAT     H139599   7.816   8.823   8.229
13119WAT     H239600   7.665   8.763   8.208
13120WAT      O39601   3.243   7.160   6.959
13120WAT     H139602   3.207   7.244   6.919
13120WAT     H239603   3.173   7.089   6.958
13121WAT      O39604   4.357   0.569   3.183
13121WAT     H139605   4.337   0.557   3.280
13121WAT     H239606   4.272   0.584   3.133
13122WAT      O39607   2.862   5.398   6.596
13122WAT     H139608   2.838   5.473   6.657
13122WAT     H239609   2.946   5.421   6.546
13123WAT      O39610   7.057   1.092   5.553
13123WAT     H139611   7.070   0.996   5.528
13123WAT     H239612   7.123   1.149   5.504
13124WAT      O39613   6.238   4.873   4.847
13124WAT     H139614   6.160   4.933   4.832
13124WAT     H239615   6.206   4.783   4.875
13125WAT      O39616   0.601   8.406   9.108
13125WAT     H139617   0.565   8.498   9.089
13125WAT     H239618   0.558   8.370   9.191
13126WAT      O39619   0.702   5.283   4.505
13126WAT     H139620   0.671   5.194   4.472
13126WAT     H239621   0.625   5.346   4.506
13127WAT      O39622   6.603   9.671   2.934
13127WAT     H139623   6.564   9.712   3.016
13127WAT     H239624   6.606   9.740   2.861
13128WAT      O39625   2.142   4.910   3.724
13128WAT     H139626   2.072   4.853   3.767
13128WAT     H239627   2.206   4.851   3.673
13129WAT      O39628   8.722   7.733   6.706
13129WAT     H139629   8.676   7.671   6.770
13129WAT     H239630   8.669   7.818   6.700
13130WAT      O39631   9.174   1.037   9.767
13130WAT     H139632   9.203   1.079   9.681
13130WAT     H239633   9.116   0.958   9.747
13131WAT      O39634   6.922   0.875   1.620
13131WAT     H139635   6.882   0.909   1.534
13131WAT     H239636   6.925   0.950   1.686
13132WAT      O39637   2.131   5.073   7.175
13132WAT     H139638   2.069   5.009   7.220
13132WAT     H239639   2.100   5.090   7.081
13133WAT      O39640   0.368   4.391   6.550
13133WAT     H139641   0.405   4.475   6.510
13133WAT     H239642   0.433   4.316   6.536
13134WAT      O39643   5.541   9.221   9.835
13134WAT     H139644   5.571   9.272   9.755
13134WAT     H239645   5.562   9.124   9.823
13135WAT      O39646   5.604   1.684   7.129
13135WAT     H139647   5.632   1.768   7.176
13135WAT     H239648   5.665   1.667   7.052
13136WAT      O39649   3.946   0.747   9.817
13136WAT     H139650   3.858   0.745   9.864
13136WAT     H239651   3.949   0.673   9.749
13137WAT      O39652   3.814   5.911   8.170
13137WAT     H139653   3.847   6.003   8.193
13137WAT     H239654   3.890   5.846   8.174
13138WAT      O39655   6.417   0.398   3.241
13138WAT     H139656   6.383   0.369   3.152
13138WAT     H239657   6.352   0.462   3.283
13139WAT      O39658   7.109   5.391   6.890
13139WAT     H139659   7.056   5.467   6.850
13139WAT     H239660   7.205   5.418   6.897
13140WAT      O39661   7.600   2.611   2.306
13140WAT     H139662   7.685   2.621   2.253
13140WAT     H239663   7.623   2.602   2.403
13141WAT      O39664   9.446   1.725   1.981
13141WAT     H139665   9.462   1.629   2.006
13141WAT     H239666   9.460   1.735   1.882
13142WAT      O39667   8.885   6.106   3.802
13142WAT     H139668   8.842   6.124   3.714
13142WAT     H239669   8.984   6.098   3.791
13143WAT      O39670   2.174   6.977   2.800
13143WAT     H139671   2.212   7.007   2.713
13143WAT     H239672   2.098   6.914   2.783
13144WAT      O39673   0.029   8.032   0.773
13144WAT     H139674   0.037   8.068   0.865
13144WAT     H239675  -0.063   8.048   0.738
13145WAT      O39676   9.026   2.141   0.081
13145WAT     H139677   9.017   2.205   0.157
13145WAT     H239678   8.935   2.114   0.049
13146WAT      O39679   5.034   0.227   8.150
13146WAT     H139680   5.079   0.282   8.080
13146WAT     H239681   4.965   0.283   8.196
13147WAT      O39682   7.288   8.241   7.453
13147WAT     H139683   7.269   8.146   7.480
13147WAT     H239684   7.203   8.293   7.454
13148WAT      O39685   1.164   2.215   6.154
13148WAT     H139686   1.247   2.266   6.131
13148WAT     H239687   1.125   2.252   6.238
13149WAT      O39688   7.069   1.224   2.382
13149WAT     H139689   7.127   1.279   2.321
13149WAT     H239690   7.086   1.251   2.476
13150WAT      O39691   5.906   1.473   4.395
13150WAT     H139692   5.887   1.558   4.346
13150WAT     H239693   5.936   1.403   4.330
13151WAT      O39694   4.180   4.897   7.656
13151WAT     H139695   4.153   4.802   7.645
13151WAT     H239696   4.178   4.921   7.753
13152WAT      O39697   3.737   1.438   1.176
13152WAT     H139698   3.718   1.435   1.078
13152WAT     H239699   3.672   1.499   1.221
13153WAT      O39700   5.632   0.671   4.274
13153WAT     H139701   5.579   0.689   4.192
13153WAT     H239702   5.726   0.649   4.249
13154WAT      O39703   0.575   4.770   2.334
13154WAT     H139704   0.501   4.827   2.369
13154WAT     H239705   0.661   4.820   2.340
13155WAT      O39706   5.123   0.133   3.124
13155WAT     H139707   5.040   0.079   3.128
13155WAT     H239708   5.186   0.104   3.197
13156WAT      O39709   5.039   1.953   9.267
13156WAT     H139710   5.082   2.043   9.275
13156WAT     H239711   4.972   1.955   9.192
13157WAT      O39712   8.306   2.972   3.187
13157WAT     H139713   8.232   2.905   3.193
13157WAT     H239714   8.359   2.957   3.104
13158WAT      O39715   3.831   6.812   5.048
13158WAT     H139716   3.827   6.803   5.148
13158WAT     H239717   3.749   6.859   5.016
13159WAT      O39718   2.095   8.210   3.897
13159WAT     H139719   2.163   8.257   3.840
13159WAT     H239720   2.005   8.248   3.880
13160WAT      O39721   8.657   0.727   2.429
13160WAT     H139722   8.745   0.773   2.438
13160WAT     H239723   8.583   0.795   2.434
13161WAT      O39724   9.190   9.050   6.416
13161WAT     H139725   9.285   9.059   6.444
13161WAT     H239726   9.175   8.960   6.375
13162WAT      O39727   9.459   7.129   7.467
13162WAT     H139728   9.374   7.162   7.425
13162WAT     H239729   9.537   7.177   7.427
13163WAT      O39730   0.881   4.384   9.036
13163WAT     H139731   0.975   4.411   9.059
13163WAT     H239732   0.856   4.303   9.089
13164WAT      O39733   2.365   8.819   5.147
13164WAT     H139734   2.429   8.756   5.191
13164WAT     H239735   2.365   8.805   5.049
13165WAT      O39736   1.242   2.115   0.934
13165WAT     H139737   1.328   2.164   0.917
13165WAT     H239738   1.207   2.080   0.847
13166WAT      O39739   7.520   4.181   5.571
13166WAT     H139740   7.467   4.099   5.551
13166WAT     H239741   7.458   4.258   5.588
13167WAT      O39742   5.344   0.629   2.384
13167WAT     H139743   5.380   0.637   2.477
13167WAT     H239744   5.419   0.615   2.320
13168WAT      O39745   9.212   7.673   2.909
13168WAT     H139746   9.305   7.682   2.945
13168WAT     H239747   9.148   7.721   2.968
13169WAT      O39748   6.297   9.254   6.985
13169WAT     H139749   6.323   9.331   7.042
13169WAT     H239750   6.348   9.256   6.900
13170WAT      O39751   6.672   4.476   5.610
13170WAT     H139752   6.688   4.378   5.621
13170WAT     H239753   6.596   4.504   5.668
13171WAT      O39754   6.995   1.156   5.913
13171WAT     H139755   6.903   1.194   5.916
13171WAT     H239756   7.049   1.191   5.990
13172WAT      O39757   2.811   0.863   0.349
13172WAT     H139758   2.721   0.821   0.344
13172WAT     H239759   2.805   0.949   0.399
13173WAT      O39760   6.166   5.055   7.811
13173WAT     H139761   6.154   5.002   7.727
13173WAT     H239762   6.139   5.000   7.890
13174WAT      O39763   8.999   5.785   1.081
13174WAT     H139764   8.983   5.832   0.994
13174WAT     H239765   8.912   5.756   1.120
13175WAT      O39766   7.863   0.204   6.512
13175WAT     H139767   7.916   0.250   6.440
13175WAT     H239768   7.790   0.151   6.469
13176WAT      O39769   6.378   4.560   3.289
13176WAT     H139770   6.361   4.474   3.241
13176WAT     H239771   6.389   4.542   3.386
13177WAT      O39772   2.482   4.569   0.835
13177WAT     H139773   2.496   4.585   0.737
13177WAT     H239774   2.392   4.604   0.862
13178WAT      O39775   6.644   4.115   2.572
13178WAT     H139776   6.637   4.173   2.653
13178WAT     H239777   6.654   4.020   2.599
13179WAT      O39778   6.270   1.366   7.227
13179WAT     H139779   6.227   1.309   7.297
13179WAT     H239780   6.263   1.462   7.253
13180WAT      O39781   7.428   7.635   7.952
13180WAT     H139782   7.346   7.671   7.996
13180WAT     H239783   7.506   7.644   8.014
13181WAT      O39784   3.418   9.264   7.628
13181WAT     H139785   3.363   9.346   7.616
13181WAT     H239786   3.502   9.287   7.678
13182WAT      O39787   1.102   0.609   1.499
13182WAT     H139788   1.054   0.555   1.430
13182WAT     H239789   1.158   0.548   1.556
13183WAT      O39790   1.392   1.872   0.413
13183WAT     H139791   1.490   1.889   0.401
13183WAT     H239792   1.379   1.786   0.463
13184WAT      O39793   6.103   0.906   8.450
13184WAT     H139794   6.138   0.873   8.538
13184WAT     H239795   6.160   0.872   8.376
13185WAT      O39796   2.014   1.028   6.942
13185WAT     H139797   2.031   1.124   6.918
13185WAT     H239798   2.022   0.971   6.861
13186WAT      O39799   0.810   7.820   3.503
13186WAT     H139800   0.762   7.907   3.500
13186WAT     H239801   0.815   7.781   3.411
13187WAT      O39802   5.156   7.697   0.687
13187WAT     H139803   5.171   7.599   0.674
13187WAT     H239804   5.150   7.717   0.785
13188WAT      O39805   4.415   8.103   2.427
13188WAT     H139806   4.509   8.127   2.451
13188WAT     H239807   4.415   8.050   2.342
13189WAT      O39808   7.258   7.171   9.583
13189WAT     H139809   7.240   7.074   9.566
13189WAT     H239810   7.223   7.196   9.674
13190WAT      O39811   7.285   2.011   8.110
13190WAT     H139812   7.371   1.992   8.157
13190WAT     H239813   7.234   1.926   8.098
13191WAT      O39814   6.745   5.223   0.066
13191WAT     H139815   6.843   5.208   0.069
13191WAT     H239816   6.698   5.137   0.046
13192WAT      O39817   0.803   3.370   0.596
13192WAT     H139818   0.749   3.360   0.680
13192WAT     H239819   0.780   3.456   0.551
13193WAT      O39820   9.068   4.040   1.361
13193WAT     H139821   9.026   3.949   1.354
13193WAT     H239822   9.028   4.101   1.293
13194WAT      O39823   7.426   2.314   2.845
13194WAT     H139824   7.402   2.256   2.923
13194WAT     H239825   7.519   2.293   2.816
13195WAT      O39826   6.360   4.385   7.617
13195WAT     H139827   6.341   4.363   7.713
13195WAT     H239828   6.449   4.430   7.609
13196WAT      O39829   2.188   9.154   8.789
13196WAT     H139830   2.218   9.062   8.761
13196WAT     H239831   2.237   9.223   8.735
13197WAT      O39832   6.662   2.013   8.499
13197WAT     H139833   6.724   1.995   8.576
13197WAT     H239834   6.620   2.103   8.511
13198WAT      O39835   5.526   3.795   5.742
13198WAT     H139836   5.487   3.885   5.724
13198WAT     H239837   5.468   3.746   5.807
13199WAT      O39838   5.748   6.471   4.713
13199WAT     H139839   5.801   6.431   4.638
13199WAT     H239840   5.758   6.414   4.795
13200WAT      O39841   3.887   7.997   9.376
13200WAT     H139842   3.944   7.997   9.458
13200WAT     H239843   3.932   8.050   9.304
13201WAT      O39844   0.052   7.373   1.067
13201WAT     H139845   0.078   7.282   1.034
13201WAT     H239846   0.100   7.392   1.152
13202WAT      O39847   7.284   5.438   2.308
13202WAT     H139848   7.239   5.503   2.369
13202WAT     H239849   7.227   5.425   2.226
13203WAT      O39850   1.336   8.406   5.824
13203WAT     H139851   1.386   8.493   5.822
13203WAT     H239852   1.380   8.343   5.887
13204WAT      O39853   3.982   3.517   4.686
13204WAT     H139854   3.961   3.472   4.599
13204WAT     H239855   4.041   3.596   4.670
13205WAT      O39856   6.505   7.108   3.614
13205WAT     H139857   6.505   7.089   3.712
13205WAT     H239858   6.553   7.194   3.596
13206WAT      O39859   6.022   5.098   0.051
13206WAT     H139860   6.006   5.047   0.135
13206WAT     H239861   5.935   5.119   0.007
13207WAT      O39862   0.908   2.798   3.229
13207WAT     H139863   0.913   2.698   3.240
13207WAT     H239864   0.987   2.840   3.274
13208WAT      O39865   4.126   6.646   1.487
13208WAT     H139866   4.133   6.666   1.389
13208WAT     H239867   4.039   6.599   1.505
13209WAT      O39868   3.841   0.512   1.003
13209WAT     H139869   3.883   0.560   1.081
13209WAT     H239870   3.905   0.511   0.926
13210WAT      O39871   4.425   8.102   6.930
13210WAT     H139872   4.522   8.087   6.950
13210WAT     H239873   4.385   8.016   6.898
13211WAT      O39874   5.782   6.982   4.491
13211WAT     H139875   5.872   7.022   4.474
13211WAT     H239876   5.712   7.052   4.481
13212WAT      O39877   5.326   3.826   4.130
13212WAT     H139878   5.383   3.779   4.063
13212WAT     H239879   5.287   3.760   4.193
13213WAT      O39880   9.097   7.842   5.476
13213WAT     H139881   9.176   7.852   5.415
13213WAT     H239882   9.036   7.921   5.464
13214WAT      O39883   6.141   1.119   6.243
13214WAT     H139884   6.221   1.082   6.290
13214WAT     H239885   6.104   1.197   6.295
13215WAT      O39886   4.344   7.628   5.843
13215WAT     H139887   4.280   7.588   5.777
13215WAT     H239888   4.299   7.701   5.893
13216WAT      O39889   6.133   4.893   9.755
13216WAT     H139890   6.035   4.886   9.739
13216WAT     H239891   6.159   4.990   9.758
13217WAT      O39892   4.397   5.062   8.696
13217WAT     H139893   4.365   5.145   8.743
13217WAT     H239894   4.319   5.010   8.663
13218WAT      O39895   6.384   1.524   2.209
13218WAT     H139896   6.331   1.451   2.252
13218WAT     H239897   6.322   1.588   2.163
13219WAT      O39898   4.186   7.372   3.329
13219WAT     H139899   4.270   7.422   3.310
13219WAT     H239900   4.136   7.418   3.403
13220WAT      O39901   3.884   7.454   9.356
13220WAT     H139902   3.817   7.414   9.293
13220WAT     H239903   3.892   7.552   9.339
13221WAT      O39904   4.141   4.054   6.848
13221WAT     H139905   4.188   4.043   6.760
13221WAT     H239906   4.058   3.998   6.849
13222WAT      O39907   6.667   3.497   5.274
13222WAT     H139908   6.661   3.405   5.312
13222WAT     H239909   6.715   3.494   5.186
13223WAT      O39910   6.436   8.455   4.510
13223WAT     H139911   6.391   8.367   4.524
13223WAT     H239912   6.371   8.520   4.471
13224WAT      O39913   1.272   3.275   7.181
13224WAT     H139914   1.272   3.372   7.156
13224WAT     H239915   1.358   3.234   7.151
13225WAT      O39916   7.112   1.806   4.176
13225WAT     H139917   7.026   1.845   4.142
13225WAT     H239918   7.092   1.733   4.242
13226WAT      O39919   1.516   6.600   2.361
13226WAT     H139920   1.430   6.566   2.320
13226WAT     H239921   1.511   6.592   2.460
13227WAT      O39922   3.550   4.344   8.080
13227WAT     H139923   3.612   4.383   8.148
13227WAT     H239924   3.531   4.248   8.104
13228WAT      O39925   4.585   5.106   2.627
13228WAT     H139926   4.552   5.151   2.544
13228WAT     H239927   4.509   5.095   2.691
13229WAT      O39928   0.667   0.590   1.658
13229WAT     H139929   0.570   0.612   1.650
13229WAT     H239930   0.684   0.548   1.747
13230WAT      O39931   6.987   7.883   0.883
13230WAT     H139932   7.075   7.927   0.866
13230WAT     H239933   6.967   7.818   0.809
13231WAT      O39934   0.088   5.110   3.316
13231WAT     H139935   0.022   5.178   3.349
13231WAT     H239936   0.118   5.053   3.393
13232WAT      O39937   1.504   9.797   0.529
13232WAT     H139938   1.460   9.866   0.587
13232WAT     H239939   1.498   9.825   0.433
13233WAT      O39940   6.625   5.843   3.395
13233WAT     H139941   6.594   5.787   3.318
13233WAT     H239942   6.579   5.932   3.391
13234WAT      O39943   8.159   0.605   0.484
13234WAT     H139944   8.083   0.656   0.525
13234WAT     H239945   8.127   0.514   0.458
13235WAT      O39946   3.524   4.223   5.631
13235WAT     H139947   3.537   4.125   5.643
13235WAT     H239948   3.484   4.241   5.541
13236WAT      O39949   8.647   1.764   1.410
13236WAT     H139950   8.570   1.804   1.459
13236WAT     H239951   8.680   1.828   1.340
13237WAT      O39952   0.174   7.991   4.078
13237WAT     H139953   0.267   8.003   4.044
13237WAT     H239954   0.109   8.019   4.007
13238WAT      O39955   7.113   0.456   3.299
13238WAT     H139956   7.126   0.416   3.390
13238WAT     H239957   7.117   0.556   3.304
13239WAT      O39958   6.286   3.162   7.360
13239WAT     H139959   6.202   3.185   7.312
13239WAT     H239960   6.267   3.151   7.457
13240WAT      O39961   3.018   1.149   1.673
13240WAT     H139962   2.959   1.137   1.753
13240WAT     H239963   3.095   1.086   1.679
13241WAT      O39964   9.091   2.663   7.745
13241WAT     H139965   9.054   2.697   7.831
13241WAT     H239966   9.065   2.725   7.671
13242WAT      O39967   1.866   7.581   3.076
13242WAT     H139968   1.913   7.668   3.088
13242WAT     H239969   1.895   7.539   2.989
13243WAT      O39970   8.518   3.974   3.635
13243WAT     H139971   8.559   4.064   3.644
13243WAT     H239972   8.532   3.940   3.542
13244WAT      O39973   0.267   0.394   5.604
13244WAT     H139974   0.237   0.486   5.580
13244WAT     H239975   0.222   0.327   5.546
13245WAT      O39976   5.161   9.435   8.617
13245WAT     H139977   5.166   9.421   8.716
13245WAT     H239978   5.222   9.509   8.590
13246WAT      O39979   4.704   9.407   4.147
13246WAT     H139980   4.803   9.404   4.138
13246WAT     H239981   4.674   9.501   4.163
13247WAT      O39982   9.538   9.342   4.144
13247WAT     H139983   9.634   9.333   4.117
13247WAT     H239984   9.530   9.409   4.217
13248WAT      O39985   4.366   7.340   2.970
13248WAT     H139986   4.335   7.251   2.937
13248WAT     H239987   4.290   7.388   3.014
13249WAT      O39988   4.317   9.830   1.002
13249WAT     H139989   4.384   9.780   1.056
13249WAT     H239990   4.236   9.773   0.986
13250WAT      O39991   4.813   0.193   1.662
13250WAT     H139992   4.823   0.264   1.732
13250WAT     H239993   4.763   0.115   1.700
13251WAT      O39994   7.111   6.494   3.910
13251WAT     H139995   7.198   6.517   3.954
13251WAT     H239996   7.042   6.477   3.980
13252WAT      O39997   9.615   1.236   0.835
13252WAT     H139998   9.545   1.224   0.766
13252WAT     H239999   9.693   1.286   0.795
13253WAT      O40000   1.495   3.672   5.512
13253WAT     H140001   1.480   3.646   5.607
13253WAT     H240002   1.590   3.701   5.500
13254WAT      O40003   9.888   4.746   0.551
13254WAT     H140004   9.794   4.720   0.572
13254WAT     H240005   9.890   4.799   0.467
13255WAT      O40006   1.261   4.147   6.563
13255WAT     H140007   1.267   4.233   6.512
13255WAT     H240008   1.206   4.161   6.645
13256WAT      O40009   7.498   3.313   9.268
13256WAT     H140010   7.452   3.225   9.281
13256WAT     H240011   7.435   3.378   9.225
13257WAT      O40012   8.066   4.603   2.672
13257WAT     H140013   8.085   4.505   2.662
13257WAT     H240014   8.098   4.652   2.591
13258WAT      O40015   1.659   5.025   7.282
13258WAT     H140016   1.719   5.104   7.271
13258WAT     H240017   1.665   4.967   7.200
13259WAT      O40018   7.830   3.377   7.617
13259WAT     H140019   7.887   3.351   7.695
13259WAT     H240020   7.843   3.475   7.598
13260WAT      O40021   7.677   5.014   2.837
13260WAT     H140022   7.742   5.004   2.761
13260WAT     H240023   7.678   5.109   2.870
13261WAT      O40024   5.220   6.603   5.320
13261WAT     H140025   5.232   6.631   5.415
13261WAT     H240026   5.202   6.682   5.262
13262WAT      O40027   3.263   3.497   0.831
13262WAT     H140028   3.243   3.442   0.913
13262WAT     H240029   3.211   3.582   0.834
13263WAT      O40030   1.733   3.773   8.096
13263WAT     H140031   1.803   3.818   8.152
13263WAT     H240032   1.769   3.686   8.063
13264WAT      O40033   0.188   4.967   9.104
13264WAT     H140034   0.133   4.906   9.046
13264WAT     H240035   0.209   5.051   9.054
13265WAT      O40036   7.285   8.668   0.007
13265WAT     H140037   7.255   8.762   0.025
13265WAT     H240038   7.384   8.662   0.018
13266WAT      O40039   1.467   0.790   5.747
13266WAT     H140040   1.382   0.774   5.797
13266WAT     H240041   1.452   0.770   5.650
13267WAT      O40042   9.403   2.839   4.750
13267WAT     H140043   9.387   2.786   4.833
13267WAT     H240044   9.363   2.930   4.760
13268WAT      O40045   5.311   0.745   4.330
13268WAT     H140046   5.388   0.719   4.272
13268WAT     H240047   5.335   0.827   4.382
13269WAT      O40048   0.796   1.841   0.964
13269WAT     H140049   0.735   1.770   0.998
13269WAT     H240050   0.850   1.806   0.887
13270WAT      O40051   1.250   3.221   9.154
13270WAT     H140052   1.283   3.165   9.229
13270WAT     H240053   1.319   3.224   9.081
13271WAT      O40054   4.039   6.381   9.181
13271WAT     H140055   4.039   6.297   9.235
13271WAT     H240056   3.946   6.400   9.149
13272WAT      O40057   6.354   1.673   7.977
13272WAT     H140058   6.263   1.644   7.947
13272WAT     H240059   6.396   1.601   8.031
13273WAT      O40060   5.165   8.321   2.031
13273WAT     H140061   5.249   8.361   1.995
13273WAT     H240062   5.177   8.299   2.127
13274WAT      O40063   7.743   3.188   5.725
13274WAT     H140064   7.651   3.217   5.750
13274WAT     H240065   7.759   3.207   5.628
13275WAT      O40066   8.949   7.191   1.078
13275WAT     H140067   8.954   7.111   1.018
13275WAT     H240068   9.034   7.197   1.131
13276WAT      O40069   4.150   5.799   9.035
13276WAT     H140070   4.127   5.892   9.063
13276WAT     H240071   4.075   5.761   8.982
13277WAT      O40072   2.056   5.048   1.489
13277WAT     H140073   2.138   5.053   1.433
13277WAT     H240074   2.051   5.128   1.549
13278WAT      O40075   0.338   5.191   9.610
13278WAT     H140076   0.283   5.253   9.555
13278WAT     H240077   0.300   5.186   9.702
13279WAT      O40078   2.721   4.852   0.520
13279WAT     H140079   2.644   4.913   0.536
13279WAT     H240080   2.729   4.833   0.422
13280WAT      O40081   5.841   3.229   4.198
13280WAT     H140082   5.851   3.150   4.258
13280WAT     H240083   5.929   3.276   4.190
13281WAT      O40084   2.593   7.601   6.400
13281WAT     H140085   2.578   7.502   6.400
13281WAT     H240086   2.584   7.636   6.493
13282WAT      O40087   7.546   8.963   2.985
13282WAT     H140088   7.590   8.920   3.064
13282WAT     H240089   7.478   9.029   3.017
13283WAT      O40090   2.030   5.074   5.518
13283WAT     H140091   1.984   5.000   5.468
13283WAT     H240092   1.962   5.138   5.553
13284WAT      O40093   2.459   3.657   6.204
13284WAT     H140094   2.547   3.693   6.171
13284WAT     H240095   2.445   3.565   6.167
13285WAT      O40096   6.536   3.533   5.743
13285WAT     H140097   6.555   3.445   5.785
13285WAT     H240098   6.442   3.560   5.763
13286WAT      O40099   1.945   7.348   5.630
13286WAT     H140100   2.000   7.321   5.551
13286WAT     H240101   1.958   7.446   5.647
13287WAT      O40102   4.088   8.613   9.396
13287WAT     H140103   4.075   8.556   9.477
13287WAT     H240104   4.024   8.586   9.325
13288WAT      O40105   2.757   0.112   9.139
13288WAT     H140106   2.723   0.186   9.196
13288WAT     H240107   2.793   0.039   9.197
13289WAT      O40108   5.050   5.113   7.827
13289WAT     H140109   4.960   5.116   7.868
13289WAT     H240110   5.041   5.103   7.728
13290WAT      O40111   3.998   7.302   2.390
13290WAT     H140112   3.900   7.306   2.374
13290WAT     H240113   4.038   7.228   2.336
13291WAT      O40114   2.975   2.233   0.439
13291WAT     H140115   2.907   2.273   0.500
13291WAT     H240116   3.066   2.265   0.465
13292WAT      O40117   8.612   0.518   1.942
13292WAT     H140118   8.680   0.523   1.869
13292WAT     H240119   8.626   0.595   2.005
13293WAT      O40120   2.868   1.350   5.108
13293WAT     H140121   2.784   1.404   5.096
13293WAT     H240122   2.881   1.291   5.028
13294WAT      O40123   6.731   2.469   1.079
13294WAT     H140124   6.814   2.420   1.051
13294WAT     H240125   6.756   2.562   1.107
13295WAT      O40126   9.275   3.105   4.736
13295WAT     H140127   9.351   3.163   4.706
13295WAT     H240128   9.225   3.073   4.656
13296WAT      O40129   9.054   7.935   7.978
13296WAT     H140130   9.028   7.987   7.896
13296WAT     H240131   9.055   7.837   7.956
13297WAT      O40132   3.710   1.369   6.137
13297WAT     H140133   3.740   1.359   6.042
13297WAT     H240134   3.748   1.295   6.192
13298WAT      O40135   9.622   7.228   8.978
13298WAT     H140136   9.583   7.212   8.887
13298WAT     H240137   9.704   7.172   8.990
13299WAT      O40138   5.108   7.762   9.528
13299WAT     H140139   5.158   7.800   9.606
13299WAT     H240140   5.128   7.665   9.519
13300WAT      O40141   3.726   4.222   2.605
13300WAT     H140142   3.709   4.302   2.548
13300WAT     H240143   3.670   4.228   2.688
13301WAT      O40144   0.787   8.145   0.546
13301WAT     H140145   0.850   8.203   0.494
13301WAT     H240146   0.693   8.164   0.517
13302WAT      O40147   3.043   0.742   2.448
13302WAT     H140148   3.099   0.708   2.373
13302WAT     H240149   3.004   0.665   2.499
13303WAT      O40150   8.824   6.883   5.479
13303WAT     H140151   8.872   6.921   5.400
13303WAT     H240152   8.876   6.900   5.562
13304WAT      O40153   3.594   3.008   8.197
13304WAT     H140154   3.499   2.980   8.181
13304WAT     H240155   3.607   3.102   8.166
13305WAT      O40156   5.329   7.161   7.208
13305WAT     H140157   5.373   7.101   7.141
13305WAT     H240158   5.375   7.250   7.210
13306WAT      O40159   3.748   0.545   6.709
13306WAT     H140160   3.702   0.568   6.623
13306WAT     H240161   3.730   0.615   6.777
13307WAT      O40162   1.184   6.187   2.148
13307WAT     H140163   1.179   6.204   2.246
13307WAT     H240164   1.095   6.203   2.107
13308WAT      O40165   9.632   3.206   1.182
13308WAT     H140166   9.563   3.278   1.187
13308WAT     H240167   9.632   3.154   1.267
13309WAT      O40168   2.678   6.758   5.906
13309WAT     H140169   2.758   6.699   5.901
13309WAT     H240170   2.600   6.707   5.943
13310WAT      O40171   7.820   6.488   4.458
13310WAT     H140172   7.783   6.408   4.506
13310WAT     H240173   7.869   6.546   4.523
13311WAT      O40174   0.616   0.857   8.911
13311WAT     H140175   0.538   0.902   8.868
13311WAT     H240176   0.626   0.765   8.874
13312WAT      O40177   4.616   2.194   3.062
13312WAT     H140178   4.706   2.153   3.078
13312WAT     H240179   4.627   2.289   3.035
13313WAT      O40180   8.666   2.471   6.040
13313WAT     H140181   8.687   2.510   5.950
13313WAT     H240182   8.594   2.402   6.030
13314WAT      O40183   8.572   3.370   7.692
13314WAT     H140184   8.579   3.288   7.637
13314WAT     H240185   8.478   3.380   7.726
13315WAT      O40186   9.743   8.492   0.147
13315WAT     H140187   9.747   8.571   0.086
13315WAT     H240188   9.700   8.518   0.233
13316WAT      O40189   3.740   7.201   0.992
13316WAT     H140190   3.660   7.142   0.994
13316WAT     H240191   3.798   7.180   1.071
13317WAT      O40192   2.899   4.674   8.096
13317WAT     H140193   2.818   4.693   8.152
13317WAT     H240194   2.979   4.716   8.138
13318WAT      O40195   2.319   8.621   8.994
13318WAT     H140196   2.270   8.578   8.918
13318WAT     H240197   2.354   8.550   9.055
13319WAT      O40198   0.541   4.178   8.585
13319WAT     H140199   0.526   4.224   8.498
13319WAT     H240200   0.620   4.219   8.631
13320WAT      O40201   6.852   8.040   7.428
13320WAT     H140202   6.929   8.069   7.372
13320WAT     H240203   6.879   8.039   7.524
13321WAT      O40204   9.540   5.357   1.327
13321WAT     H140205   9.448   5.397   1.327
13321WAT     H240206   9.533   5.257   1.333
13322WAT      O40207   6.881   9.312   5.461
13322WAT     H140208   6.838   9.399   5.438
13322WAT     H240209   6.893   9.305   5.560
13323WAT      O40210   3.880   7.506   5.240
13323WAT     H140211   3.788   7.546   5.236
13323WAT     H240212   3.881   7.433   5.309
13324WAT      O40213   3.185   9.646   0.452
13324WAT     H140214   3.094   9.648   0.494
13324WAT     H240215   3.233   9.563   0.480
13325WAT      O40216   9.769   7.968   4.190
13325WAT     H140217   9.779   7.956   4.289
13325WAT     H240218   9.716   7.891   4.153
13326WAT      O40219   5.529   9.665   4.500
13326WAT     H140220   5.583   9.665   4.416
13326WAT     H240221   5.434   9.644   4.479
13327WAT      O40222   0.133   4.041   5.891
13327WAT     H140223   0.105   4.137   5.893
13327WAT     H240224   0.225   4.034   5.852
13328WAT      O40225   4.937   1.509   8.049
13328WAT     H140226   4.927   1.430   7.988
13328WAT     H240227   4.878   1.583   8.017
13329WAT      O40228   2.412   9.435   7.668
13329WAT     H140229   2.445   9.445   7.762
13329WAT     H240230   2.488   9.408   7.609
13330WAT      O40231   6.775   5.140   0.420
13330WAT     H140232   6.807   5.233   0.401
13330WAT     H240233   6.680   5.131   0.391
13331WAT      O40234   7.997   1.072   4.239
13331WAT     H140235   7.951   1.050   4.325
13331WAT     H240236   8.059   1.149   4.253
13332WAT      O40237   8.693   2.078   8.520
13332WAT     H140238   8.624   2.148   8.503
13332WAT     H240239   8.665   2.021   8.597
13333WAT      O40240   8.495   1.028   4.040
13333WAT     H140241   8.468   0.956   3.975
13333WAT     H240242   8.471   1.117   4.002
13334WAT      O40243   9.789   1.168   8.724
13334WAT     H140244   9.740   1.249   8.757
13334WAT     H240245   9.867   1.150   8.783
13335WAT      O40246   1.504   3.483   2.718
13335WAT     H140247   1.472   3.522   2.632
13335WAT     H240248   1.425   3.449   2.770
13336WAT      O40249   1.677   9.845   3.471
13336WAT     H140250   1.705   9.829   3.565
13336WAT     H240251   1.596   9.790   3.451
13337WAT      O40252   0.604   5.108   6.153
13337WAT     H140253   0.611   5.207   6.165
13337WAT     H240254   0.684   5.064   6.194
13338WAT      O40255   6.057   2.853   6.127
13338WAT     H140256   6.033   2.761   6.157
13338WAT     H240257   6.026   2.867   6.033
13339WAT      O40258   7.794   4.163   5.525
13339WAT     H140259   7.709   4.214   5.515
13339WAT     H240260   7.822   4.161   5.621
13340WAT      O40261   5.075   3.688   6.637
13340WAT     H140262   5.039   3.668   6.728
13340WAT     H240263   5.001   3.679   6.570
13341WAT      O40264   3.099   6.461   6.115
13341WAT     H140265   3.112   6.453   6.016
13341WAT     H240266   3.093   6.557   6.140
13342WAT      O40267   3.438   5.366   4.718
13342WAT     H140268   3.404   5.448   4.671
13342WAT     H240269   3.502   5.318   4.658
13343WAT      O40270   8.792   6.204   1.508
13343WAT     H140271   8.760   6.133   1.571
13343WAT     H240272   8.714   6.245   1.462
13344WAT      O40273   0.979   0.996   1.859
13344WAT     H140274   0.916   1.067   1.826
13344WAT     H240275   0.970   0.915   1.801
13345WAT      O40276   4.290   2.062   6.674
13345WAT     H140277   4.347   2.033   6.751
13345WAT     H240278   4.200   2.018   6.681
13346WAT      O40279   8.519   2.202   4.325
13346WAT     H140280   8.561   2.250   4.402
13346WAT     H240281   8.420   2.201   4.336
13347WAT      O40282   0.065   0.456   9.482
13347WAT     H140283   0.033   0.547   9.457
13347WAT     H240284  -0.010   0.403   9.522
13348WAT      O40285   9.413   6.765   5.218
13348WAT     H140286   9.493   6.815   5.253
13348WAT     H240287   9.386   6.803   5.130
13349WAT      O40288   0.730   4.699   2.761
13349WAT     H140289   0.731   4.799   2.762
13349WAT     H240290   0.823   4.664   2.764
13350WAT      O40291   2.513   0.505   3.322
13350WAT     H140292   2.484   0.560   3.400
13350WAT     H240293   2.564   0.562   3.258
13351WAT      O40294   1.589   1.728   1.989
13351WAT     H140295   1.676   1.723   1.941
13351WAT     H240296   1.592   1.667   2.069
13352WAT      O40297   5.784   1.609   7.381
13352WAT     H140298   5.792   1.617   7.481
13352WAT     H240299   5.690   1.583   7.358
13353WAT      O40300   2.260   3.375   1.790
13353WAT     H140301   2.338   3.323   1.755
13353WAT     H240302   2.278   3.406   1.883
13354WAT      O40303   2.069   0.404   7.571
13354WAT     H140304   2.011   0.469   7.523
13354WAT     H240305   2.164   0.436   7.569
13355WAT      O40306   8.664   2.052   1.247
13355WAT     H140307   8.715   2.009   1.172
13355WAT     H240308   8.574   2.078   1.214
13356WAT      O40309   8.329   1.154   8.977
13356WAT     H140310   8.407   1.214   8.991
13356WAT     H240311   8.263   1.198   8.915
13357WAT      O40312   7.103   2.289   3.592
13357WAT     H140313   7.169   2.233   3.643
13357WAT     H240314   7.029   2.230   3.558
13358WAT      O40315   9.533   6.970   2.648
13358WAT     H140316   9.517   7.007   2.740
13358WAT     H240317   9.459   7.000   2.587
13359WAT      O40318   2.713   6.045   8.297
13359WAT     H140319   2.626   5.996   8.291
13359WAT     H240320   2.782   5.998   8.241
13360WAT      O40321   6.068   6.791   7.619
13360WAT     H140322   6.068   6.718   7.687
13360WAT     H240323   5.977   6.800   7.580
13361WAT      O40324   8.226   3.363   9.124
13361WAT     H140325   8.208   3.420   9.204
13361WAT     H240326   8.159   3.384   9.052
13362WAT      O40327   3.906   7.399   1.992
13362WAT     H140328   3.869   7.328   1.932
13362WAT     H240329   3.915   7.484   1.941
13363WAT      O40330   0.142   9.339   6.665
13363WAT     H140331   0.074   9.410   6.683
13363WAT     H240332   0.097   9.250   6.656
13364WAT      O40333   4.539   0.804   9.468
13364WAT     H140334   4.505   0.869   9.400
13364WAT     H240335   4.575   0.723   9.422
13365WAT      O40336   1.714   7.184   8.902
13365WAT     H140337   1.699   7.102   8.847
13365WAT     H240338   1.795   7.232   8.868
13366WAT      O40339   7.705   5.849   6.141
13366WAT     H140340   7.765   5.916   6.097
13366WAT     H240341   7.712   5.762   6.093
13367WAT      O40342   6.690   4.986   3.125
13367WAT     H140343   6.638   4.916   3.174
13367WAT     H240344   6.772   5.010   3.177
13368WAT      O40345   8.075   8.436   1.041
13368WAT     H140346   8.048   8.409   0.948
13368WAT     H240347   7.995   8.466   1.092
13369WAT      O40348   3.572   7.684   2.368
13369WAT     H140349   3.542   7.728   2.283
13369WAT     H240350   3.586   7.587   2.351
13370WAT      O40351   4.553   1.361   2.286
13370WAT     H140352   4.486   1.339   2.357
13370WAT     H240353   4.645   1.344   2.320
13371WAT      O40354   0.863   4.812   1.687
13371WAT     H140355   0.819   4.803   1.598
13371WAT     H240356   0.831   4.741   1.749
13372WAT      O40357   4.937   1.654   9.000
13372WAT     H140358   4.981   1.570   8.970
13372WAT     H240359   4.871   1.633   9.072
13373WAT      O40360   3.884   2.548   9.722
13373WAT     H140361   3.935   2.629   9.690
13373WAT     H240362   3.938   2.466   9.704
13374WAT      O40363   8.005   2.625   7.883
13374WAT     H140364   7.972   2.532   7.869
13374WAT     H240365   7.930   2.682   7.917
13375WAT      O40366   1.909   8.655   0.961
13375WAT     H140367   1.820   8.622   0.994
13375WAT     H240368   1.937   8.601   0.882
13376WAT      O40369   2.830   6.625   7.712
13376WAT     H140370   2.781   6.689   7.653
13376WAT     H240371   2.861   6.672   7.794
13377WAT      O40372   5.755   6.579   4.176
13377WAT     H140373   5.763   6.620   4.267
13377WAT     H240374   5.730   6.483   4.184
13378WAT      O40375   7.516   8.672   6.005
13378WAT     H140376   7.515   8.581   5.964
13378WAT     H240377   7.421   8.702   6.022
13379WAT      O40378   1.307   5.517   5.202
13379WAT     H140379   1.402   5.501   5.228
13379WAT     H240380   1.303   5.547   5.106
13380WAT      O40381   3.003   7.000   6.170
13380WAT     H140382   2.989   6.918   6.226
13380WAT     H240383   3.084   7.049   6.203
13381WAT      O40384   7.048   7.411   3.712
13381WAT     H140385   6.984   7.362   3.653
13381WAT     H240386   7.053   7.507   3.684
13382WAT      O40387   3.375   2.015   4.113
13382WAT     H140388   3.276   2.022   4.101
13382WAT     H240389   3.401   2.051   4.202
13383WAT      O40390   9.376   2.577   2.300
13383WAT     H140391   9.375   2.477   2.290
13383WAT     H240392   9.469   2.611   2.289
13384WAT      O40393   1.726   0.433   1.853
13384WAT     H140394   1.714   0.520   1.901
13384WAT     H240395   1.649   0.373   1.874
13385WAT      O40396   5.286   0.306   5.001
13385WAT     H140397   5.380   0.341   5.005
13385WAT     H240398   5.267   0.274   4.908
13386WAT      O40399   8.407   8.727   0.167
13386WAT     H140400   8.479   8.728   0.236
13386WAT     H240401   8.434   8.784   0.089
13387WAT      O40402   9.121   8.814   6.339
13387WAT     H140403   9.099   8.747   6.409
13387WAT     H240404   9.067   8.795   6.257
13388WAT      O40405   5.850   8.643   8.553
13388WAT     H140406   5.941   8.670   8.521
13388WAT     H240407   5.849   8.639   8.653
13389WAT      O40408   0.564   5.501   7.097
13389WAT     H140409   0.554   5.566   7.173
13389WAT     H240410   0.660   5.479   7.085
13390WAT      O40411   9.355   9.330   3.719
13390WAT     H140412   9.266   9.310   3.678
13390WAT     H240413   9.343   9.365   3.812
13391WAT      O40414   2.502   1.016   0.402
13391WAT     H140415   2.523   0.923   0.433
13391WAT     H240416   2.439   1.059   0.466
13392WAT      O40417   4.959   6.823   1.382
13392WAT     H140418   5.052   6.808   1.416
13392WAT     H240419   4.894   6.782   1.446
13393WAT      O40420   9.071   0.241   7.259
13393WAT     H140421   9.070   0.265   7.356
13393WAT     H240422   9.160   0.262   7.220
13394WAT      O40423   5.489   1.146   3.458
13394WAT     H140424   5.489   1.048   3.477
13394WAT     H240425   5.402   1.172   3.416
13395WAT      O40426   3.251   4.532   7.200
13395WAT     H140427   3.191   4.454   7.183
13395WAT     H240428   3.224   4.608   7.141
13396WAT      O40429   5.561   9.085   4.949
13396WAT     H140430   5.473   9.080   4.996
13396WAT     H240431   5.562   9.019   4.874
13397WAT      O40432   3.547   4.439   0.091
13397WAT     H140433   3.602   4.360   0.119
13397WAT     H240434   3.502   4.419   0.004
13398WAT      O40435   5.687   0.901   0.248
13398WAT     H140436   5.768   0.917   0.192
13398WAT     H240437   5.694   0.812   0.292
13399WAT      O40438   5.288   8.419   7.403
13399WAT     H140439   5.297   8.332   7.354
13399WAT     H240440   5.197   8.425   7.443
13400WAT      O40441   2.206   3.508   6.734
13400WAT     H140442   2.122   3.478   6.687
13400WAT     H240443   2.186   3.521   6.831
13401WAT      O40444   9.591   5.609   6.390
13401WAT     H140445   9.658   5.657   6.333
13401WAT     H240446   9.630   5.523   6.423
13402WAT      O40447   4.521   9.123   5.889
13402WAT     H140448   4.557   9.169   5.970
13402WAT     H240449   4.448   9.178   5.848
13403WAT      O40450   0.851   7.131   3.762
13403WAT     H140451   0.907   7.171   3.835
13403WAT     H240452   0.811   7.204   3.708
13404WAT      O40453   3.331   2.389   0.256
13404WAT     H140454   3.309   2.358   0.349
13404WAT     H240455   3.430   2.398   0.247
13405WAT      O40456   9.136   4.503   6.956
13405WAT     H140457   9.131   4.587   7.009
13405WAT     H240458   9.166   4.523   6.863
13406WAT      O40459   3.646   8.963   7.381
13406WAT     H140460   3.628   8.929   7.473
13406WAT     H240461   3.636   8.888   7.315
13407WAT      O40462   6.913   4.249   5.667
13407WAT     H140463   7.006   4.212   5.663
13407WAT     H240464   6.904   4.306   5.749
13408WAT      O40465   1.235   1.122   9.577
13408WAT     H140466   1.308   1.056   9.561
13408WAT     H240467   1.206   1.163   9.490
13409WAT      O40468   4.904   4.814   2.652
13409WAT     H140469   4.819   4.865   2.637
13409WAT     H240470   4.930   4.767   2.568
13410WAT      O40471   7.948   2.395   4.903
13410WAT     H140472   7.967   2.373   4.999
13410WAT     H240473   7.947   2.310   4.849
13411WAT      O40474   6.021   1.960   9.328
13411WAT     H140475   6.047   2.011   9.410
13411WAT     H240476   6.062   1.869   9.332
13412WAT      O40477   1.407   9.444   8.816
13412WAT     H140478   1.335   9.395   8.864
13412WAT     H240479   1.463   9.495   8.881
13413WAT      O40480   0.651   4.688   9.211
13413WAT     H140481   0.696   4.694   9.122
13413WAT     H240482   0.714   4.717   9.283
13414WAT      O40483   8.432   6.693   7.988
13414WAT     H140484   8.425   6.606   7.940
13414WAT     H240485   8.455   6.766   7.924
13415WAT      O40486   8.510   6.484   7.302
13415WAT     H140487   8.608   6.470   7.290
13415WAT     H240488   8.485   6.577   7.277
13416WAT      O40489   3.873   7.987   6.126
13416WAT     H140490   3.781   7.999   6.164
13416WAT     H240491   3.921   8.075   6.129
13417WAT      O40492   9.547   5.973   0.037
13417WAT     H140493   9.496   5.951  -0.046
13417WAT     H240494   9.573   5.888   0.083
13418WAT      O40495   7.975   1.538   5.951
13418WAT     H140496   7.888   1.577   5.982
13418WAT     H240497   8.004   1.583   5.867
13419WAT      O40498   9.292   5.046   2.843
13419WAT     H140499   9.237   4.963   2.847
13419WAT     H240500   9.389   5.023   2.844
13420WAT      O40501   3.491   1.678   3.556
13420WAT     H140502   3.470   1.639   3.646
13420WAT     H240503   3.471   1.611   3.485
13421WAT      O40504   6.873   1.406   1.213
13421WAT     H140505   6.846   1.453   1.129
13421WAT     H240506   6.972   1.391   1.212
13422WAT      O40507   3.481   4.751   3.256
13422WAT     H140508   3.456   4.819   3.187
13422WAT     H240509   3.504   4.665   3.211
13423WAT      O40510   7.358   1.441   1.010
13423WAT     H140511   7.378   1.349   1.042
13423WAT     H240512   7.434   1.474   0.953
13424WAT      O40513   8.135   5.278   9.013
13424WAT     H140514   8.225   5.236   9.000
13424WAT     H240515   8.145   5.376   9.028
13425WAT      O40516   5.810   8.956   1.918
13425WAT     H140517   5.828   8.877   1.859
13425WAT     H240518   5.853   9.037   1.878
13426WAT      O40519   2.618   7.445   5.413
13426WAT     H140520   2.615   7.482   5.505
13426WAT     H240521   2.560   7.499   5.353
13427WAT      O40522   1.451   5.729   7.429
13427WAT     H140523   1.525   5.678   7.385
13427WAT     H240524   1.461   5.827   7.410
13428WAT      O40525   8.846   4.251   7.727
13428WAT     H140526   8.767   4.230   7.670
13428WAT     H240527   8.819   4.312   7.802
13429WAT      O40528   4.343   3.353   2.785
13429WAT     H140529   4.255   3.343   2.738
13429WAT     H240530   4.362   3.270   2.838
13430WAT      O40531   1.731   9.697   2.834
13430WAT     H140532   1.638   9.727   2.812
13430WAT     H240533   1.795   9.772   2.818
13431WAT      O40534   2.024   4.960   2.707
13431WAT     H140535   2.008   5.000   2.798
13431WAT     H240536   1.939   4.964   2.654
13432WAT      O40537   2.398   8.260   3.587
13432WAT     H140538   2.332   8.186   3.602
13432WAT     H240539   2.474   8.249   3.651
13433WAT      O40540   1.411   3.305   4.937
13433WAT     H140541   1.416   3.312   5.037
13433WAT     H240542   1.354   3.379   4.901
13434WAT      O40543   2.151   1.365   5.047
13434WAT     H140544   2.073   1.355   4.984
13434WAT     H240545   2.151   1.289   5.112
13435WAT      O40546   8.269   6.971   7.568
13435WAT     H140547   8.232   7.020   7.647
13435WAT     H240548   8.369   6.974   7.571
13436WAT      O40549   5.803   9.691   6.170
13436WAT     H140550   5.869   9.749   6.218
13436WAT     H240551   5.754   9.634   6.235
13437WAT      O40552   6.791   3.651   2.566
13437WAT     H140553   6.773   3.564   2.613
13437WAT     H240554   6.732   3.722   2.603
13438WAT      O40555   9.118   7.598   3.321
13438WAT     H140556   9.079   7.686   3.294
13438WAT     H240557   9.151   7.550   3.240
13439WAT      O40558   2.088   4.917   4.549
13439WAT     H140559   2.058   4.829   4.512
13439WAT     H240560   2.091   4.985   4.475
13440WAT      O40561   1.995   4.823   0.224
13440WAT     H140562   2.010   4.733   0.183
13440WAT     H240563   1.986   4.813   0.324
13441WAT      O40564   9.425   5.400   7.687
13441WAT     H140565   9.410   5.446   7.600
13441WAT     H240566   9.342   5.403   7.742
13442WAT      O40567   8.883   2.678   4.584
13442WAT     H140568   8.922   2.770   4.579
13442WAT     H240569   8.956   2.610   4.584
13443WAT      O40570   8.557   3.648   2.629
13443WAT     H140571   8.464   3.678   2.610
13443WAT     H240572   8.565   3.622   2.726
13444WAT      O40573   7.444   4.664   8.645
13444WAT     H140574   7.517   4.608   8.606
13444WAT     H240575   7.443   4.753   8.600
13445WAT      O40576   4.190   7.747   5.330
13445WAT     H140577   4.121   7.771   5.398
13445WAT     H240578   4.147   7.740   5.240
13446WAT      O40579   7.015   6.632   6.782
13446WAT     H140580   7.016   6.657   6.879
13446WAT     H240581   7.049   6.539   6.771
13447WAT      O40582   6.686   5.958   9.170
13447WAT     H140583   6.599   5.994   9.139
13447WAT     H240584   6.735   6.028   9.221
13448WAT      O40585   3.596   0.414   0.899
13448WAT     H140586   3.681   0.432   0.949
13448WAT     H240587   3.571   0.318   0.911
13449WAT      O40588   1.862   9.778   1.100
13449WAT     H140589   1.877   9.683   1.126
13449WAT     H240590   1.764   9.797   1.099
13450WAT      O40591   5.597   6.506   7.265
13450WAT     H140592   5.662   6.580   7.281
13450WAT     H240593   5.601   6.441   7.341
13451WAT      O40594   9.796   2.701   1.948
13451WAT     H140595   9.895   2.685   1.952
13451WAT     H240596   9.758   2.693   2.040
13452WAT      O40597   1.521   3.123   7.202
13452WAT     H140598   1.599   3.062   7.215
13452WAT     H240599   1.554   3.217   7.195
13453WAT      O40600   9.591   1.714   5.993
13453WAT     H140601   9.501   1.702   5.952
13453WAT     H240602   9.599   1.655   6.073
13454WAT      O40603   2.634   5.903   0.342
13454WAT     H140604   2.640   5.999   0.369
13454WAT     H240605   2.586   5.895   0.255
13455WAT      O40606   5.710   2.080   7.096
13455WAT     H140607   5.692   2.043   7.187
13455WAT     H240608   5.676   2.174   7.091
13456WAT      O40609   3.247   7.802   5.807
13456WAT     H140610   3.296   7.875   5.759
13456WAT     H240611   3.250   7.719   5.751
13457WAT      O40612   4.527   0.279   9.640
13457WAT     H140613   4.496   0.313   9.728
13457WAT     H240614   4.487   0.334   9.566
13458WAT      O40615   2.025   7.549   9.561
13458WAT     H140616   1.965   7.579   9.487
13458WAT     H240617   1.978   7.479   9.615
13459WAT      O40618   3.839   8.439   0.443
13459WAT     H140619   3.829   8.387   0.528
13459WAT     H240620   3.886   8.384   0.375
13460WAT      O40621   7.958   9.137   2.316
13460WAT     H140622   8.026   9.160   2.385
13460WAT     H240623   7.898   9.215   2.300
13461WAT      O40624   5.997   5.666   5.158
13461WAT     H140625   6.042   5.667   5.248
13461WAT     H240626   5.988   5.760   5.125
13462WAT      O40627   3.236   9.781   8.184
13462WAT     H140628   3.166   9.852   8.186
13462WAT     H240629   3.227   9.723   8.265
13463WAT      O40630   0.154   5.479   7.413
13463WAT     H140631   0.115   5.488   7.504
13463WAT     H240632   0.222   5.406   7.413
13464WAT      O40633   9.286   0.591   4.943
13464WAT     H140634   9.359   0.523   4.950
13464WAT     H240635   9.200   0.550   4.970
13465WAT      O40636   3.192   6.227   2.063
13465WAT     H140637   3.167   6.243   2.159
13465WAT     H240638   3.222   6.313   2.021
13466WAT      O40639   4.438   9.289   0.474
13466WAT     H140640   4.524   9.340   0.473
13466WAT     H240641   4.380   9.320   0.398
13467WAT      O40642   5.053   2.672   3.946
13467WAT     H140643   5.080   2.752   3.999
13467WAT     H240644   5.028   2.598   4.007
13468WAT      O40645   4.057   2.357   9.628
13468WAT     H140646   4.144   2.369   9.581
13468WAT     H240647   4.003   2.287   9.581
13469WAT      O40648   0.356   1.299   7.492
13469WAT     H140649   0.288   1.292   7.565
13469WAT     H240650   0.448   1.296   7.530
13470WAT      O40651   3.482   0.158   4.519
13470WAT     H140652   3.439   0.213   4.447
13470WAT     H240653   3.454   0.063   4.509
13471WAT      O40654   1.887   1.413   7.119
13471WAT     H140655   1.854   1.366   7.200
13471WAT     H240656   1.979   1.449   7.135
13472WAT      O40657   9.236   0.510   5.776
13472WAT     H140658   9.336   0.510   5.782
13472WAT     H240659   9.199   0.443   5.840
13473WAT      O40660   1.292   3.517   7.063
13473WAT     H140661   1.351   3.594   7.040
13473WAT     H240662   1.210   3.550   7.111
13474WAT      O40663   9.052   1.239   0.717
13474WAT     H140664   9.018   1.165   0.659
13474WAT     H240665   8.976   1.297   0.746
13475WAT      O40666   3.404   3.583   2.183
13475WAT     H140667   3.396   3.617   2.277
13475WAT     H240668   3.345   3.636   2.123
13476WAT      O40669   5.758   9.509   3.368
13476WAT     H140670   5.678   9.519   3.428
13476WAT     H240671   5.760   9.416   3.331
13477WAT      O40672   6.499   0.618   6.397
13477WAT     H140673   6.590   0.659   6.402
13477WAT     H240674   6.430   0.685   6.425
13478WAT      O40675   7.769   4.259   2.364
13478WAT     H140676   7.674   4.249   2.393
13478WAT     H240677   7.785   4.352   2.331
13479WAT      O40678   6.751   9.305   7.254
13479WAT     H140679   6.847   9.286   7.236
13479WAT     H240680   6.714   9.362   7.180
13480WAT      O40681   6.828   0.579   4.987
13480WAT     H140682   6.867   0.508   5.047
13480WAT     H240683   6.797   0.537   4.902
13481WAT      O40684   2.311   1.529   6.666
13481WAT     H140685   2.315   1.532   6.566
13481WAT     H240686   2.403   1.515   6.703
13482WAT      O40687   8.597   1.906   3.452
13482WAT     H140688   8.545   1.991   3.464
13482WAT     H240689   8.691   1.928   3.428
13483WAT      O40690   6.698   2.671   7.912
13483WAT     H140691   6.676   2.611   7.989
13483WAT     H240692   6.672   2.765   7.935
13484WAT      O40693   5.636   8.102   7.790
13484WAT     H140694   5.612   8.139   7.880
13484WAT     H240695   5.574   8.138   7.721
13485WAT      O40696   7.937   8.918   6.807
13485WAT     H140697   7.853   8.902   6.756
13485WAT     H240698   7.916   8.929   6.905
13486WAT      O40699   3.191   2.108   0.937
13486WAT     H140700   3.161   2.045   0.865
13486WAT     H240701   3.142   2.086   1.022
13487WAT      O40702   3.433   5.513   4.194
13487WAT     H140703   3.465   5.599   4.234
13487WAT     H240704   3.335   5.518   4.178
13488WAT      O40705   7.307   2.361   9.781
13488WAT     H140706   7.300   2.335   9.684
13488WAT     H240707   7.362   2.294   9.830
13489WAT      O40708   2.914   3.684   8.259
13489WAT     H140709   2.920   3.737   8.344
13489WAT     H240710   2.892   3.589   8.281
13490WAT      O40711   4.408   2.795   6.297
13490WAT     H140712   4.446   2.818   6.208
13490WAT     H240713   4.463   2.723   6.340
13491WAT      O40714   4.015   8.977   6.425
13491WAT     H140715   4.070   9.045   6.376
13491WAT     H240716   3.935   8.953   6.370
13492WAT      O40717   5.598   7.600   8.749
13492WAT     H140718   5.556   7.525   8.697
13492WAT     H240719   5.696   7.583   8.759
13493WAT      O40720   6.687   8.837   3.844
13493WAT     H140721   6.594   8.853   3.809
13493WAT     H240722   6.719   8.747   3.815
13494WAT      O40723   6.500   6.752   1.570
13494WAT     H140724   6.538   6.667   1.534
13494WAT     H240725   6.481   6.742   1.668
13495WAT      O40726   3.863   0.124   3.077
13495WAT     H140727   3.921   0.094   3.002
13495WAT     H240728   3.852   0.050   3.143
13496WAT      O40729   5.833   7.941   1.716
13496WAT     H140730   5.869   7.848   1.712
13496WAT     H240731   5.757   7.951   1.651
13497WAT      O40732   1.214   4.420   9.611
13497WAT     H140733   1.254   4.379   9.694
13497WAT     H240734   1.286   4.462   9.556
13498WAT      O40735   5.523   9.706   2.417
13498WAT     H140736   5.561   9.793   2.386
13498WAT     H240737   5.489   9.654   2.338
13499WAT      O40738   7.473   1.428   6.509
13499WAT     H140739   7.557   1.481   6.497
13499WAT     H240740   7.441   1.437   6.603
13500WAT      O40741   5.334   6.383   9.676
13500WAT     H140742   5.293   6.294   9.695
13500WAT     H240743   5.388   6.377   9.592
13501WAT      O40744   9.418   8.474   9.633
13501WAT     H140745   9.445   8.501   9.541
13501WAT     H240746   9.497   8.480   9.694
13502WAT      O40747   7.709   6.939   0.697
13502WAT     H140748   7.791   6.980   0.736
13502WAT     H240749   7.721   6.926   0.598
13503WAT      O40750   0.109   4.439   1.915
13503WAT     H140751   0.128   4.351   1.871
13503WAT     H240752   0.024   4.477   1.878
13504WAT      O40753   7.247   7.406   1.015
13504WAT     H140754   7.189   7.472   1.063
13504WAT     H240755   7.340   7.411   1.051
13505WAT      O40756   0.284   0.091   6.246
13505WAT     H140757   0.376   0.130   6.244
13505WAT     H240758   0.262   0.064   6.340
13506WAT      O40759   5.328   8.854   3.759
13506WAT     H140760   5.242   8.905   3.757
13506WAT     H240761   5.403   8.917   3.781
13507WAT      O40762   2.656   4.486   6.789
13507WAT     H140763   2.595   4.462   6.714
13507WAT     H240764   2.602   4.524   6.865
13508WAT      O40765   0.809   7.458   9.079
13508WAT     H140766   0.843   7.404   9.155
13508WAT     H240767   0.709   7.453   9.076
13509WAT      O40768   1.472   8.904   1.830
13509WAT     H140769   1.488   8.947   1.919
13509WAT     H240770   1.545   8.929   1.767
13510WAT      O40771   7.018   1.396   4.000
13510WAT     H140772   7.097   1.436   4.047
13510WAT     H240773   7.015   1.429   3.906
13511WAT      O40774   9.384   8.499   1.780
13511WAT     H140775   9.309   8.450   1.825
13511WAT     H240776   9.373   8.597   1.796
13512WAT      O40777   2.453   3.194   9.208
13512WAT     H140778   2.379   3.130   9.233
13512WAT     H240779   2.536   3.142   9.187
13513WAT      O40780   8.468   4.009   5.159
13513WAT     H140781   8.379   4.043   5.128
13513WAT     H240782   8.473   4.012   5.259
13514WAT      O40783   8.110   3.962   5.287
13514WAT     H140784   8.022   3.951   5.334
13514WAT     H240785   8.112   3.901   5.207
13515WAT      O40786   8.118   0.230   7.679
13515WAT     H140787   8.019   0.235   7.669
13515WAT     H240788   8.162   0.228   7.589
13516WAT      O40789   5.804   0.129   5.437
13516WAT     H140790   5.841   0.084   5.356
13516WAT     H240791   5.722   0.180   5.413
13517WAT      O40792   6.996   6.863   2.544
13517WAT     H140793   7.019   6.844   2.449
13517WAT     H240794   6.948   6.784   2.583
13518WAT      O40795   6.928   5.811   5.183
13518WAT     H140796   6.926   5.909   5.199
13518WAT     H240797   6.969   5.765   5.262
13519WAT      O40798   2.028   2.436   4.814
13519WAT     H140799   2.005   2.407   4.907
13519WAT     H240800   2.083   2.365   4.770
13520WAT      O40801   8.751   0.537   7.814
13520WAT     H140802   8.762   0.576   7.905
13520WAT     H240803   8.718   0.607   7.751
13521WAT      O40804   2.803   3.077   0.704
13521WAT     H140805   2.890   3.057   0.659
13521WAT     H240806   2.738   3.110   0.637
13522WAT      O40807   7.347   6.871   0.062
13522WAT     H140808   7.298   6.959   0.068
13522WAT     H240809   7.281   6.798   0.046
13523WAT      O40810   3.931   9.357   6.179
13523WAT     H140811   3.861   9.335   6.246
13523WAT     H240812   3.906   9.443   6.133
13524WAT      O40813   5.869   0.452   9.681
13524WAT     H140814   5.944   0.446   9.746
13524WAT     H240815   5.801   0.519   9.713
13525WAT      O40816   3.931   4.409   2.852
13525WAT     H140817   3.927   4.473   2.775
13525WAT     H240818   3.906   4.456   2.937
13526WAT      O40819   4.037   1.348   6.824
13526WAT     H140820   4.087   1.323   6.907
13526WAT     H240821   3.967   1.279   6.806
13527WAT      O40822   2.473   5.062   6.845
13527WAT     H140823   2.523   5.108   6.772
13527WAT     H240824   2.457   5.126   6.920
13528WAT      O40825   5.705   8.430   3.406
13528WAT     H140826   5.664   8.380   3.482
13528WAT     H240827   5.757   8.508   3.442
13529WAT      O40828   0.616   4.029   8.018
13529WAT     H140829   0.624   3.930   8.006
13529WAT     H240830   0.611   4.050   8.116
13530WAT      O40831   8.448   7.824   0.043
13530WAT     H140832   8.516   7.774   0.098
13530WAT     H240833   8.470   7.922   0.046
13531WAT      O40834   9.247   8.273   0.266
13531WAT     H140835   9.269   8.317   0.179
13531WAT     H240836   9.149   8.253   0.269
13532WAT      O40837   6.847   4.873   7.624
13532WAT     H140838   6.896   4.806   7.680
13532WAT     H240839   6.913   4.923   7.567
13533WAT      O40840   2.932   5.113   8.187
13533WAT     H140841   3.011   5.093   8.245
13533WAT     H240842   2.865   5.040   8.197
13534WAT      O40843   3.330   6.514   4.888
13534WAT     H140844   3.280   6.439   4.845
13534WAT     H240845   3.269   6.591   4.904
13535WAT      O40846   9.606   7.830   0.702
13535WAT     H140847   9.589   7.928   0.714
13535WAT     H240848   9.648   7.815   0.612
13536WAT      O40849   1.428   9.303   4.301
13536WAT     H140850   1.444   9.206   4.320
13536WAT     H240851   1.438   9.355   4.386
13537WAT      O40852   9.801   4.893   5.829
13537WAT     H140853   9.900   4.900   5.819
13537WAT     H240854   9.769   4.807   5.789
13538WAT      O40855   2.460   9.033   4.737
13538WAT     H140856   2.379   9.091   4.744
13538WAT     H240857   2.437   8.940   4.768
13539WAT      O40858   4.240   6.217   7.542
13539WAT     H140859   4.301   6.191   7.467
13539WAT     H240860   4.194   6.303   7.519
13540WAT      O40861   0.947   1.380   5.049
13540WAT     H140862   0.991   1.333   5.126
13540WAT     H240863   1.008   1.452   5.015
13541WAT      O40864   6.953   3.520   2.325
13541WAT     H140865   6.862   3.480   2.322
13541WAT     H240866   6.960   3.594   2.258
13542WAT      O40867   7.142   5.574   0.466
13542WAT     H140868   7.072   5.532   0.524
13542WAT     H240869   7.132   5.540   0.372
13543WAT      O40870   8.562   6.907   3.540
13543WAT     H140871   8.468   6.930   3.563
13543WAT     H240872   8.610   6.989   3.509
13544WAT      O40873   2.782   4.537   5.757
13544WAT     H140874   2.777   4.493   5.847
13544WAT     H240875   2.848   4.612   5.760
13545WAT      O40876   2.681   2.141   5.150
13545WAT     H140877   2.767   2.173   5.110
13545WAT     H240878   2.626   2.220   5.177
13546WAT      O40879   8.771   6.592   1.377
13546WAT     H140880   8.850   6.555   1.329
13546WAT     H240881   8.793   6.602   1.474
13547WAT      O40882   9.020   1.146   9.077
13547WAT     H140883   8.973   1.060   9.055
13547WAT     H240884   9.083   1.131   9.153
13548WAT      O40885   9.468   6.290   5.603
13548WAT     H140886   9.563   6.304   5.633
13548WAT     H240887   9.464   6.294   5.503
13549WAT      O40888   5.582   0.056   3.477
13549WAT     H140889   5.526  -0.004   3.534
13549WAT     H240890   5.573   0.030   3.381
13550WAT      O40891   3.750   3.084   0.510
13550WAT     H140892   3.684   3.158   0.495
13550WAT     H240893   3.834   3.122   0.547
13551WAT      O40894   3.047   1.889   4.456
13551WAT     H140895   2.966   1.881   4.399
13551WAT     H240896   3.060   1.806   4.509
13552WAT      O40897   9.788   4.824   2.596
13552WAT     H140898   9.810   4.771   2.678
13552WAT     H240899   9.817   4.774   2.515
13553WAT      O40900   2.002   2.124   6.255
13553WAT     H140901   1.957   2.165   6.335
13553WAT     H240902   2.085   2.176   6.234
13554WAT      O40903   9.358   2.297   8.147
13554WAT     H140904   9.285   2.236   8.113
13554WAT     H240905   9.380   2.364   8.077
13555WAT      O40906   2.971   2.917   9.139
13555WAT     H140907   3.014   2.974   9.210
13555WAT     H240908   2.949   2.974   9.060
13556WAT      O40909   5.860   7.269   1.158
13556WAT     H140910   5.887   7.246   1.064
13556WAT     H240911   5.791   7.342   1.155
13557WAT      O40912   4.999   8.133   2.717
13557WAT     H140913   4.930   8.102   2.653
13557WAT     H240914   5.088   8.096   2.691
13558WAT      O40915   7.932   8.559   7.220
13558WAT     H140916   8.027   8.543   7.248
13558WAT     H240917   7.912   8.504   7.139
13559WAT      O40918   4.376   3.335   8.953
13559WAT     H140919   4.333   3.370   9.036
13559WAT     H240920   4.400   3.411   8.893
13560WAT      O40921   6.379   1.880   5.135
13560WAT     H140922   6.459   1.825   5.159
13560WAT     H240923   6.300   1.820   5.121
13561WAT      O40924   2.227   7.479   3.977
13561WAT     H140925   2.259   7.386   3.961
13561WAT     H240926   2.212   7.493   4.075
13562WAT      O40927   6.627   6.679   4.712
13562WAT     H140928   6.699   6.710   4.650
13562WAT     H240929   6.538   6.707   4.677
13563WAT      O40930   5.636   0.277   2.822
13563WAT     H140931   5.688   0.297   2.739
13563WAT     H240932   5.602   0.362   2.863
13564WAT      O40933   5.063   0.877   9.205
13564WAT     H140934   5.004   0.955   9.224
13564WAT     H240935   5.028   0.796   9.251
13565WAT      O40936   1.718   2.963   4.672
13565WAT     H140937   1.663   3.046   4.660
13565WAT     H240938   1.667   2.884   4.640
13566WAT      O40939   3.454   8.189   9.370
13566WAT     H140940   3.417   8.239   9.449
13566WAT     H240941   3.387   8.121   9.341
13567WAT      O40942   4.692   8.001   5.074
13567WAT     H140943   4.756   8.052   5.017
13567WAT     H240944   4.599   8.015   5.040
13568WAT      O40945   6.779   3.024   8.074
13568WAT     H140946   6.852   2.957   8.074
13568WAT     H240947   6.691   2.978   8.062
13569WAT      O40948   2.028   6.205   7.493
13569WAT     H140949   2.116   6.165   7.520
13569WAT     H240950   2.001   6.273   7.561
13570WAT      O40951   8.446   7.966   2.243
13570WAT     H140952   8.404   7.990   2.330
13570WAT     H240953   8.542   7.944   2.257
13571WAT      O40954   3.341   0.474   0.821
13571WAT     H140955   3.426   0.460   0.872
13571WAT     H240956   3.334   0.570   0.794
13572WAT      O40957   2.113   7.569   9.257
13572WAT     H140958   2.026   7.584   9.210
13572WAT     H240959   2.152   7.656   9.286
13573WAT      O40960   8.621   1.171   8.170
13573WAT     H140961   8.633   1.267   8.196
13573WAT     H240962   8.525   1.146   8.176
13574WAT      O40963   1.766   4.398   0.960
13574WAT     H140964   1.735   4.492   0.975
13574WAT     H240965   1.843   4.399   0.895
13575WAT      O40966   6.111   0.897   9.436
13575WAT     H140967   6.118   0.829   9.509
13575WAT     H240968   6.050   0.971   9.464
13576WAT      O40969   1.088   2.247   0.256
13576WAT     H140970   1.079   2.333   0.206
13576WAT     H240971   1.180   2.209   0.241
13577WAT      O40972   6.159   2.165   7.604
13577WAT     H140973   6.119   2.231   7.540
13577WAT     H240974   6.253   2.191   7.624
13578WAT      O40975   2.896   0.846   7.395
13578WAT     H140976   2.996   0.843   7.395
13578WAT     H240977   2.861   0.782   7.327
13579WAT      O40978   9.365   5.954   8.630
13579WAT     H140979   9.313   5.871   8.647
13579WAT     H240980   9.419   5.943   8.546
13580WAT      O40981   1.285   7.556   2.830
13580WAT     H140982   1.209   7.493   2.845
13580WAT     H240983   1.347   7.552   2.908
13581WAT      O40984   6.616   2.279   0.901
13581WAT     H140985   6.658   2.349   0.960
13581WAT     H240986   6.653   2.287   0.808
13582WAT      O40987   1.480   5.583   5.969
13582WAT     H140988   1.422   5.502   5.975
13582WAT     H240989   1.515   5.591   5.876
13583WAT      O40990   5.326   5.697   9.728
13583WAT     H140991   5.244   5.731   9.682
13583WAT     H240992   5.358   5.614   9.681
13584WAT      O40993   4.210   6.031   2.773
13584WAT     H140994   4.113   6.044   2.749
13584WAT     H240995   4.226   6.065   2.866
13585WAT      O40996   4.515   1.032   3.852
13585WAT     H140997   4.582   1.008   3.923
13585WAT     H240998   4.485   0.949   3.804
13586WAT      O40999   2.215   2.701   2.565
13586WAT     H141000   2.229   2.728   2.469
13586WAT     H241001   2.135   2.747   2.601
13587WAT      O41002   8.555   4.296   9.061
13587WAT     H141003   8.599   4.212   9.030
13587WAT     H241004   8.561   4.302   9.160
13588WAT      O41005   7.810   5.096   0.579
13588WAT     H141006   7.735   5.161   0.568
13588WAT     H241007   7.886   5.122   0.520
13589WAT      O41008   5.389   9.448   6.450
13589WAT     H141009   5.344   9.440   6.539
13589WAT     H241010   5.352   9.379   6.388
13590WAT      O41011   4.740   7.476   1.623
13590WAT     H141012   4.732   7.545   1.551
13590WAT     H241013   4.789   7.397   1.588
13591WAT      O41014   4.657   7.033   6.332
13591WAT     H141015   4.609   7.034   6.245
13591WAT     H241016   4.689   7.126   6.354
13592WAT      O41017   5.014   1.895   0.364
13592WAT     H141018   5.061   1.860   0.444
13592WAT     H241019   4.989   1.991   0.380
13593WAT      O41020   3.996   8.423   6.844
13593WAT     H141021   4.024   8.497   6.783
13593WAT     H241022   4.052   8.342   6.826
13594WAT      O41023   2.586   6.844   6.346
13594WAT     H141024   2.542   6.813   6.430
13594WAT     H241025   2.636   6.768   6.304
13595WAT      O41026   0.975   5.226   4.667
13595WAT     H141027   0.902   5.271   4.614
13595WAT     H241028   0.996   5.137   4.625
13596WAT      O41029   3.229   6.161   4.270
13596WAT     H141030   3.138   6.184   4.237
13596WAT     H241031   3.245   6.203   4.359
13597WAT      O41032   1.950   7.257   9.707
13597WAT     H141033   1.870   7.247   9.767
13597WAT     H241034   1.931   7.215   9.619
13598WAT      O41035   4.535   7.240   4.026
13598WAT     H141036   4.461   7.201   4.080
13598WAT     H241037   4.498   7.301   3.956
13599WAT      O41038   0.125   1.954   9.106
13599WAT     H141039   0.184   1.874   9.100
13599WAT     H241040   0.033   1.927   9.134
13600WAT      O41041   0.398   1.172   3.274
13600WAT     H141042   0.419   1.268   3.261
13600WAT     H241043   0.324   1.163   3.341
13601WAT      O41044   7.004   7.696   2.696
13601WAT     H141045   7.054   7.609   2.690
13601WAT     H241046   7.026   7.753   2.617
13602WAT      O41047   8.399   1.621   1.995
13602WAT     H141048   8.427   1.534   1.955
13602WAT     H241049   8.475   1.686   1.990
13603WAT      O41050   1.600   6.792   7.666
13603WAT     H141051   1.602   6.748   7.575
13603WAT     H241052   1.642   6.730   7.733
13604WAT      O41053   6.595   1.931   3.574
13604WAT     H141054   6.585   1.988   3.492
13604WAT     H241055   6.600   1.835   3.547
13605WAT      O41056   9.656   8.179   2.444
13605WAT     H141057   9.662   8.123   2.361
13605WAT     H241058   9.702   8.132   2.519
13606WAT      O41059   3.802   7.094   7.722
13606WAT     H141060   3.768   7.140   7.803
13606WAT     H241061   3.802   7.158   7.644
13607WAT      O41062   9.852   2.507   2.870
13607WAT     H141063   9.814   2.589   2.913
13607WAT     H241064   9.951   2.518   2.860
13608WAT      O41065   7.794   3.834   8.593
13608WAT     H141066   7.851   3.875   8.664
13608WAT     H241067   7.851   3.805   8.516
13609WAT      O41068   8.670   4.818   5.574
13609WAT     H141069   8.705   4.836   5.666
13609WAT     H241070   8.676   4.901   5.519
13610WAT      O41071   7.857   2.754   0.564
13610WAT     H141072   7.935   2.813   0.546
13610WAT     H241073   7.838   2.752   0.662
13611WAT      O41074   3.247   0.784   8.673
13611WAT     H141075   3.167   0.819   8.625
13611WAT     H241076   3.304   0.861   8.705
13612WAT      O41077   5.896   9.647   8.163
13612WAT     H141078   5.881   9.655   8.261
13612WAT     H241079   5.836   9.710   8.114
13613WAT      O41080   6.178   2.843   9.047
13613WAT     H141081   6.164   2.937   9.015
13613WAT     H241082   6.254   2.802   8.997
13614WAT      O41083   2.768   4.652   2.747
13614WAT     H141084   2.688   4.623   2.799
13614WAT     H241085   2.765   4.613   2.655
13615WAT      O41086   2.265   4.277   0.596
13615WAT     H141087   2.226   4.237   0.679
13615WAT     H241088   2.255   4.377   0.600
13616WAT      O41089   5.592   8.875   8.417
13616WAT     H141090   5.587   8.815   8.337
13616WAT     H241091   5.515   8.939   8.416
13617WAT      O41092   1.495   1.325   0.863
13617WAT     H141093   1.564   1.258   0.838
13617WAT     H241094   1.413   1.311   0.807
13618WAT      O41095   9.418   0.046   0.503
13618WAT     H141096   9.323   0.071   0.487
13618WAT     H241097   9.468   0.050   0.416
13619WAT      O41098   6.456   4.801   7.396
13619WAT     H141099   6.430   4.859   7.319
13619WAT     H241100   6.534   4.744   7.371
13620WAT      O41101   8.119   5.645   2.020
13620WAT     H141102   8.123   5.582   2.097
13620WAT     H241103   8.105   5.738   2.055
13621WAT      O41104   6.735   7.150   6.138
13621WAT     H141105   6.726   7.093   6.056
13621WAT     H241106   6.645   7.159   6.182
13622WAT      O41107   1.356   0.906   1.871
13622WAT     H141108   1.335   0.888   1.967
13622WAT     H241109   1.379   1.002   1.859
13623WAT      O41110   8.717   6.691   6.909
13623WAT     H141111   8.786   6.749   6.865
13623WAT     H241112   8.750   6.664   6.999
13624WAT      O41113   7.375   0.274   1.469
13624WAT     H141114   7.322   0.280   1.384
13624WAT     H241115   7.472   0.286   1.448
13625WAT      O41116   0.205   7.489   0.593
13625WAT     H141117   0.188   7.550   0.515
13625WAT     H241118   0.153   7.521   0.672
13626WAT      O41119   5.561   3.296   7.925
13626WAT     H141120   5.648   3.298   7.877
13626WAT     H241121   5.530   3.201   7.935
13627WAT      O41122   9.384   3.372   0.349
13627WAT     H141123   9.433   3.330   0.425
13627WAT     H241124   9.401   3.320   0.266
13628WAT      O41125   0.051   5.736   4.256
13628WAT     H141126  -0.040   5.772   4.276
13628WAT     H241127   0.075   5.759   4.162
13629WAT      O41128   9.392   0.325   5.338
13629WAT     H141129   9.381   0.231   5.305
13629WAT     H241130   9.417   0.324   5.434
13630WAT      O41131   7.893   5.678   3.608
13630WAT     H141132   7.960   5.604   3.608
13630WAT     H241133   7.801   5.639   3.615
13631WAT      O41134   7.575   9.696   5.845
13631WAT     H141135   7.509   9.768   5.867
13631WAT     H241136   7.664   9.718   5.884
13632WAT      O41137   3.422   5.392   6.216
13632WAT     H141138   3.403   5.418   6.121
13632WAT     H241139   3.379   5.303   6.235
13633WAT      O41140   2.314   5.772   7.922
13633WAT     H141141   2.391   5.832   7.898
13633WAT     H241142   2.324   5.686   7.872
13634WAT      O41143   7.991   4.970   4.232
13634WAT     H141144   8.033   4.974   4.322
13634WAT     H241145   8.048   5.020   4.166
13635WAT      O41146   9.846   2.141   5.560
13635WAT     H141147   9.844   2.110   5.465
13635WAT     H241148   9.893   2.229   5.565
13636WAT      O41149   5.266   1.619   0.056
13636WAT     H141150   5.179   1.572   0.070
13636WAT     H241151   5.299   1.656   0.142
13637WAT      O41152   0.677   3.207   7.706
13637WAT     H141153   0.667   3.211   7.805
13637WAT     H241154   0.589   3.185   7.664
13638WAT      O41155   7.083   5.758   4.948
13638WAT     H141156   7.056   5.810   4.868
13638WAT     H241157   7.033   5.792   5.028
13639WAT      O41158   1.501   5.901   1.965
13639WAT     H141159   1.449   5.974   1.920
13639WAT     H241160   1.599   5.912   1.944
13640WAT      O41161   0.523   0.388   4.247
13640WAT     H141162   0.622   0.385   4.238
13640WAT     H241163   0.487   0.463   4.191
13641WAT      O41164   2.941   4.817   8.579
13641WAT     H141165   2.940   4.917   8.579
13641WAT     H241166   2.997   4.785   8.656
13642WAT      O41167   8.969   6.474   5.831
13642WAT     H141168   8.895   6.409   5.811
13642WAT     H241169   9.050   6.424   5.863
13643WAT      O41170   3.625   7.725   8.696
13643WAT     H141171   3.531   7.698   8.672
13643WAT     H241172   3.659   7.789   8.628
13644WAT      O41173   6.045   6.818   2.750
13644WAT     H141174   5.964   6.814   2.690
13644WAT     H241175   6.027   6.767   2.834
13645WAT      O41176   3.791   8.062   2.430
13645WAT     H141177   3.812   7.965   2.444
13645WAT     H241178   3.692   8.073   2.422
13646WAT      O41179   3.960   3.097   9.537
13646WAT     H141180   3.988   3.187   9.505
13646WAT     H241181   4.001   3.079   9.626
13647WAT      O41182   9.565   4.425   7.759
13647WAT     H141183   9.604   4.471   7.838
13647WAT     H241184   9.545   4.492   7.688
13648WAT      O41185   0.647   9.705   0.419
13648WAT     H141186   0.626   9.633   0.485
13648WAT     H241187   0.578   9.777   0.424
13649WAT      O41188   4.937   3.211   9.533
13649WAT     H141189   5.018   3.219   9.590
13649WAT     H241190   4.871   3.150   9.578
13650WAT      O41191   3.591   7.395   1.659
13650WAT     H141192   3.590   7.492   1.684
13650WAT     H241193   3.498   7.362   1.646
13651WAT      O41194   1.498   4.973   4.335
13651WAT     H141195   1.504   5.064   4.376
13651WAT     H241196   1.547   4.972   4.248
13652WAT      O41197   5.137   6.917   3.894
13652WAT     H141198   5.120   7.005   3.939
13652WAT     H241199   5.206   6.866   3.945
13653WAT      O41200   0.535   9.371   6.046
13653WAT     H141201   0.508   9.283   6.086
13653WAT     H241202   0.585   9.424   6.114
13654WAT      O41203   9.343   1.276   1.724
13654WAT     H141204   9.427   1.298   1.773
13654WAT     H241205   9.282   1.355   1.726
13655WAT      O41206   1.400   2.965   2.370
13655WAT     H141207   1.392   2.985   2.468
13655WAT     H241208   1.485   3.005   2.335
13656WAT      O41209   9.385   1.100   3.545
13656WAT     H141210   9.337   1.164   3.605
13656WAT     H241211   9.358   1.006   3.567
13657WAT      O41212   4.170   7.080   7.019
13657WAT     H141213   4.179   7.162   7.075
13657WAT     H241214   4.239   7.080   6.947
13658WAT      O41215   2.946   6.802   2.523
13658WAT     H141216   2.997   6.772   2.443
13658WAT     H241217   2.887   6.878   2.498
13659WAT      O41218   0.836   1.676   4.835
13659WAT     H141219   0.764   1.645   4.897
13659WAT     H241220   0.796   1.731   4.762
13660WAT      O41221   6.913   7.588   0.199
13660WAT     H141222   6.935   7.585   0.297
13660WAT     H241223   6.840   7.653   0.183
13661WAT      O41224   6.409   8.664   6.832
13661WAT     H141225   6.405   8.693   6.736
13661WAT     H241226   6.484   8.599   6.843
13662WAT      O41227   9.544   3.736   9.845
13662WAT     H141228   9.520   3.807   9.912
13662WAT     H241229   9.520   3.768   9.753
13663WAT      O41230   3.408   7.972   8.344
13663WAT     H141231   3.341   7.944   8.274
13663WAT     H241232   3.500   7.966   8.306
13664WAT      O41233   4.120   6.676   1.206
13664WAT     H141234   4.185   6.751   1.192
13664WAT     H241235   4.036   6.695   1.155
13665WAT      O41236   6.344   5.301   2.116
13665WAT     H141237   6.250   5.327   2.136
13665WAT     H241238   6.396   5.294   2.201
13666WAT      O41239   7.212   1.688   4.494
13666WAT     H141240   7.195   1.782   4.523
13666WAT     H241241   7.129   1.651   4.452
13667WAT      O41242   5.197   2.921   2.742
13667WAT     H141243   5.219   2.864   2.662
13667WAT     H241244   5.264   2.995   2.749
13668WAT      O41245   3.144   0.100   6.798
13668WAT     H141246   3.203   0.172   6.834
13668WAT     H241247   3.166   0.084   6.702
13669WAT      O41248   1.939   1.103   0.383
13669WAT     H141249   1.968   1.193   0.413
13669WAT     H241250   1.979   1.082   0.294
13670WAT      O41251   4.488   0.350   3.711
13670WAT     H141252   4.394   0.360   3.743
13670WAT     H241253   4.487   0.321   3.615
13671WAT      O41254   1.679   5.511   2.384
13671WAT     H141255   1.603   5.563   2.344
13671WAT     H241256   1.655   5.483   2.477
13672WAT      O41257   3.075   7.012   7.549
13672WAT     H141258   3.110   6.970   7.465
13672WAT     H241259   3.108   6.959   7.628
13673WAT      O41260   0.724   5.538   0.681
13673WAT     H141261   0.653   5.504   0.743
13673WAT     H241262   0.810   5.548   0.731
13674WAT      O41263   1.375   7.093   4.041
13674WAT     H141264   1.400   7.077   3.945
13674WAT     H241265   1.451   7.137   4.088
13675WAT      O41266   0.212   1.649   7.539
13675WAT     H141267   0.253   1.572   7.588
13675WAT     H241268   0.145   1.614   7.473
13676WAT      O41269   5.716   7.950   3.104
13676WAT     H141270   5.641   7.884   3.105
13676WAT     H241271   5.791   7.916   3.048
13677WAT      O41272   9.676   5.039   6.554
13677WAT     H141273   9.702   5.053   6.649
13677WAT     H241274   9.593   4.984   6.549
13678WAT      O41275   6.240   2.318   3.347
13678WAT     H141276   6.252   2.396   3.285
13678WAT     H241277   6.325   2.301   3.396
13679WAT      O41278   6.658   7.237   7.197
13679WAT     H141279   6.563   7.239   7.167
13679WAT     H241280   6.679   7.147   7.235
13680WAT      O41281   4.669   9.409   0.460
13680WAT     H141282   4.745   9.400   0.523
13680WAT     H241283   4.703   9.409   0.366
13681WAT      O41284   1.993   8.938   3.522
13681WAT     H141285   1.997   9.025   3.473
13681WAT     H241286   1.917   8.883   3.487
13682WAT      O41287   3.925   2.205   4.879
13682WAT     H141288   3.905   2.298   4.911
13682WAT     H241289   3.931   2.205   4.779
13683WAT      O41290   8.603   9.374   5.035
13683WAT     H141291   8.504   9.388   5.042
13683WAT     H241292   8.651   9.449   5.079
13684WAT      O41293   2.072   4.085   6.704
13684WAT     H141294   2.035   4.070   6.613
13684WAT     H241295   2.156   4.138   6.698
13685WAT      O41296   4.405   8.099   9.561
13685WAT     H141297   4.366   8.007   9.551
13685WAT     H241298   4.332   8.166   9.564
13686WAT      O41299   0.280   6.557   0.942
13686WAT     H141300   0.194   6.557   0.992
13686WAT     H241301   0.298   6.465   0.906
13687WAT      O41302   3.211   2.321   2.829
13687WAT     H141303   3.117   2.354   2.833
13687WAT     H241304   3.228   2.279   2.740
13688WAT      O41305   7.238   3.896   9.473
13688WAT     H141306   7.209   3.860   9.385
13688WAT     H241307   7.199   3.987   9.486
13689WAT      O41308   7.513   2.889   3.555
13689WAT     H141309   7.477   2.832   3.481
13689WAT     H241310   7.604   2.856   3.581
13690WAT      O41311   4.379   8.413   4.526
13690WAT     H141312   4.324   8.495   4.545
13690WAT     H241313   4.322   8.345   4.479
13691WAT      O41314   5.131   0.809   4.673
13691WAT     H141315   5.164   0.885   4.617
13691WAT     H241316   5.053   0.765   4.627
13692WAT      O41317   5.899   2.244   0.490
13692WAT     H141318   5.897   2.330   0.439
13692WAT     H241319   5.867   2.170   0.431
13693WAT      O41320   3.082   8.239   7.799
13693WAT     H141321   3.161   8.234   7.860
13693WAT     H241322   3.040   8.149   7.792
13694WAT      O41323   0.533   4.193   6.493
13694WAT     H141324   0.599   4.141   6.546
13694WAT     H241325   0.581   4.257   6.433
13695WAT      O41326   9.743   2.399   9.382
13695WAT     H141327   9.799   2.368   9.306
13695WAT     H241328   9.798   2.454   9.445
13696WAT      O41329   0.191   8.687   1.030
13696WAT     H141330   0.240   8.638   1.102
13696WAT     H241331   0.216   8.649   0.941
13697WAT      O41332   8.700   3.864   2.487
13697WAT     H141333   8.773   3.854   2.554
13697WAT     H241334   8.696   3.959   2.457
13698WAT      O41335   0.876   4.450   4.023
13698WAT     H141336   0.976   4.457   4.025
13698WAT     H241337   0.840   4.455   4.116
13699WAT      O41338   6.134   1.639   8.849
13699WAT     H141339   6.135   1.580   8.768
13699WAT     H241340   6.116   1.733   8.820
13700WAT      O41341   3.591   0.236   7.366
13700WAT     H141342   3.644   0.226   7.282
13700WAT     H241343   3.526   0.160   7.374
13701WAT      O41344   9.429   9.079   4.092
13701WAT     H141345   9.332   9.089   4.115
13701WAT     H241346   9.479   9.160   4.121
13702WAT      O41347   2.395   6.037   8.172
13702WAT     H141348   2.386   6.120   8.229
13702WAT     H241349   2.366   6.058   8.079
13703WAT      O41350   5.272   1.018   6.107
13703WAT     H141351   5.184   1.025   6.060
13703WAT     H241352   5.336   1.085   6.068
13704WAT      O41353   6.368   3.463   8.008
13704WAT     H141354   6.395   3.557   7.989
13704WAT     H241355   6.383   3.442   8.105
13705WAT      O41356   3.753   0.618   7.508
13705WAT     H141357   3.778   0.714   7.497
13705WAT     H241358   3.766   0.570   7.422
13706WAT      O41359   1.665   4.165   6.761
13706WAT     H141360   1.679   4.186   6.665
13706WAT     H241361   1.750   4.179   6.811
13707WAT      O41362   5.995   4.685   4.105
13707WAT     H141363   6.013   4.624   4.028
13707WAT     H241364   6.081   4.720   4.141
13708WAT      O41365   0.935   4.312   7.621
13708WAT     H141366   0.952   4.387   7.685
13708WAT     H241367   0.894   4.235   7.670
13709WAT      O41368   3.933   4.989   1.244
13709WAT     H141369   4.031   4.968   1.251
13709WAT     H241370   3.919   5.088   1.258
13710WAT      O41371   5.532   0.417   5.005
13710WAT     H141372   5.599   0.345   4.987
13710WAT     H241373   5.578   0.506   5.007
13711WAT      O41374   5.326   6.754   4.017
13711WAT     H141375   5.403   6.723   3.962
13711WAT     H241376   5.280   6.675   4.059
13712WAT      O41377   3.155   6.282   0.962
13712WAT     H141378   3.231   6.217   0.954
13712WAT     H241379   3.089   6.248   1.029
13713WAT      O41380   4.052   1.328   6.331
13713WAT     H141381   4.002   1.295   6.411
13713WAT     H241382   4.066   1.253   6.267
13714WAT      O41383   9.793   5.364   3.169
13714WAT     H141384   9.892   5.377   3.159
13714WAT     H241385   9.763   5.291   3.107
13715WAT      O41386   7.823   8.567   1.106
13715WAT     H141387   7.823   8.666   1.119
13715WAT     H241388   7.772   8.544   1.023
13716WAT      O41389   9.374   6.524   8.254
13716WAT     H141390   9.280   6.547   8.275
13716WAT     H241391   9.377   6.439   8.200
13717WAT      O41392   9.680   2.656   0.212
13717WAT     H141393   9.658   2.572   0.164
13717WAT     H241394   9.596   2.703   0.238
13718WAT      O41395   5.470   6.589   8.486
13718WAT     H141396   5.524   6.540   8.417
13718WAT     H241397   5.422   6.665   8.443
13719WAT      O41398   0.563   2.413   2.860
13719WAT     H141399   0.562   2.328   2.913
13719WAT     H241400   0.584   2.393   2.765
13720WAT      O41401   2.460   0.672   4.417
13720WAT     H141402   2.545   0.681   4.470
13720WAT     H241403   2.439   0.575   4.405
13721WAT      O41404   5.663   8.196   2.992
13721WAT     H141405   5.708   8.116   3.030
13721WAT     H241406   5.638   8.259   3.066
13722WAT      O41407   7.352   6.643   8.628
13722WAT     H141408   7.387   6.669   8.538
13722WAT     H241409   7.400   6.694   8.699
13723WAT      O41410   7.527   3.990   7.402
13723WAT     H141411   7.460   3.972   7.474
13723WAT     H241412   7.483   4.036   7.325
13724WAT      O41413   0.106   6.408   1.090
13724WAT     H141414   0.079   6.449   1.177
13724WAT     H241415   0.048   6.328   1.072
13725WAT      O41416   8.280   1.796   1.253
13725WAT     H141417   8.213   1.870   1.244
13725WAT     H241418   8.235   1.708   1.240
13726WAT      O41419   7.925   7.723   8.382
13726WAT     H141420   8.015   7.680   8.389
13726WAT     H241421   7.933   7.820   8.407
13727WAT      O41422   8.149   4.973   9.203
13727WAT     H141423   8.126   4.882   9.239
13727WAT     H241424   8.175   4.965   9.107
13728WAT      O41425   8.386   2.044   8.056
13728WAT     H141426   8.326   2.039   8.136
13728WAT     H241427   8.474   2.085   8.083
13729WAT      O41428   9.713   4.091   8.240
13729WAT     H141429   9.644   4.030   8.279
13729WAT     H241430   9.779   4.117   8.311
13730WAT      O41431   4.731   5.772   1.020
13730WAT     H141432   4.657   5.718   1.059
13730WAT     H241433   4.797   5.712   0.975
13731WAT      O41434   4.430   0.493   4.059
13731WAT     H141435   4.374   0.475   4.141
13731WAT     H241436   4.385   0.564   4.004
13732WAT      O41437   0.223   2.291   3.720
13732WAT     H141438   0.264   2.275   3.630
13732WAT     H241439   0.294   2.324   3.783
13733WAT      O41440   1.392   0.205   0.045
13733WAT     H141441   1.386   0.141   0.122
13733WAT     H241442   1.485   0.241   0.039
13734WAT      O41443   4.860   3.302   1.023
13734WAT     H141444   4.914   3.269   0.946
13734WAT     H241445   4.764   3.276   1.009
13735WAT      O41446   0.627   3.474   7.863
13735WAT     H141447   0.544   3.435   7.824
13735WAT     H241448   0.669   3.408   7.925
13736WAT      O41449   5.369   1.174   0.495
13736WAT     H141450   5.356   1.238   0.571
13736WAT     H241451   5.438   1.210   0.432
13737WAT      O41452   1.303   4.687   5.373
13737WAT     H141453   1.342   4.652   5.287
13737WAT     H241454   1.326   4.784   5.383
13738WAT      O41455   5.656   3.212   7.551
13738WAT     H141456   5.706   3.193   7.466
13738WAT     H241457   5.561   3.234   7.530
13739WAT      O41458   8.010   1.225   9.429
13739WAT     H141459   8.092   1.183   9.392
13739WAT     H241460   7.955   1.156   9.476
13740WAT      O41461   6.797   6.903   7.056
13740WAT     H141462   6.889   6.869   7.037
13740WAT     H241463   6.730   6.849   7.005
13741WAT      O41464   9.373   7.298   0.387
13741WAT     H141465   9.347   7.353   0.467
13741WAT     H241466   9.473   7.293   0.382
13742WAT      O41467   0.035   1.021   6.299
13742WAT     H141468  -0.036   1.001   6.367
13742WAT     H241469   0.118   0.971   6.322
13743WAT      O41470   1.682   1.392   4.819
13743WAT     H141471   1.684   1.386   4.719
13743WAT     H241472   1.643   1.480   4.846
13744WAT      O41473   2.441   4.078   1.440
13744WAT     H141474   2.411   4.173   1.432
13744WAT     H241475   2.540   4.073   1.426
13745WAT      O41476   3.202   8.532   4.095
13745WAT     H141477   3.200   8.559   4.191
13745WAT     H241478   3.134   8.461   4.078
13746WAT      O41479   4.343   3.675   2.282
13746WAT     H141480   4.423   3.727   2.252
13746WAT     H241481   4.341   3.673   2.382
13747WAT      O41482   4.533   5.713   2.250
13747WAT     H141483   4.467   5.687   2.180
13747WAT     H241484   4.593   5.785   2.214
13748WAT      O41485   9.606   9.607   9.840
13748WAT     H141486   9.684   9.625   9.899
13748WAT     H241487   9.639   9.572   9.752
13749WAT      O41488   8.635   2.398   6.492
13749WAT     H141489   8.582   2.321   6.527
13749WAT     H241490   8.651   2.464   6.566
13750WAT      O41491   6.442   5.352   8.654
13750WAT     H141492   6.418   5.370   8.750
13750WAT     H241493   6.431   5.255   8.635
13751WAT      O41494   1.088   6.201   9.211
13751WAT     H141495   1.185   6.220   9.226
13751WAT     H241496   1.075   6.104   9.190
13752WAT      O41497   7.421   8.072   9.257
13752WAT     H141498   7.349   8.042   9.320
13752WAT     H241499   7.496   8.113   9.309
13753WAT      O41500   2.243   6.318   9.488
13753WAT     H141501   2.191   6.359   9.564
13753WAT     H241502   2.277   6.390   9.429
13754WAT      O41503   3.363   7.584   7.761
13754WAT     H141504   3.461   7.571   7.746
13754WAT     H241505   3.313   7.505   7.726
13755WAT      O41506   1.281   0.440   6.892
13755WAT     H141507   1.319   0.433   6.799
13755WAT     H241508   1.282   0.536   6.921
13756WAT      O41509   3.704   4.313   5.966
13756WAT     H141510   3.648   4.364   5.901
13756WAT     H241511   3.651   4.293   6.048
13757WAT      O41512   2.624   1.432   9.859
13757WAT     H141513   2.705   1.468   9.906
13757WAT     H241514   2.543   1.451   9.914
13758WAT      O41515   6.266   0.530   9.532
13758WAT     H141516   6.238   0.476   9.453
13758WAT     H241517   6.186   0.560   9.582
13759WAT      O41518   9.663   4.411   6.601
13759WAT     H141519   9.711   4.366   6.526
13759WAT     H241520   9.721   4.410   6.683
13760WAT      O41521   0.307   5.281   1.214
13760WAT     H141522   0.317   5.226   1.297
13760WAT     H241523   0.213   5.316   1.208
13761WAT      O41524   4.313   7.753   7.309
13761WAT     H141525   4.230   7.698   7.321
13761WAT     H241526   4.344   7.786   7.398
13762WAT      O41527   1.195   5.435   1.189
13762WAT     H141528   1.237   5.525   1.175
13762WAT     H241529   1.148   5.433   1.277
13763WAT      O41530   0.131   8.957   1.040
13763WAT     H141531   0.217   8.982   1.084
13763WAT     H241532   0.137   8.862   1.008
13764WAT      O41533   6.250   3.855   8.368
13764WAT     H141534   6.180   3.865   8.438
13764WAT     H241535   6.234   3.920   8.294
13765WAT      O41536   0.170   1.219   0.766
13765WAT     H141537   0.222   1.226   0.850
13765WAT     H241538   0.126   1.129   0.761
13766WAT      O41539   2.830   2.498   5.036
13766WAT     H141540   2.909   2.523   4.981
13766WAT     H241541   2.855   2.425   5.100
13767WAT      O41542   9.813   6.790   1.790
13767WAT     H141543   9.852   6.867   1.841
13767WAT     H241544   9.719   6.810   1.765
13768WAT      O41545   1.950   5.167   7.825
13768WAT     H141546   1.996   5.079   7.815
13768WAT     H241547   2.016   5.235   7.858
13769WAT      O41548   2.524   9.024   6.633
13769WAT     H141549   2.514   8.934   6.589
13769WAT     H241550   2.619   9.036   6.662
13770WAT      O41551   1.983   1.469   2.382
13770WAT     H141552   1.967   1.568   2.391
13770WAT     H241553   2.076   1.448   2.411
13771WAT      O41554   5.305   9.811   0.442
13771WAT     H141555   5.388   9.756   0.435
13771WAT     H241556   5.294   9.864   0.358
13772WAT      O41557   1.180   2.420   3.739
13772WAT     H141558   1.100   2.469   3.774
13772WAT     H241559   1.156   2.326   3.718
13773WAT      O41560   6.992   0.611   4.030
13773WAT     H141561   7.005   0.707   4.007
13773WAT     H241562   7.070   0.579   4.085
13774WAT      O41563   0.826   4.186   4.918
13774WAT     H141564   0.763   4.110   4.936
13774WAT     H241565   0.832   4.201   4.820
13775WAT      O41566   9.009   8.152   2.679
13775WAT     H141567   9.107   8.150   2.657
13775WAT     H241568   8.976   8.059   2.692
13776WAT      O41569   3.179   0.275   2.583
13776WAT     H141570   3.080   0.263   2.587
13776WAT     H241571   3.220   0.193   2.541
13777WAT      O41572   5.604   9.519   0.200
13777WAT     H141573   5.658   9.437   0.181
13777WAT     H241574   5.612   9.584   0.124
13778WAT      O41575   1.760   9.400   6.635
13778WAT     H141576   1.846   9.436   6.672
13778WAT     H241577   1.689   9.470   6.642
13779WAT      O41578   2.875   3.654   5.678
13779WAT     H141579   2.878   3.578   5.613
13779WAT     H241580   2.790   3.650   5.731
13780WAT      O41581   8.832   0.859   6.126
13780WAT     H141582   8.808   0.882   6.032
13780WAT     H241583   8.852   0.761   6.133
13781WAT      O41584   0.301   9.736   3.936
13781WAT     H141585   0.282   9.747   3.839
13781WAT     H241586   0.233   9.787   3.989
13782WAT      O41587   6.782   5.219   3.439
13782WAT     H141588   6.707   5.275   3.472
13782WAT     H241589   6.799   5.144   3.503
13783WAT      O41590   7.390   2.138   0.053
13783WAT     H141591   7.361   2.053   0.009
13783WAT     H241592   7.360   2.138   0.149
13784WAT      O41593   2.082   3.616   8.560
13784WAT     H141594   2.110   3.712   8.564
13784WAT     H241595   2.073   3.580   8.653
13785WAT      O41596   9.844   2.659   4.746
13785WAT     H141597   9.918   2.721   4.772
13785WAT     H241598   9.789   2.638   4.827
13786WAT      O41599   4.960   0.177   2.701
13786WAT     H141600   4.910   0.118   2.638
13786WAT     H241601   4.963   0.270   2.664
13787WAT      O41602   2.545   7.550   3.597
13787WAT     H141603   2.640   7.524   3.612
13787WAT     H241604   2.498   7.477   3.547
13788WAT      O41605   5.430   6.997   8.610
13788WAT     H141606   5.399   6.982   8.704
13788WAT     H241607   5.510   7.057   8.611
13789WAT      O41608   2.460   9.848   5.381
13789WAT     H141609   2.367   9.817   5.400
13789WAT     H241610   2.522   9.769   5.385
13790WAT      O41611   8.209   8.903   0.310
13790WAT     H141612   8.259   8.981   0.349
13790WAT     H241613   8.268   8.855   0.245
13791WAT      O41614   3.626   4.960   7.647
13791WAT     H141615   3.593   5.043   7.692
13791WAT     H241616   3.723   4.946   7.671
13792WAT      O41617   3.703   3.155   1.990
13792WAT     H141618   3.661   3.231   2.039
13792WAT     H241619   3.640   3.120   1.921
13793WAT      O41620   5.463   8.667   6.109
13793WAT     H141621   5.554   8.684   6.072
13793WAT     H241622   5.460   8.575   6.148
13794WAT      O41623   8.870   2.409   9.857
13794WAT     H141624   8.808   2.389   9.782
13794WAT     H241625   8.961   2.371   9.837
13795WAT      O41626   9.705   4.316   3.842
13795WAT     H141627   9.757   4.402   3.838
13795WAT     H241628   9.648   4.307   3.760
13796WAT      O41629   3.499   8.765   4.652
13796WAT     H141630   3.493   8.864   4.662
13796WAT     H241631   3.494   8.741   4.555
13797WAT      O41632   6.790   9.442   6.408
13797WAT     H141633   6.887   9.451   6.386
13797WAT     H241634   6.742   9.401   6.331
13798WAT      O41635   1.556   2.789   8.056
13798WAT     H141636   1.549   2.751   8.148
13798WAT     H241637   1.473   2.764   8.005
13799WAT      O41638   3.061   0.981   4.972
13799WAT     H141639   3.073   0.965   5.070
13799WAT     H241640   2.994   1.054   4.958
13800WAT      O41641   3.020   7.415   4.328
13800WAT     H141642   3.095   7.423   4.263
13800WAT     H241643   3.036   7.476   4.406
13801WAT      O41644   0.774   0.407   4.477
13801WAT     H141645   0.750   0.501   4.451
13801WAT     H241646   0.706   0.372   4.541
13802WAT      O41647   0.895   6.525   4.350
13802WAT     H141648   0.882   6.620   4.323
13802WAT     H241649   0.809   6.476   4.340
13803WAT      O41650   9.219   8.359   0.007
13803WAT     H141651   9.175   8.449  -0.001
13803WAT     H241652   9.150   8.288  -0.002
13804WAT      O41653   7.030   7.079   1.506
13804WAT     H141654   7.064   7.081   1.412
13804WAT     H241655   6.935   7.049   1.507
13805WAT      O41656   8.922   5.235   5.198
13805WAT     H141657   8.833   5.197   5.222
13805WAT     H241658   8.955   5.193   5.114
13806WAT      O41659   6.371   0.233   9.091
13806WAT     H141660   6.459   0.279   9.095
13806WAT     H241661   6.381   0.140   9.127
13807WAT      O41662   1.317   4.098   9.481
13807WAT     H141663   1.247   4.140   9.424
13807WAT     H241664   1.353   4.016   9.437
13808WAT      O41665   8.349   9.612   2.401
13808WAT     H141666   8.409   9.560   2.340
13808WAT     H241667   8.306   9.549   2.466
13809WAT      O41668   5.883   2.000   5.240
13809WAT     H141669   5.792   1.958   5.235
13809WAT     H241670   5.937   1.955   5.311
13810WAT      O41671   0.503   6.237   7.936
13810WAT     H141672   0.436   6.187   7.990
13810WAT     H241673   0.548   6.305   7.993
13811WAT      O41674   4.222   2.673   3.681
13811WAT     H141675   4.305   2.728   3.684
13811WAT     H241676   4.170   2.695   3.599
13812WAT      O41677   3.754   9.338   1.768
13812WAT     H141678   3.846   9.341   1.729
13812WAT     H241679   3.691   9.388   1.708
13813WAT      O41680   7.573   9.682   2.244
13813WAT     H141681   7.562   9.610   2.176
13813WAT     H241682   7.504   9.671   2.316
13814WAT      O41683   2.039   7.142   5.154
13814WAT     H141684   1.964   7.097   5.107
13814WAT     H241685   2.057   7.232   5.113
13815WAT      O41686   2.779   8.791   5.946
13815WAT     H141687   2.769   8.857   6.020
13815WAT     H241688   2.765   8.699   5.981
13816WAT      O41689   2.546   0.080   9.474
13816WAT     H141690   2.610   0.141   9.427
13816WAT     H241691   2.512   0.011   9.410
13817WAT      O41692   8.948   6.040   2.638
13817WAT     H141693   8.993   6.117   2.684
13817WAT     H241694   9.017   5.985   2.591
13818WAT      O41695   1.363   1.147   8.971
13818WAT     H141696   1.386   1.055   8.940
13818WAT     H241697   1.357   1.148   9.071
13819WAT      O41698   9.588   2.446   1.270
13819WAT     H141699   9.577   2.351   1.242
13819WAT     H241700   9.655   2.491   1.209
13820WAT      O41701   2.615   8.644   3.541
13820WAT     H141702   2.619   8.550   3.509
13820WAT     H241703   2.683   8.657   3.613
13821WAT      O41704   5.006   7.234   3.213
13821WAT     H141705   5.007   7.135   3.200
13821WAT     H241706   5.000   7.279   3.124
13822WAT      O41707   4.686   2.388   5.577
13822WAT     H141708   4.755   2.357   5.512
13822WAT     H241709   4.646   2.309   5.624
13823WAT      O41710   0.338   5.562   2.234
13823WAT     H141711   0.367   5.552   2.139
13823WAT     H241712   0.377   5.645   2.272
13824WAT      O41713   1.228   5.067   9.351
13824WAT     H141714   1.164   5.003   9.308
13824WAT     H241715   1.289   5.017   9.413
13825WAT      O41716   7.824   6.786   1.902
13825WAT     H141717   7.868   6.805   1.990
13825WAT     H241718   7.763   6.862   1.880
13826WAT      O41719   7.998   2.390   7.100
13826WAT     H141720   7.960   2.463   7.042
13826WAT     H241721   7.960   2.398   7.192
13827WAT      O41722   8.823   8.574   6.496
13827WAT     H141723   8.830   8.503   6.425
13827WAT     H241724   8.913   8.592   6.535
13828WAT      O41725   1.982   0.949   7.181
13828WAT     H141726   1.977   0.850   7.183
13828WAT     H241727   1.999   0.981   7.088
13829WAT      O41728   0.052   3.989   7.593
13829WAT     H141729   0.007   4.034   7.671
13829WAT     H241730   0.150   4.006   7.598
13830WAT      O41731   9.305   8.266   6.967
13830WAT     H141732   9.342   8.279   6.875
13830WAT     H241733   9.213   8.228   6.961
13831WAT      O41734   5.033   8.467   0.554
13831WAT     H141735   5.115   8.452   0.498
13831WAT     H241736   5.056   8.455   0.651
13832WAT      O41737   1.289   9.699   1.721
13832WAT     H141738   1.238   9.665   1.642
13832WAT     H241739   1.278   9.798   1.728
13833WAT      O41740   7.500   5.258   2.002
13833WAT     H141741   7.408   5.290   1.979
13833WAT     H241742   7.553   5.246   1.918
13834WAT      O41743   5.570   4.288   9.622
13834WAT     H141744   5.536   4.196   9.601
13834WAT     H241745   5.670   4.285   9.633
13835WAT      O41746   9.836   5.193   1.650
13835WAT     H141747   9.837   5.093   1.645
13835WAT     H241748   9.793   5.230   1.568
13836WAT      O41749   4.401   0.353   2.139
13836WAT     H141750   4.486   0.339   2.189
13836WAT     H241751   4.397   0.289   2.063
13837WAT      O41752   4.396   5.861   0.025
13837WAT     H141753   4.413   5.960   0.025
13837WAT     H241754   4.311   5.842   0.074
13838WAT      O41755   5.102   6.918   6.905
13838WAT     H141756   5.021   6.950   6.856
13838WAT     H241757   5.184   6.956   6.863
13839WAT      O41758   7.943   5.812   1.745
13839WAT     H141759   7.876   5.819   1.671
13839WAT     H241760   7.941   5.896   1.799
13840WAT      O41761   3.254   0.749   0.884
13840WAT     H141762   3.196   0.813   0.833
13840WAT     H241763   3.206   0.719   0.966
13841WAT      O41764   7.094   7.628   1.085
13841WAT     H141765   7.151   7.681   1.023
13841WAT     H241766   7.061   7.687   1.159
13842WAT      O41767   4.642   5.615   4.554
13842WAT     H141768   4.712   5.546   4.541
13842WAT     H241769   4.665   5.672   4.633
13843WAT      O41770   3.551   3.537   3.852
13843WAT     H141771   3.465   3.587   3.863
13843WAT     H241772   3.579   3.498   3.940
13844WAT      O41773   9.219   7.091   6.069
13844WAT     H141774   9.192   7.073   5.974
13844WAT     H241775   9.164   7.034   6.130
13845WAT      O41776   1.115   3.186   1.563
13845WAT     H141777   1.029   3.138   1.547
13845WAT     H241778   1.102   3.284   1.550
13846WAT      O41779   2.437   1.763   0.240
13846WAT     H141780   2.394   1.832   0.298
13846WAT     H241781   2.376   1.685   0.229
13847WAT      O41782   8.860   6.345   0.277
13847WAT     H141783   8.944   6.290   0.277
13847WAT     H241784   8.782   6.285   0.262
13848WAT      O41785   2.188   6.554   1.031
13848WAT     H141786   2.255   6.506   0.974
13848WAT     H241787   2.230   6.581   1.118
13849WAT      O41788   2.831   5.290   0.831
13849WAT     H141789   2.825   5.191   0.837
13849WAT     H241790   2.764   5.332   0.893
13850WAT      O41791   5.089   6.671   8.548
13850WAT     H141792   5.157   6.717   8.491
13850WAT     H241793   5.028   6.616   8.491
13851WAT      O41794   5.632   7.014   5.794
13851WAT     H141795   5.620   7.111   5.812
13851WAT     H241796   5.722   6.998   5.754
13852WAT      O41797   4.396   0.251   8.583
13852WAT     H141798   4.477   0.275   8.637
13852WAT     H241799   4.314   0.262   8.640
13853WAT      O41800   4.302   3.585   3.982
13853WAT     H141801   4.317   3.590   3.883
13853WAT     H241802   4.208   3.612   4.003
13854WAT      O41803   7.190   9.245   9.502
13854WAT     H141804   7.135   9.178   9.551
13854WAT     H241805   7.137   9.284   9.427
13855WAT      O41806   4.559   0.436   2.481
13855WAT     H141807   4.605   0.521   2.456
13855WAT     H241808   4.461   0.452   2.490
13856WAT      O41809   3.672   2.184   2.557
13856WAT     H141810   3.755   2.173   2.612
13856WAT     H241811   3.695   2.236   2.474
13857WAT      O41812   9.045   4.897   1.170
13857WAT     H141813   9.041   4.968   1.099
13857WAT     H241814   9.039   4.940   1.260
13858WAT      O41815   6.416   0.635   6.857
13858WAT     H141816   6.385   0.542   6.840
13858WAT     H241817   6.490   0.635   6.924
13859WAT      O41818   7.636   4.453   0.297
13859WAT     H141819   7.718   4.400   0.323
13859WAT     H241820   7.628   4.455   0.198
13860WAT      O41821   5.584   7.752   7.852
13860WAT     H141822   5.646   7.825   7.823
13860WAT     H241823   5.528   7.784   7.928
13861WAT      O41824   2.495   4.643   6.940
13861WAT     H141825   2.401   4.673   6.959
13861WAT     H241826   2.555   4.722   6.935
13862WAT      O41827   9.535   4.297   5.096
13862WAT     H141828   9.601   4.265   5.165
13862WAT     H241829   9.583   4.315   5.010
13863WAT      O41830   1.208   4.693   0.490
13863WAT     H141831   1.132   4.715   0.550
13863WAT     H241832   1.185   4.613   0.434
13864WAT      O41833   5.885   0.218   3.810
13864WAT     H141834   5.929   0.274   3.740
13864WAT     H241835   5.913   0.248   3.900
13865WAT      O41836   2.560   8.446   5.714
13865WAT     H141837   2.622   8.461   5.791
13865WAT     H241838   2.484   8.510   5.719
13866WAT      O41839   1.090   2.860   5.824
13866WAT     H141840   1.113   2.946   5.778
13866WAT     H241841   1.103   2.870   5.922
13867WAT      O41842   0.965   5.976   3.583
13867WAT     H141843   1.031   5.910   3.547
13867WAT     H241844   1.010   6.064   3.598
13868WAT      O41845   8.847   9.076   5.464
13868WAT     H141846   8.754   9.098   5.437
13868WAT     H241847   8.874   8.988   5.424
13869WAT      O41848   3.580   6.865   5.629
13869WAT     H141849   3.566   6.769   5.653
13869WAT     H241850   3.545   6.882   5.537
13870WAT      O41851   7.156   7.603   4.576
13870WAT     H141852   7.160   7.503   4.575
13870WAT     H241853   7.062   7.633   4.562
13871WAT      O41854   9.033   5.626   3.272
13871WAT     H141855   8.998   5.566   3.200
13871WAT     H241856   9.085   5.572   3.338
13872WAT      O41857   2.581   7.221   7.651
13872WAT     H141858   2.509   7.290   7.644
13872WAT     H241859   2.663   7.263   7.690
13873WAT      O41860   4.632   1.084   4.945
13873WAT     H141861   4.705   1.152   4.945
13873WAT     H241862   4.637   1.028   4.862
13874WAT      O41863   7.451   3.398   4.370
13874WAT     H141864   7.475   3.356   4.282
13874WAT     H241865   7.518   3.370   4.439
13875WAT      O41866   9.194   4.521   3.084
13875WAT     H141867   9.236   4.489   2.999
13875WAT     H241868   9.255   4.502   3.161
13876WAT      O41869   2.296   2.446   3.119
13876WAT     H141870   2.282   2.528   3.063
13876WAT     H241871   2.215   2.431   3.175
13877WAT      O41872   7.201   7.994   3.177
13877WAT     H141873   7.244   7.953   3.097
13877WAT     H241874   7.140   7.928   3.220
13878WAT      O41875   0.745   7.111   1.492
13878WAT     H141876   0.833   7.149   1.521
13878WAT     H241877   0.701   7.067   1.570
13879WAT      O41878   1.376   8.534   3.727
13879WAT     H141879   1.369   8.494   3.636
13879WAT     H241880   1.369   8.633   3.721
13880WAT      O41881   4.542   9.450   3.084
13880WAT     H141882   4.509   9.478   2.994
13880WAT     H241883   4.609   9.517   3.117
13881WAT      O41884   6.133   2.001   1.583
13881WAT     H141885   6.081   1.951   1.515
13881WAT     H241886   6.107   2.098   1.580
13882WAT      O41887   0.671   0.851   9.699
13882WAT     H141888   0.629   0.904   9.772
13882WAT     H241889   0.639   0.884   9.610
13883WAT      O41890   4.676   6.524   9.361
13883WAT     H141891   4.614   6.588   9.406
13883WAT     H241892   4.637   6.495   9.274
13884WAT      O41893   2.123   2.435   4.207
13884WAT     H141894   2.099   2.369   4.136
13884WAT     H241895   2.058   2.427   4.283
13885WAT      O41896   4.672   5.277   2.827
13885WAT     H141897   4.671   5.202   2.761
13885WAT     H241898   4.762   5.284   2.869
13886WAT      O41899   4.935   1.561   6.720
13886WAT     H141900   5.030   1.574   6.746
13886WAT     H241901   4.930   1.528   6.626
13887WAT      O41902   5.353   9.450   9.501
13887WAT     H141903   5.275   9.469   9.560
13887WAT     H241904   5.334   9.369   9.446
13888WAT      O41905   6.996   1.775   9.290
13888WAT     H141906   6.982   1.819   9.202
13888WAT     H241907   7.071   1.820   9.338
13889WAT      O41908   6.607   4.011   0.219
13889WAT     H141909   6.568   3.927   0.181
13889WAT     H241910   6.693   4.032   0.173
13890WAT      O41911   7.644   2.865   8.847
13890WAT     H141912   7.667   2.798   8.918
13890WAT     H241913   7.686   2.838   8.761
13891WAT      O41914   3.150   6.739   7.460
13891WAT     H141915   3.079   6.721   7.391
13891WAT     H241916   3.159   6.660   7.520
13892WAT      O41917   6.167   5.351   0.241
13892WAT     H141918   6.179   5.399   0.153
13892WAT     H241919   6.208   5.260   0.235
13893WAT      O41920   5.209   8.148   7.671
13893WAT     H141921   5.302   8.154   7.635
13893WAT     H241922   5.167   8.063   7.640
13894WAT      O41923   6.366   6.555   6.993
13894WAT     H141924   6.286   6.574   7.050
13894WAT     H241925   6.338   6.545   6.898
13895WAT      O41926   4.891   2.509   9.777
13895WAT     H141927   4.893   2.508   9.877
13895WAT     H241928   4.881   2.416   9.743
13896WAT      O41929   4.226   2.942   4.318
13896WAT     H141930   4.153   2.975   4.259
13896WAT     H241931   4.274   2.867   4.273
13897WAT      O41932   0.195   8.416   5.149
13897WAT     H141933   0.277   8.359   5.133
13897WAT     H241934   0.146   8.381   5.229
13898WAT      O41935   7.727   5.003   3.262
13898WAT     H141936   7.763   4.983   3.171
13898WAT     H241937   7.674   4.926   3.295
13899WAT      O41938   6.557   5.321   0.788
13899WAT     H141939   6.628   5.264   0.828
13899WAT     H241940   6.594   5.412   0.770
13900WAT      O41941   1.982   1.718   2.468
13900WAT     H141942   1.940   1.681   2.551
13900WAT     H241943   1.964   1.816   2.462
13901WAT      O41944   5.953   3.106   9.421
13901WAT     H141945   5.879   3.136   9.361
13901WAT     H241946   5.974   3.178   9.487
13902WAT      O41947   1.066   7.717   7.716
13902WAT     H141948   1.055   7.622   7.687
13902WAT     H241949   1.028   7.727   7.808
13903WAT      O41950   9.670   6.953   3.880
13903WAT     H141951   9.612   6.955   3.799
13903WAT     H241952   9.685   7.046   3.913
13904WAT      O41953   6.960   6.791   5.113
13904WAT     H141954   6.895   6.835   5.174
13904WAT     H241955   6.999   6.859   5.050
13905WAT      O41956   0.090   6.795   4.361
13905WAT     H141957   0.149   6.828   4.288
13905WAT     H241958   0.132   6.716   4.405
13906WAT      O41959   9.818   4.551   3.880
13906WAT     H141960   9.892   4.588   3.825
13906WAT     H241961   9.853   4.526   3.970
13907WAT      O41962   2.868   3.613   4.829
13907WAT     H141963   2.931   3.542   4.798
13907WAT     H241964   2.870   3.618   4.929
13908WAT      O41965   0.459   9.418   1.850
13908WAT     H141966   0.536   9.399   1.912
13908WAT     H241967   0.459   9.515   1.826
13909WAT      O41968   9.166   8.624   0.941
13909WAT     H141969   9.165   8.568   1.023
13909WAT     H241970   9.174   8.566   0.860
13910WAT      O41971   8.549   2.138   7.442
13910WAT     H141972   8.615   2.103   7.376
13910WAT     H241973   8.594   2.202   7.504
13911WAT      O41974   2.215   7.206   9.341
13911WAT     H141975   2.243   7.112   9.361
13911WAT     H241976   2.250   7.267   9.411
13912WAT      O41977   0.669   5.093   1.516
13912WAT     H141978   0.767   5.076   1.510
13912WAT     H241979   0.653   5.180   1.563
13913WAT      O41980   1.457   6.549   4.560
13913WAT     H141981   1.503   6.633   4.586
13913WAT     H241982   1.445   6.547   4.461
13914WAT      O41983   4.001   3.774   2.430
13914WAT     H141984   4.040   3.725   2.508
13914WAT     H241985   3.996   3.871   2.452
13915WAT      O41986   5.564   1.561   5.644
13915WAT     H141987   5.537   1.650   5.607
13915WAT     H241988   5.663   1.552   5.638
13916WAT      O41989   0.539   5.156   8.398
13916WAT     H141990   0.458   5.196   8.440
13916WAT     H241991   0.534   5.166   8.298
13917WAT      O41992   2.873   6.837   4.231
13917WAT     H141993   2.894   6.827   4.134
13917WAT     H241994   2.952   6.809   4.285
13918WAT      O41995   5.678   3.447   9.075
13918WAT     H141996   5.611   3.428   9.146
13918WAT     H241997   5.654   3.396   8.992
13919WAT      O41998   9.111   2.898   2.189
13919WAT     H141999   9.159   2.985   2.201
13919WAT     H242000   9.166   2.838   2.131
13920WAT      O42001   4.545   1.180   9.861
13920WAT     H142002   4.588   1.178   9.771
13920WAT     H242003   4.483   1.259   9.867
13921WAT      O42004   4.767   6.022   0.289
13921WAT     H142005   4.765   5.922   0.279
13921WAT     H242006   4.789   6.045   0.383
13922WAT      O42007   8.548   3.720   3.741
13922WAT     H142008   8.541   3.820   3.739
13922WAT     H242009   8.644   3.693   3.737
13923WAT      O42010   5.102   8.433   5.791
13923WAT     H142011   5.134   8.472   5.705
13923WAT     H242012   5.180   8.399   5.844
13924WAT      O42013   8.065   4.627   6.974
13924WAT     H142014   8.125   4.547   6.975
13924WAT     H242015   7.993   4.616   7.042
13925WAT      O42016   0.669   2.861   8.996
13925WAT     H142017   0.716   2.895   8.914
13925WAT     H242018   0.698   2.767   9.014
13926WAT      O42019   9.081   2.198   0.698
13926WAT     H142020   9.012   2.230   0.633
13926WAT     H242021   9.149   2.270   0.712
13927WAT      O42022   6.332   8.183   4.459
13927WAT     H142023   6.372   8.092   4.451
13927WAT     H242024   6.242   8.176   4.503
13928WAT      O42025   2.389   6.754   7.249
13928WAT     H142026   2.480   6.778   7.216
13928WAT     H242027   2.375   6.655   7.239
13929WAT      O42028   7.371   8.675   1.171
13929WAT     H142029   7.361   8.717   1.081
13929WAT     H242030   7.402   8.743   1.237
13930WAT      O42031   8.764   8.644   7.086
13930WAT     H142032   8.696   8.616   7.018
13930WAT     H242033   8.727   8.630   7.178
13931WAT      O42034   6.247   7.210   0.363
13931WAT     H142035   6.331   7.260   0.340
13931WAT     H242036   6.240   7.200   0.462
13932WAT      O42037   7.553   7.500   9.602
13932WAT     H142038   7.566   7.409   9.563
13932WAT     H242039   7.496   7.554   9.540
13933WAT      O42040   5.565   2.532   8.223
13933WAT     H142041   5.485   2.501   8.171
13933WAT     H242042   5.537   2.561   8.314
13934WAT      O42043   3.580   1.153   1.084
13934WAT     H142044   3.665   1.102   1.076
13934WAT     H242045   3.546   1.175   0.992
13935WAT      O42046   7.848   0.718   8.479
13935WAT     H142047   7.873   0.715   8.576
13935WAT     H242048   7.838   0.625   8.444
13936WAT      O42049   3.145   3.580   7.036
13936WAT     H142050   3.106   3.645   7.100
13936WAT     H242051   3.241   3.603   7.019
13937WAT      O42052   4.379   9.410   0.733
13937WAT     H142053   4.376   9.310   0.738
13937WAT     H242054   4.342   9.440   0.645
13938WAT      O42055   9.355   2.860   7.613
13938WAT     H142056   9.350   2.770   7.658
13938WAT     H242057   9.370   2.930   7.682
13939WAT      O42058   0.618   2.778   8.631
13939WAT     H142059   0.588   2.758   8.538
13939WAT     H242060   0.622   2.877   8.644
13940WAT      O42061   0.110   9.441   7.705
13940WAT     H142062   0.078   9.444   7.800
13940WAT     H242063   0.076   9.521   7.656
13941WAT      O42064   2.908   0.148   1.540
13941WAT     H142065   2.896   0.059   1.497
13941WAT     H242066   3.004   0.159   1.567
13942WAT      O42067   4.311   5.828   3.884
13942WAT     H142068   4.284   5.732   3.885
13942WAT     H242069   4.406   5.837   3.855
13943WAT      O42070   5.536   5.461   5.362
13943WAT     H142071   5.538   5.367   5.395
13943WAT     H242072   5.624   5.484   5.322
13944WAT      O42073   0.245   7.653   7.631
13944WAT     H142074   0.173   7.638   7.562
13944WAT     H242075   0.204   7.655   7.722
13945WAT      O42076   4.343   5.333   4.806
13945WAT     H142077   4.374   5.373   4.720
13945WAT     H242078   4.261   5.381   4.838
13946WAT      O42079   8.908   3.862   2.660
13946WAT     H142080   8.998   3.904   2.658
13946WAT     H242081   8.916   3.766   2.689
13947WAT      O42082   9.015   9.112   3.727
13947WAT     H142083   9.028   9.062   3.812
13947WAT     H242084   9.045   9.207   3.739
13948WAT      O42085   8.611   0.816   0.848
13948WAT     H142086   8.674   0.890   0.873
13948WAT     H242087   8.550   0.798   0.925
13949WAT      O42088   2.284   4.267   6.886
13949WAT     H142089   2.325   4.180   6.913
13949WAT     H242090   2.282   4.329   6.965
13950WAT      O42091   4.130   8.134   4.148
13950WAT     H142092   4.049   8.192   4.148
13950WAT     H242093   4.199   8.173   4.087
13951WAT      O42094   5.941   0.840   7.562
13951WAT     H142095   6.017   0.868   7.620
13951WAT     H242096   5.873   0.792   7.617
13952WAT      O42097   2.799   7.250   9.569
13952WAT     H142098   2.864   7.185   9.609
13952WAT     H242099   2.846   7.337   9.552
13953WAT      O42100   4.078   5.596   7.653
13953WAT     H142101   4.103   5.502   7.673
13953WAT     H242102   3.983   5.612   7.678
13954WAT      O42103   0.585   3.956   9.307
13954WAT     H142104   0.662   3.894   9.323
13954WAT     H242105   0.607   4.046   9.344
13955WAT      O42106   9.689   1.468   7.661
13955WAT     H142107   9.670   1.538   7.731
13955WAT     H242108   9.718   1.383   7.706
13956WAT      O42109   2.242   1.501   5.847
13956WAT     H142110   2.314   1.539   5.789
13956WAT     H242111   2.198   1.575   5.899
13957WAT      O42112   6.921   1.941   6.004
13957WAT     H142113   6.977   1.991   6.070
13957WAT     H242114   6.918   1.844   6.028
13958WAT      O42115   0.848   2.464   9.537
13958WAT     H142116   0.755   2.501   9.539
13958WAT     H242117   0.868   2.430   9.445
13959WAT      O42118   9.448   0.721   1.094
13959WAT     H142119   9.360   0.674   1.088
13959WAT     H242120   9.435   0.811   1.135
13960WAT      O42121   7.416   7.587   2.159
13960WAT     H142122   7.408   7.491   2.182
13960WAT     H242123   7.389   7.601   2.063
13961WAT      O42124   2.039   7.747   0.452
13961WAT     H142125   2.033   7.759   0.551
13961WAT     H242126   1.961   7.693   0.420
13962WAT      O42127   6.508   2.218   2.952
13962WAT     H142128   6.411   2.235   2.936
13962WAT     H242129   6.529   2.122   2.933
13963WAT      O42130   0.401   2.197   5.374
13963WAT     H142131   0.412   2.247   5.460
13963WAT     H242132   0.364   2.257   5.304
13964WAT      O42133   2.234   1.462   2.503
13964WAT     H142134   2.275   1.554   2.504
13964WAT     H242135   2.221   1.431   2.597
13965WAT      O42136   8.501   6.417   2.044
13965WAT     H142137   8.508   6.423   2.144
13965WAT     H242138   8.430   6.351   2.020
13966WAT      O42139   9.148   6.111   4.344
13966WAT     H142140   9.119   6.057   4.264
13966WAT     H242141   9.208   6.056   4.402
13967WAT      O42142   5.564   3.263   6.180
13967WAT     H142143   5.551   3.331   6.252
13967WAT     H242144   5.579   3.309   6.092
13968WAT      O42145   9.489   4.158   4.235
13968WAT     H142146   9.396   4.145   4.203
13968WAT     H242147   9.513   4.255   4.228
13969WAT      O42148   7.346   0.314   4.607
13969WAT     H142149   7.408   0.341   4.532
13969WAT     H242150   7.400   0.298   4.690
13970WAT      O42151   2.286   7.330   4.667
13970WAT     H142152   2.198   7.376   4.659
13970WAT     H242153   2.305   7.311   4.763
13971WAT      O42154   5.516   8.955   9.333
13971WAT     H142155   5.595   8.896   9.322
13971WAT     H242156   5.485   8.987   9.243
13972WAT      O42157   9.016   7.159   2.633
13972WAT     H142158   9.006   7.139   2.730
13972WAT     H242159   8.988   7.254   2.616
13973WAT      O42160   3.667   1.818   7.558
13973WAT     H142161   3.728   1.888   7.595
13973WAT     H242162   3.638   1.756   7.631
13974WAT      O42163   3.780   2.656   9.366
13974WAT     H142164   3.692   2.689   9.331
13974WAT     H242165   3.840   2.633   9.290
13975WAT      O42166   2.292   6.553   4.042
13975WAT     H142167   2.347   6.635   4.032
13975WAT     H242168   2.243   6.535   3.956
13976WAT      O42169   7.963   8.856   7.503
13976WAT     H142170   7.907   8.936   7.524
13976WAT     H242171   7.910   8.791   7.449
13977WAT      O42172   0.742   9.468   8.910
13977WAT     H142173   0.828   9.418   8.902
13977WAT     H242174   0.668   9.405   8.935
13978WAT      O42175   8.364   6.038   9.450
13978WAT     H142176   8.377   5.950   9.496
13978WAT     H242177   8.312   6.099   9.509
13979WAT      O42178   2.648   7.574   0.699
13979WAT     H142179   2.615   7.666   0.720
13979WAT     H242180   2.577   7.507   0.721
13980WAT      O42181   6.014   2.081   5.010
13980WAT     H142182   5.959   2.025   5.071
13980WAT     H242183   6.108   2.084   5.043
13981WAT      O42184   4.467   6.651   0.280
13981WAT     H142185   4.425   6.620   0.195
13981WAT     H242186   4.398   6.693   0.338
13982WAT      O42187   3.649   9.259   7.985
13982WAT     H142188   3.637   9.283   8.081
13982WAT     H242189   3.746   9.241   7.967
13983WAT      O42190   7.240   5.170   5.663
13983WAT     H142191   7.337   5.155   5.684
13983WAT     H242192   7.228   5.263   5.627
13984WAT      O42193   3.840   9.247   7.083
13984WAT     H142194   3.819   9.226   7.179
13984WAT     H242195   3.929   9.293   7.078
13985WAT      O42196   0.870   2.748   2.243
13985WAT     H142197   0.848   2.673   2.181
13985WAT     H242198   0.835   2.726   2.335
13986WAT      O42199   8.263   1.848   4.342
13986WAT     H142200   8.314   1.908   4.405
13986WAT     H242201   8.326   1.809   4.275
13987WAT      O42202   1.778   4.239   4.750
13987WAT     H142203   1.697   4.240   4.809
13987WAT     H242204   1.806   4.144   4.733
13988WAT      O42205   6.827   2.266   2.984
13988WAT     H142206   6.773   2.186   2.959
13988WAT     H242207   6.772   2.328   3.039
13989WAT      O42208   6.015   8.874   3.231
13989WAT     H142209   5.977   8.936   3.162
13989WAT     H242210   6.042   8.927   3.312
13990WAT      O42211   2.275   8.982   9.118
13990WAT     H142212   2.353   8.944   9.068
13990WAT     H242213   2.242   9.064   9.070
13991WAT      O42214   7.751   7.003   8.478
13991WAT     H142215   7.835   6.950   8.468
13991WAT     H242216   7.718   6.995   8.572
13992WAT      O42217   3.950   7.326   9.590
13992WAT     H142218   4.017   7.265   9.549
13992WAT     H242219   3.907   7.382   9.519
13993WAT      O42220   2.058   2.115   1.169
13993WAT     H142221   2.144   2.121   1.220
13993WAT     H242222   2.033   2.206   1.135
13994WAT      O42223   9.429   4.733   9.699
13994WAT     H142224   9.401   4.776   9.613
13994WAT     H242225   9.529   4.729   9.703
13995WAT      O42226   5.523   5.689   3.186
13995WAT     H142227   5.463   5.768   3.188
13995WAT     H242228   5.529   5.653   3.093
13996WAT      O42229   1.056   3.670   9.027
13996WAT     H142230   1.066   3.593   9.090
13996WAT     H242231   0.967   3.713   9.041
13997WAT      O42232   6.322   0.412   2.489
13997WAT     H142233   6.242   0.413   2.548
13997WAT     H242234   6.305   0.469   2.409
13998WAT      O42235   7.794   2.020   5.883
13998WAT     H142236   7.879   2.056   5.920
13998WAT     H242237   7.716   2.067   5.925
13999WAT      O42238   9.549   1.801   0.517
13999WAT     H142239   9.585   1.720   0.563
13999WAT     H242240   9.488   1.773   0.443
14000WAT      O42241   0.555   4.173   5.981
14000WAT     H142242   0.539   4.252   5.921
14000WAT     H242243   0.482   4.167   6.049
14001WAT      O42244   4.302   9.158   3.751
14001WAT     H142245   4.358   9.184   3.831
14001WAT     H242246   4.283   9.240   3.697
14002WAT      O42247   8.218   5.554   4.499
14002WAT     H142248   8.310   5.550   4.460
14002WAT     H242249   8.221   5.608   4.583
14003WAT      O42250   6.640   3.115   4.860
14003WAT     H142251   6.566   3.049   4.875
14003WAT     H242252   6.616   3.202   4.902
14004WAT      O42253   7.343   1.716   5.510
14004WAT     H142254   7.354   1.788   5.578
14004WAT     H242255   7.426   1.661   5.505
14005WAT      O42256   9.724   6.092   6.722
14005WAT     H142257   9.734   6.023   6.793
14005WAT     H242258   9.802   6.088   6.660
14006WAT      O42259   0.872   1.733   8.981
14006WAT     H142260   0.864   1.805   9.050
14006WAT     H242261   0.873   1.644   9.027
14007WAT      O42262   4.904   9.452   8.945
14007WAT     H142263   4.842   9.529   8.957
14007WAT     H242264   4.897   9.391   9.024
14008WAT      O42265   7.859   8.267   5.913
14008WAT     H142266   7.859   8.365   5.890
14008WAT     H242267   7.924   8.250   5.987
14009WAT      O42268   2.432   4.502   2.279
14009WAT     H142269   2.487   4.438   2.333
14009WAT     H242270   2.483   4.587   2.266
14010WAT      O42271   3.271   2.395   9.883
14010WAT     H142272   3.172   2.407   9.885
14010WAT     H242273   3.307   2.395   9.977
14011WAT      O42274   7.097   7.302   6.017
14011WAT     H142275   7.119   7.339   6.108
14011WAT     H242276   7.080   7.203   6.025
14012WAT      O42277   3.651   6.723   8.038
14012WAT     H142278   3.563   6.694   8.000
14012WAT     H242279   3.654   6.702   8.136
14013WAT      O42280   5.741   3.181   7.091
14013WAT     H142281   5.708   3.134   7.010
14013WAT     H242282   5.758   3.277   7.069
14014WAT      O42283   5.964   2.453   5.863
14014WAT     H142284   5.984   2.440   5.765
14014WAT     H242285   6.048   2.439   5.916
14015WAT      O42286   3.216   9.454   1.941
14015WAT     H142287   3.232   9.454   1.842
14015WAT     H242288   3.121   9.426   1.959
14016WAT      O42289   1.405   2.064   3.603
14016WAT     H142290   1.463   1.989   3.634
14016WAT     H242291   1.458   2.126   3.546
14017WAT      O42292   9.573   2.294   6.828
14017WAT     H142293   9.521   2.354   6.767
14017WAT     H242294   9.669   2.322   6.829
14018WAT      O42295   5.660   5.741   3.424
14018WAT     H142296   5.589   5.738   3.493
14018WAT     H242297   5.622   5.712   3.336
14019WAT      O42298   5.023   8.262   5.348
14019WAT     H142299   4.985   8.306   5.266
14019WAT     H242300   4.961   8.190   5.379
14020WAT      O42301   8.280   2.092   8.301
14020WAT     H142302   8.300   2.033   8.380
14020WAT     H242303   8.275   2.187   8.331
14021WAT      O42304   5.284   0.061   3.749
14021WAT     H142305   5.217   0.038   3.678
14021WAT     H242306   5.321   0.152   3.732
14022WAT      O42307   8.255   5.309   5.880
14022WAT     H142308   8.164   5.337   5.910
14022WAT     H242309   8.285   5.232   5.935
14023WAT      O42310   9.210   6.872   8.303
14023WAT     H142311   9.112   6.866   8.288
14023WAT     H242312   9.243   6.790   8.349
14024WAT      O42313   5.937   4.197   0.207
14024WAT     H142314   5.919   4.143   0.125
14024WAT     H242315   5.858   4.190   0.269
14025WAT      O42316   4.107   1.685   0.305
14025WAT     H142317   4.056   1.640   0.232
14025WAT     H242318   4.061   1.673   0.392
14026WAT      O42319   7.855   6.189   6.359
14026WAT     H142320   7.836   6.192   6.260
14026WAT     H242321   7.816   6.106   6.397
14027WAT      O42322   2.050   9.077   1.242
14027WAT     H142323   2.019   8.991   1.201
14027WAT     H242324   2.014   9.154   1.190
14028WAT      O42325   6.637   1.785   2.213
14028WAT     H142326   6.663   1.757   2.120
14028WAT     H242327   6.604   1.705   2.263
14029WAT      O42328   6.053   8.049   5.538
14029WAT     H142329   6.044   8.073   5.635
14029WAT     H242330   5.982   8.097   5.485
14030WAT      O42331   4.400   2.076   5.359
14030WAT     H142332   4.384   2.123   5.272
14030WAT     H242333   4.498   2.064   5.374
14031WAT      O42334   3.224   4.851   9.021
14031WAT     H142335   3.127   4.870   9.005
14031WAT     H242336   3.241   4.753   9.006
14032WAT      O42337   0.291   4.806   8.645
14032WAT     H142338   0.334   4.720   8.671
14032WAT     H242339   0.343   4.882   8.684
14033WAT      O42340   3.107   3.653   5.053
14033WAT     H142341   3.124   3.749   5.033
14033WAT     H242342   3.177   3.596   5.008
14034WAT      O42343   9.805   6.503   6.884
14034WAT     H142344   9.842   6.425   6.935
14034WAT     H242345   9.727   6.473   6.829
14035WAT      O42346   4.041   3.580   2.641
14035WAT     H142347   3.983   3.613   2.716
14035WAT     H242348   4.004   3.494   2.605
14036WAT      O42349   2.454   0.521   6.709
14036WAT     H142350   2.482   0.556   6.620
14036WAT     H242351   2.438   0.597   6.772
14037WAT      O42352   3.419   9.325   6.931
14037WAT     H142353   3.339   9.295   6.877
14037WAT     H242354   3.399   9.313   7.028
14038WAT      O42355   7.312   8.974   2.758
14038WAT     H142356   7.406   8.991   2.729
14038WAT     H242357   7.272   8.900   2.704
14039WAT      O42358   2.879   9.470   7.319
14039WAT     H142359   2.932   9.443   7.238
14039WAT     H242360   2.797   9.413   7.326
14040WAT      O42361   2.586   1.571   1.304
14040WAT     H142362   2.580   1.596   1.400
14040WAT     H242363   2.609   1.474   1.296
14041WAT      O42364   0.276   9.551   0.245
14041WAT     H142365   0.342   9.488   0.286
14041WAT     H242366   0.202   9.499   0.202
14042WAT      O42367   0.482   9.080   9.466
14042WAT     H142368   0.495   8.985   9.494
14042WAT     H242369   0.540   9.100   9.387
14043WAT      O42370   0.748   9.791   4.913
14043WAT     H142371   0.743   9.825   4.819
14043WAT     H242372   0.708   9.700   4.917
14044WAT      O42373   6.786   9.073   9.337
14044WAT     H142374   6.869   9.128   9.345
14044WAT     H242375   6.706   9.133   9.338
14045WAT      O42376   1.827   4.780   4.289
14045WAT     H142377   1.753   4.723   4.326
14045WAT     H242378   1.915   4.746   4.324
14046WAT      O42379   4.206   2.611   0.083
14046WAT     H142380   4.122   2.636   0.131
14046WAT     H242381   4.200   2.516   0.053
14047WAT      O42382   8.636   6.797   9.871
14047WAT     H142383   8.641   6.716   9.929
14047WAT     H242384   8.683   6.873   9.916
14048WAT      O42385   1.802   8.540   5.238
14048WAT     H142386   1.738   8.613   5.263
14048WAT     H242387   1.892   8.560   5.276
14049WAT      O42388   8.970   5.983   3.207
14049WAT     H142389   8.905   5.909   3.225
14049WAT     H242390   9.045   5.979   3.274
14050WAT      O42391   5.377   3.239   7.486
14050WAT     H142392   5.295   3.222   7.542
14050WAT     H242393   5.360   3.209   7.392
14051WAT      O42394   9.050   6.181   1.738
14051WAT     H142395   8.971   6.195   1.797
14051WAT     H242396   9.067   6.083   1.727
14052WAT      O42397   8.521   1.806   4.873
14052WAT     H142398   8.612   1.842   4.851
14052WAT     H242399   8.529   1.733   4.940
14053WAT      O42400   8.024   6.388   1.027
14053WAT     H142401   7.963   6.394   0.948
14053WAT     H242402   7.970   6.398   1.111
14054WAT      O42403   4.732   8.787   0.703
14054WAT     H142404   4.702   8.882   0.700
14054WAT     H242405   4.802   8.771   0.633
14055WAT      O42406   5.125   6.183   3.898
14055WAT     H142407   5.028   6.206   3.897
14055WAT     H242408   5.174   6.245   3.836
14056WAT      O42409   7.607   4.289   6.173
14056WAT     H142410   7.638   4.250   6.259
14056WAT     H242411   7.635   4.229   6.098
14057WAT      O42412   7.706   2.128   2.390
14057WAT     H142413   7.777   2.191   2.424
14057WAT     H242414   7.621   2.178   2.377
14058WAT      O42415   1.036   0.273   8.286
14058WAT     H142416   1.058   0.357   8.336
14058WAT     H242417   1.100   0.201   8.311
14059WAT      O42418   9.378   5.548   3.113
14059WAT     H142419   9.414   5.549   3.206
14059WAT     H242420   9.443   5.501   3.053
14060WAT      O42421   4.543   9.788   2.273
14060WAT     H142422   4.549   9.870   2.330
14060WAT     H242423   4.573   9.709   2.326
14061WAT      O42424   2.543   9.016   7.512
14061WAT     H142425   2.453   9.037   7.549
14061WAT     H242426   2.575   8.928   7.548
14062WAT      O42427   9.019   0.930   4.606
14062WAT     H142428   9.018   0.884   4.695
14062WAT     H242429   8.931   0.975   4.591
14063WAT      O42430   9.685   1.727   4.175
14063WAT     H142431   9.601   1.756   4.129
14063WAT     H242432   9.764   1.769   4.129
14064WAT      O42433   5.481   3.668   7.675
14064WAT     H142434   5.400   3.630   7.720
14064WAT     H242435   5.556   3.674   7.741
14065WAT      O42436   5.318   2.119   2.993
14065WAT     H142437   5.344   2.031   2.954
14065WAT     H242438   5.386   2.188   2.969
14066WAT      O42439   3.116   6.790   2.747
14066WAT     H142440   3.194   6.849   2.767
14066WAT     H242441   3.086   6.805   2.653
14067WAT      O42442   8.705   5.806   4.937
14067WAT     H142443   8.630   5.826   4.999
14067WAT     H242444   8.788   5.853   4.968
14068WAT      O42445   2.947   1.173   5.560
14068WAT     H142446   2.924   1.250   5.621
14068WAT     H242447   2.905   1.189   5.470
14069WAT      O42448   2.947   4.760   5.778
14069WAT     H142449   2.988   4.746   5.868
14069WAT     H242450   3.016   4.798   5.716
14070WAT      O42451   7.551   8.699   0.065
14070WAT     H142452   7.569   8.736   0.157
14070WAT     H242453   7.608   8.747  -0.002
14071WAT      O42454   7.910   3.470   2.150
14071WAT     H142455   7.886   3.546   2.090
14071WAT     H242456   7.933   3.506   2.241
14072WAT      O42457   0.221   7.437   2.440
14072WAT     H142458   0.257   7.346   2.461
14072WAT     H242459   0.164   7.468   2.517
14073WAT      O42460   6.209   8.808   4.193
14073WAT     H142461   6.267   8.815   4.111
14073WAT     H242462   6.209   8.895   4.241
14074WAT      O42463   3.793   0.132   5.791
14074WAT     H142464   3.700   0.117   5.825
14074WAT     H242465   3.849   0.171   5.865
14075WAT      O42466   0.455   3.921   8.531
14075WAT     H142467   0.445   3.887   8.438
14075WAT     H242468   0.487   4.015   8.529
14076WAT      O42469   3.552   6.094   1.572
14076WAT     H142470   3.577   6.085   1.668
14076WAT     H242471   3.488   6.021   1.547
14077WAT      O42472   9.644   7.032   5.773
14077WAT     H142473   9.618   6.977   5.693
14077WAT     H242474   9.691   7.115   5.742
14078WAT      O42475   5.677   3.746   6.371
14078WAT     H142476   5.694   3.681   6.297
14078WAT     H242477   5.757   3.806   6.382
14079WAT      O42478   8.181   4.678   2.398
14079WAT     H142479   8.117   4.706   2.326
14079WAT     H242480   8.192   4.753   2.463
14080WAT      O42481   9.380   2.279   2.213
14080WAT     H142482   9.356   2.225   2.294
14080WAT     H242483   9.323   2.251   2.136
14081WAT      O42484   5.398   8.815   5.103
14081WAT     H142485   5.383   8.785   5.197
14081WAT     H242486   5.360   8.907   5.091
14082WAT      O42487   8.202   3.078   1.844
14082WAT     H142488   8.154   3.109   1.762
14082WAT     H242489   8.195   3.148   1.915
14083WAT      O42490   4.565   1.830   7.101
14083WAT     H142491   4.651   1.794   7.136
14083WAT     H242492   4.509   1.863   7.177
14084WAT      O42493   1.473   8.565   5.492
14084WAT     H142494   1.526   8.635   5.446
14084WAT     H242495   1.507   8.474   5.466
14085WAT      O42496   3.625   5.427   4.017
14085WAT     H142497   3.549   5.475   4.060
14085WAT     H242498   3.628   5.332   4.050
14086WAT      O42499   6.663   7.194   1.296
14086WAT     H142500   6.569   7.163   1.280
14086WAT     H242501   6.727   7.122   1.270
14087WAT      O42502   6.887   4.924   0.299
14087WAT     H142503   6.819   4.853   0.281
14087WAT     H242504   6.840   5.009   0.323
14088WAT      O42505   2.401   2.362   9.755
14088WAT     H142506   2.318   2.413   9.777
14088WAT     H242507   2.401   2.275   9.805
14089WAT      O42508   1.134   2.081   9.775
14089WAT     H142509   1.114   2.173   9.743
14089WAT     H242510   1.061   2.019   9.746
14090WAT      O42511   8.192   2.092   8.760
14090WAT     H142512   8.227   2.023   8.696
14090WAT     H242513   8.266   2.156   8.784
14091WAT      O42514   6.421   6.153   7.276
14091WAT     H142515   6.485   6.199   7.337
14091WAT     H242516   6.410   6.058   7.306
14092WAT      O42517   9.682   2.565   1.727
14092WAT     H142518   9.708   2.607   1.814
14092WAT     H242519   9.749   2.495   1.702
14093WAT      O42520   4.262   0.845   2.873
14093WAT     H142521   4.292   0.940   2.881
14093WAT     H242522   4.280   0.812   2.780
14094WAT      O42523   2.605   0.272   4.103
14094WAT     H142524   2.549   0.283   4.186
14094WAT     H242525   2.670   0.197   4.117
14095WAT      O42526   5.551   5.922   5.947
14095WAT     H142527   5.494   5.985   6.000
14095WAT     H242528   5.514   5.830   5.955
14096WAT      O42529   7.198   8.513   6.734
14096WAT     H142530   7.289   8.556   6.732
14096WAT     H242531   7.160   8.519   6.826
14097WAT      O42532   6.021   6.274   9.124
14097WAT     H142533   6.077   6.195   9.102
14097WAT     H242534   5.944   6.246   9.182
14098WAT      O42535   0.556   8.653   8.984
14098WAT     H142536   0.489   8.697   8.924
14098WAT     H242537   0.645   8.649   8.937
14099WAT      O42538   6.433   4.038   2.403
14099WAT     H142539   6.442   3.939   2.408
14099WAT     H242540   6.470   4.079   2.486
14100WAT      O42541   2.258   3.689   7.686
14100WAT     H142542   2.183   3.754   7.691
14100WAT     H242543   2.345   3.738   7.683
14101WAT      O42544   6.710   3.820   5.858
14101WAT     H142545   6.697   3.793   5.763
14101WAT     H242546   6.802   3.857   5.871
14102WAT      O42547   7.484   1.425   8.447
14102WAT     H142548   7.392   1.444   8.414
14102WAT     H242549   7.501   1.326   8.445
14103WAT      O42550   1.295   4.357   0.580
14103WAT     H142551   1.369   4.422   0.566
14103WAT     H242552   1.293   4.290   0.506
14104WAT      O42553   8.409   7.210   1.135
14104WAT     H142554   8.442   7.194   1.042
14104WAT     H242555   8.310   7.192   1.139
14105WAT      O42556   1.015   0.483   7.833
14105WAT     H142557   0.925   0.520   7.855
14105WAT     H242558   1.035   0.407   7.894
14106WAT      O42559   4.197   8.381   3.783
14106WAT     H142560   4.235   8.452   3.842
14106WAT     H242561   4.202   8.411   3.688
14107WAT      O42562   4.438   1.169   5.431
14107WAT     H142563   4.381   1.250   5.444
14107WAT     H242564   4.437   1.143   5.334
14108WAT      O42565   0.807   0.128   2.613
14108WAT     H142566   0.738   0.143   2.684
14108WAT     H242567   0.841   0.034   2.619
14109WAT      O42568   5.120   2.514   2.314
14109WAT     H142569   5.188   2.566   2.365
14109WAT     H242570   5.103   2.427   2.360
14110WAT      O42571   3.899   1.281   8.656
14110WAT     H142572   3.822   1.218   8.666
14110WAT     H242573   3.897   1.323   8.566
14111WAT      O42574   6.420   0.714   1.657
14111WAT     H142575   6.431   0.737   1.560
14111WAT     H242576   6.501   0.666   1.690
14112WAT      O42577   3.044   8.085   6.931
14112WAT     H142578   2.957   8.129   6.911
14112WAT     H242579   3.119   8.141   6.895
14113WAT      O42580   0.025   9.346   2.071
14113WAT     H142581   0.012   9.378   1.977
14113WAT     H242582   0.055   9.250   2.069
14114WAT      O42583   9.546   1.436   8.001
14114WAT     H142584   9.608   1.449   8.078
14114WAT     H242585   9.455   1.410   8.036
14115WAT      O42586   1.191   9.144   5.315
14115WAT     H142587   1.286   9.165   5.292
14115WAT     H242588   1.189   9.074   5.386
14116WAT      O42589   8.511   1.760   7.318
14116WAT     H142590   8.584   1.723   7.260
14116WAT     H242591   8.531   1.740   7.414
14117WAT      O42592   4.795   8.451   6.540
14117WAT     H142593   4.716   8.450   6.602
14117WAT     H242594   4.879   8.462   6.593
14118WAT      O42595   5.776   6.561   5.990
14118WAT     H142596   5.683   6.529   6.009
14118WAT     H242597   5.842   6.498   6.031
14119WAT      O42598   8.483   4.185   0.602
14119WAT     H142599   8.407   4.220   0.656
14119WAT     H242600   8.455   4.176   0.507
14120WAT      O42601   5.640   0.987   8.687
14120WAT     H142602   5.627   1.086   8.681
14120WAT     H242603   5.555   0.940   8.664
14121WAT      O42604   1.322   8.796   9.365
14121WAT     H142605   1.418   8.822   9.381
14121WAT     H242606   1.308   8.703   9.398
14122WAT      O42607   4.220   5.294   2.534
14122WAT     H142608   4.184   5.201   2.535
14122WAT     H242609   4.257   5.314   2.443
14123WAT      O42610   2.002   0.260   6.720
14123WAT     H142611   2.091   0.285   6.683
14123WAT     H242612   1.986   0.310   6.806
14124WAT      O42613   1.663   0.805   9.090
14124WAT     H142614   1.636   0.894   9.128
14124WAT     H242615   1.693   0.745   9.164
14125WAT      O42616   1.207   0.870   5.925
14125WAT     H142617   1.173   0.962   5.904
14125WAT     H242618   1.285   0.877   5.987
14126WAT      O42619   0.339   8.025   2.597
14126WAT     H142620   0.307   7.942   2.550
14126WAT     H242621   0.434   8.011   2.627
14127WAT      O42622   6.566   0.738   1.375
14127WAT     H142623   6.591   0.767   1.282
14127WAT     H242624   6.648   0.716   1.427
14128WAT      O42625   0.212   0.150   4.729
14128WAT     H142626   0.283   0.085   4.755
14128WAT     H242627   0.218   0.231   4.787
14129WAT      O42628   3.875   2.868   2.107
14129WAT     H142629   3.902   2.963   2.121
14129WAT     H242630   3.824   2.861   2.021
14130WAT      O42631   0.399   7.924   7.556
14130WAT     H142632   0.346   7.841   7.575
14130WAT     H242633   0.496   7.906   7.575
14131WAT      O42634   3.646   5.817   6.454
14131WAT     H142635   3.728   5.778   6.497
14131WAT     H242636   3.607   5.887   6.515
14132WAT      O42637   0.905   0.375   6.039
14132WAT     H142638   0.861   0.464   6.052
14132WAT     H242639   1.003   0.388   6.027
14133WAT      O42640   2.724   4.395   7.597
14133WAT     H142641   2.804   4.446   7.627
14133WAT     H242642   2.679   4.444   7.522
14134WAT      O42643   1.135   0.191   6.885
14134WAT     H142644   1.186   0.272   6.858
14134WAT     H242645   1.083   0.157   6.807
14135WAT      O42646   1.461   6.035   5.200
14135WAT     H142647   1.371   6.037   5.157
14135WAT     H242648   1.495   6.129   5.211
14136WAT      O42649   8.864   3.355   9.866
14136WAT     H142650   8.861   3.442   9.914
14136WAT     H242651   8.771   3.319   9.857
14137WAT      O42652   3.898   8.329   0.086
14137WAT     H142653   3.860   8.421   0.088
14137WAT     H242654   3.957   8.316   0.166
14138WAT      O42655   7.612   7.016   9.803
14138WAT     H142656   7.515   7.001   9.819
14138WAT     H242657   7.650   7.073   9.876
14139WAT      O42658   5.128   3.559   5.798
14139WAT     H142659   5.186   3.540   5.718
14139WAT     H242660   5.039   3.591   5.767
14140WAT      O42661   0.231   9.710   6.104
14140WAT     H142662   0.207   9.644   6.175
14140WAT     H242663   0.244   9.800   6.146
14141WAT      O42664   5.132   6.463   9.021
14141WAT     H142665   5.128   6.431   8.926
14141WAT     H242666   5.171   6.392   9.079
14142WAT      O42667   6.631   0.544   1.719
14142WAT     H142668   6.695   0.552   1.642
14142WAT     H242669   6.683   0.536   1.804
14143WAT      O42670   6.619   8.272   2.296
14143WAT     H142671   6.556   8.271   2.218
14143WAT     H242672   6.582   8.216   2.370
14144WAT      O42673   4.624   8.121   9.158
14144WAT     H142674   4.618   8.154   9.252
14144WAT     H242675   4.682   8.040   9.155
14145WAT      O42676   5.229   1.213   3.411
14145WAT     H142677   5.237   1.288   3.477
14145WAT     H242678   5.139   1.169   3.421
14146WAT      O42679   9.701   4.383   9.099
14146WAT     H142680   9.760   4.337   9.033
14146WAT     H242681   9.661   4.464   9.058
14147WAT      O42682   2.099   2.032   2.179
14147WAT     H142683   2.101   2.124   2.220
14147WAT     H242684   2.189   1.989   2.191
14148WAT      O42685   5.881   3.848   9.138
14148WAT     H142686   5.793   3.895   9.133
14148WAT     H242687   5.867   3.756   9.175
14149WAT      O42688   9.027   0.803   3.821
14149WAT     H142689   9.042   0.706   3.806
14149WAT     H242690   9.093   0.838   3.887
14150WAT      O42691   2.749   3.753   0.352
14150WAT     H142692   2.656   3.724   0.331
14150WAT     H242693   2.758   3.768   0.450
14151WAT      O42694   6.397   1.452   0.152
14151WAT     H142695   6.476   1.492   0.198
14151WAT     H242696   6.422   1.423   0.060
14152WAT      O42697   7.760   1.809   1.343
14152WAT     H142698   7.741   1.905   1.323
14152WAT     H242699   7.676   1.764   1.374
14153WAT      O42700   9.284   5.090   4.468
14153WAT     H142701   9.330   5.003   4.490
14153WAT     H242702   9.217   5.110   4.540
14154WAT      O42703   3.669   0.728   9.858
14154WAT     H142704   3.660   0.826   9.836
14154WAT     H242705   3.679   0.717   9.957
14155WAT      O42706   4.973   1.268   4.680
14155WAT     H142707   4.966   1.183   4.628
14155WAT     H242708   4.960   1.346   4.619
14156WAT      O42709   5.041   8.592   4.708
14156WAT     H142710   4.978   8.537   4.762
14156WAT     H242711   5.105   8.639   4.769
14157WAT      O42712   2.774   6.892   8.320
14157WAT     H142713   2.786   6.927   8.227
14157WAT     H242714   2.854   6.838   8.346
14158WAT      O42715   3.680   6.214   7.298
14158WAT     H142716   3.669   6.220   7.199
14158WAT     H242717   3.702   6.304   7.334
14159WAT      O42718   7.069   3.817   8.743
14159WAT     H142719   7.134   3.836   8.670
14159WAT     H242720   7.099   3.737   8.795
14160WAT      O42721   7.551   8.532   9.472
14160WAT     H142722   7.531   8.490   9.383
14160WAT     H242723   7.541   8.631   9.466
14161WAT      O42724   7.477   3.889   6.945
14161WAT     H142725   7.457   3.822   7.017
14161WAT     H242726   7.527   3.844   6.872
14162WAT      O42727   1.394   5.859   7.898
14162WAT     H142728   1.479   5.835   7.850
14162WAT     H242729   1.328   5.784   7.890
14163WAT      O42730   0.580   5.461   8.338
14163WAT     H142731   0.577   5.468   8.238
14163WAT     H242732   0.489   5.479   8.375
14164WAT      O42733   5.009   7.504   2.746
14164WAT     H142734   4.916   7.539   2.727
14164WAT     H242735   5.035   7.440   2.674
14165WAT      O42736   5.716   3.442   0.195
14165WAT     H142737   5.785   3.383   0.154
14165WAT     H242738   5.714   3.530   0.149
14166WAT      O42739   0.002   3.099   3.644
14166WAT     H142740   0.003   3.105   3.544
14166WAT     H242741   0.085   3.141   3.680
14167WAT      O42742   1.604   2.605   5.192
14167WAT     H142743   1.652   2.625   5.278
14167WAT     H242744   1.625   2.512   5.163
14168WAT      O42745   6.529   1.394   4.699
14168WAT     H142746   6.530   1.389   4.799
14168WAT     H242747   6.445   1.353   4.664
14169WAT      O42748   3.116   6.652   8.264
14169WAT     H142749   3.066   6.601   8.194
14169WAT     H242750   3.052   6.686   8.333
14170WAT      O42751   6.715   1.800   9.340
14170WAT     H142752   6.672   1.770   9.255
14170WAT     H242753   6.814   1.783   9.334
14171WAT      O42754   0.802   2.941   6.352
14171WAT     H142755   0.803   3.010   6.279
14171WAT     H242756   0.767   2.855   6.316
14172WAT      O42757   6.037   9.358   6.777
14172WAT     H142758   5.979   9.277   6.779
14172WAT     H242759   6.052   9.391   6.870
14173WAT      O42760   8.749   7.441   1.623
14173WAT     H142761   8.739   7.509   1.551
14173WAT     H242762   8.664   7.435   1.676
14174WAT      O42763   4.215   6.421   1.205
14174WAT     H142764   4.285   6.433   1.276
14174WAT     H242765   4.168   6.507   1.190
14175WAT      O42766   3.606   2.583   3.470
14175WAT     H142767   3.670   2.524   3.519
14175WAT     H242768   3.561   2.645   3.534
14176WAT      O42769   7.452   8.321   6.905
14176WAT     H142770   7.377   8.325   6.971
14176WAT     H242771   7.536   8.355   6.948
14177WAT      O42772   7.849   7.765   4.484
14177WAT     H142773   7.823   7.676   4.520
14177WAT     H242774   7.932   7.756   4.429
14178WAT      O42775   2.265   1.155   4.131
14178WAT     H142776   2.263   1.253   4.111
14178WAT     H242777   2.179   1.130   4.176
14179WAT      O42778   0.578   6.731   0.966
14179WAT     H142779   0.617   6.692   1.049
14179WAT     H242780   0.552   6.658   0.903
14180WAT      O42781   3.688   6.301   8.393
14180WAT     H142782   3.724   6.214   8.425
14180WAT     H242783   3.650   6.290   8.302
14181WAT      O42784   4.308   0.687   3.907
14181WAT     H142785   4.351   0.714   3.821
14181WAT     H242786   4.265   0.766   3.950
14182WAT      O42787   2.496   2.670   4.716
14182WAT     H142788   2.525   2.642   4.807
14182WAT     H242789   2.423   2.610   4.685
14183WAT      O42790   3.500   6.690   6.927
14183WAT     H142791   3.557   6.754   6.979
14183WAT     H242792   3.555   6.611   6.899
14184WAT      O42793   7.222   7.530   3.473
14184WAT     H142794   7.297   7.476   3.435
14184WAT     H242795   7.136   7.484   3.455
14185WAT      O42796   5.299   1.527   7.645
14185WAT     H142797   5.324   1.607   7.592
14185WAT     H242798   5.226   1.551   7.709
14186WAT      O42799   8.077   7.657   0.558
14186WAT     H142800   7.984   7.671   0.593
14186WAT     H242801   8.075   7.652   0.458
14187WAT      O42802   3.587   8.483   9.550
14187WAT     H142803   3.499   8.442   9.528
14187WAT     H242804   3.640   8.420   9.606
14188WAT      O42805   1.988   2.847   2.699
14188WAT     H142806   1.925   2.776   2.667
14188WAT     H242807   1.937   2.929   2.725
14189WAT      O42808   9.827   6.875   2.984
14189WAT     H142809   9.794   6.950   2.927
14189WAT     H242810   9.841   6.794   2.927
14190WAT      O42811   5.626   8.420   8.971
14190WAT     H142812   5.672   8.420   9.060
14190WAT     H242813   5.570   8.338   8.962
14191WAT      O42814   7.747   5.978   7.704
14191WAT     H142815   7.701   5.923   7.634
14191WAT     H242816   7.821   6.029   7.661
14192WAT      O42817   6.674   4.849   5.310
14192WAT     H142818   6.767   4.812   5.321
14192WAT     H242819   6.674   4.945   5.340
14193WAT      O42820   8.785   7.393   1.103
14193WAT     H142821   8.848   7.316   1.101
14193WAT     H242822   8.837   7.479   1.097
14194WAT      O42823   9.043   4.225   8.882
14194WAT     H142824   9.055   4.149   8.946
14194WAT     H242825   8.984   4.294   8.924
14195WAT      O42826   5.552   8.819   6.945
14195WAT     H142827   5.562   8.730   6.900
14195WAT     H242828   5.551   8.806   7.044
14196WAT      O42829   4.756   7.177   7.275
14196WAT     H142830   4.782   7.124   7.356
14196WAT     H242831   4.688   7.126   7.222
14197WAT      O42832   9.734   4.395   0.662
14197WAT     H142833   9.811   4.387   0.725
14197WAT     H242834   9.668   4.462   0.696
14198WAT      O42835   4.721   7.308   6.337
14198WAT     H142836   4.798   7.341   6.391
14198WAT     H242837   4.637   7.354   6.366
14199WAT      O42838   8.754   1.368   9.831
14199WAT     H142839   8.838   1.412   9.800
14199WAT     H242840   8.739   1.389   9.928
14200WAT      O42841   9.544   2.955   8.330
14200WAT     H142842   9.530   2.858   8.312
14200WAT     H242843   9.535   3.006   8.245
14201WAT      O42844   4.337   0.402   5.274
14201WAT     H142845   4.267   0.409   5.204
14201WAT     H242846   4.295   0.413   5.364
14202WAT      O42847   1.871   8.031   0.671
14202WAT     H142848   1.960   7.985   0.668
14202WAT     H242849   1.813   7.996   0.597
14203WAT      O42850   6.459   3.950   7.128
14203WAT     H142851   6.506   3.976   7.043
14203WAT     H242852   6.518   3.891   7.182
14204WAT      O42853   4.081   0.168   8.182
14204WAT     H142854   4.154   0.235   8.164
14204WAT     H242855   4.057   0.170   8.279
14205WAT      O42856   7.759   0.443   4.309
14205WAT     H142857   7.793   0.440   4.215
14205WAT     H242858   7.781   0.532   4.350
14206WAT      O42859   3.589   6.310   2.489
14206WAT     H142860   3.572   6.244   2.416
14206WAT     H242861   3.677   6.291   2.532
14207WAT      O42862   3.663   0.608   6.456
14207WAT     H142863   3.703   0.587   6.367
14207WAT     H242864   3.565   0.588   6.454
14208WAT      O42865   0.466   8.965   3.640
14208WAT     H142866   0.566   8.967   3.649
14208WAT     H242867   0.436   8.871   3.625
14209WAT      O42868   7.054   8.093   4.285
14209WAT     H142869   7.033   7.996   4.275
14209WAT     H242870   7.099   8.108   4.373
14210WAT      O42871   4.303   5.926   2.031
14210WAT     H142872   4.263   5.986   1.961
14210WAT     H242873   4.333   5.981   2.109
14211WAT      O42874   7.901   6.631   5.909
14211WAT     H142875   7.975   6.581   5.955
14211WAT     H242876   7.853   6.687   5.977
14212WAT      O42877   7.716   5.313   6.891
14212WAT     H142878   7.660   5.239   6.855
14212WAT     H242879   7.761   5.282   6.975
14213WAT      O42880   6.104   8.976   3.489
14213WAT     H142881   6.184   9.036   3.489
14213WAT     H242882   6.133   8.881   3.498
14214WAT      O42883   8.925   2.594   3.738
14214WAT     H142884   8.919   2.658   3.661
14214WAT     H242885   8.850   2.611   3.801
14215WAT      O42886   7.037   5.723   1.493
14215WAT     H142887   6.990   5.712   1.405
14215WAT     H242888   6.988   5.672   1.563
14216WAT      O42889   1.881   1.416   2.984
14216WAT     H142890   1.931   1.342   2.938
14216WAT     H242891   1.876   1.495   2.923
14217WAT      O42892   8.097   3.428   5.989
14217WAT     H142893   8.008   3.395   5.956
14217WAT     H242894   8.153   3.351   6.017
14218WAT      O42895   1.289   6.748   7.159
14218WAT     H142896   1.344   6.688   7.101
14218WAT     H242897   1.226   6.692   7.213
14219WAT      O42898   7.466   5.484   8.006
14219WAT     H142899   7.560   5.474   7.974
14219WAT     H242900   7.429   5.572   7.976
14220WAT      O42901   0.587   7.514   8.483
14220WAT     H142902   0.642   7.594   8.457
14220WAT     H242903   0.632   7.431   8.451
14221WAT      O42904   6.272   3.839   0.316
14221WAT     H142905   6.241   3.930   0.343
14221WAT     H242906   6.278   3.780   0.396
14222WAT      O42907   7.138   7.800   4.386
14222WAT     H142908   7.041   7.815   4.370
14222WAT     H242909   7.150   7.723   4.449
14223WAT      O42910   2.765   5.930   2.985
14223WAT     H142911   2.838   5.865   3.007
14223WAT     H242912   2.687   5.881   2.947
14224WAT      O42913   1.483   4.294   6.921
14224WAT     H142914   1.494   4.387   6.887
14224WAT     H242915   1.545   4.233   6.871
14225WAT      O42916   3.812   3.067   7.905
14225WAT     H142917   3.867   3.118   7.840
14225WAT     H242918   3.783   3.127   7.979
14226WAT      O42919   6.417   1.915   2.074
14226WAT     H142920   6.391   1.840   2.013
14226WAT     H242921   6.508   1.899   2.111
14227WAT      O42922   2.906   7.497   8.517
14227WAT     H142923   2.938   7.475   8.609
14227WAT     H242924   2.844   7.425   8.486
14228WAT      O42925   3.099   6.278   2.318
14228WAT     H142926   3.177   6.285   2.380
14228WAT     H242927   3.070   6.183   2.312
14229WAT      O42928   0.977   3.421   5.858
14229WAT     H142929   0.934   3.447   5.944
14229WAT     H242930   0.909   3.379   5.797
14230WAT      O42931   8.975   3.314   4.499
14230WAT     H142932   9.006   3.409   4.491
14230WAT     H242933   8.899   3.298   4.436
14231WAT      O42934   0.067   4.627   7.907
14231WAT     H142935   0.115   4.543   7.883
14231WAT     H242936   0.129   4.689   7.953
14232WAT      O42937   9.052   9.693   6.015
14232WAT     H142938   9.104   9.659   5.937
14232WAT     H242939   9.095   9.664   6.100
14233WAT      O42940   1.478   9.216   5.287
14233WAT     H142941   1.459   9.284   5.216
14233WAT     H242942   1.567   9.238   5.330
14234WAT      O42943   4.962   6.509   7.319
14234WAT     H142944   4.913   6.545   7.239
14234WAT     H242945   4.996   6.418   7.299
14235WAT      O42946   0.345   2.472   8.080
14235WAT     H142947   0.436   2.498   8.048
14235WAT     H242948   0.319   2.531   8.157
14236WAT      O42949   0.153   0.974   1.767
14236WAT     H142950   0.247   0.939   1.774
14236WAT     H242951   0.091   0.910   1.812
14237WAT      O42952   0.284   7.941   5.891
14237WAT     H142953   0.376   7.925   5.854
14237WAT     H242954   0.216   7.923   5.820
14238WAT      O42955   9.292   7.638   6.354
14238WAT     H142956   9.204   7.669   6.319
14238WAT     H242957   9.347   7.717   6.381
14239WAT      O42958   0.448   4.680   0.456
14239WAT     H142959   0.547   4.675   0.467
14239WAT     H242960   0.415   4.769   0.488
14240WAT      O42961   3.689   6.355   3.535
14240WAT     H142962   3.682   6.367   3.436
14240WAT     H242963   3.598   6.359   3.575
14241WAT      O42964   4.939   0.242   6.777
14241WAT     H142965   5.008   0.206   6.714
14241WAT     H242966   4.888   0.316   6.732
14242WAT      O42967   2.451   6.263   1.964
14242WAT     H142968   2.378   6.258   1.896
14242WAT     H242969   2.502   6.349   1.952
14243WAT      O42970   6.527   2.664   6.911
14243WAT     H142971   6.452   2.612   6.869
14243WAT     H242972   6.490   2.718   6.987
14244WAT      O42973   9.528   7.277   5.040
14244WAT     H142974   9.619   7.310   5.067
14244WAT     H242975   9.459   7.340   5.073
14245WAT      O42976   0.566   9.794   7.540
14245WAT     H142977   0.618   9.722   7.495
14245WAT     H242978   0.475   9.761   7.563
14246WAT      O42979   8.279   8.184   2.910
14246WAT     H142980   8.184   8.201   2.883
14246WAT     H242981   8.324   8.271   2.930
14247WAT      O42982   0.410   7.637   5.588
14247WAT     H142983   0.508   7.623   5.601
14247WAT     H242984   0.361   7.552   5.605
14248WAT      O42985   8.034   4.576   4.827
14248WAT     H142986   8.062   4.672   4.828
14248WAT     H242987   7.953   4.566   4.769
14249WAT      O42988   8.956   3.155   2.624
14249WAT     H142989   8.981   3.061   2.648
14249WAT     H242990   8.857   3.167   2.635
14250WAT      O42991   3.561   1.896   8.084
14250WAT     H142992   3.601   1.911   8.174
14250WAT     H242993   3.474   1.848   8.093
14251WAT      O42994   1.481   5.075   7.964
14251WAT     H142995   1.423   5.156   7.977
14251WAT     H242996   1.443   4.998   8.016
14252WAT      O42997   4.144   4.989   8.706
14252WAT     H142998   4.082   4.916   8.677
14252WAT     H242999   4.165   4.978   8.803
14253WAT      O43000   8.208   5.741   8.729
14253WAT     H143001   8.307   5.733   8.720
14253WAT     H243002   8.186   5.777   8.819
14254WAT      O43003   4.787   4.164   3.219
14254WAT     H143004   4.725   4.086   3.205
14254WAT     H243005   4.849   4.144   3.295
14255WAT      O43006   9.798   0.117   9.830
14255WAT     H143007   9.808   0.033   9.884
14255WAT     H243008   9.873   0.180   9.851
14256WAT      O43009   4.110   8.655   3.405
14256WAT     H143010   4.017   8.670   3.437
14256WAT     H243011   4.118   8.683   3.309
14257WAT      O43012   3.162   2.847   2.208
14257WAT     H143013   3.113   2.933   2.201
14257WAT     H243014   3.112   2.776   2.159
14258WAT      O43015   4.688   0.699   0.105
14258WAT     H143016   4.591   0.722   0.111
14258WAT     H243017   4.700   0.602   0.126
14259WAT      O43018   5.273   5.099   6.077
14259WAT     H143019   5.312   5.027   6.018
14259WAT     H243020   5.192   5.063   6.124
14260WAT      O43021   6.887   3.030   4.693
14260WAT     H143022   6.796   3.070   4.708
14260WAT     H243023   6.880   2.957   4.625
14261WAT      O43024   4.453   5.498   8.321
14261WAT     H143025   4.405   5.411   8.312
14261WAT     H243026   4.530   5.501   8.258
14262WAT      O43027   7.080   2.488   0.639
14262WAT     H143028   7.064   2.405   0.692
14262WAT     H243029   7.010   2.497   0.568
14263WAT      O43030   4.021   7.587   8.522
14263WAT     H143031   3.996   7.680   8.549
14263WAT     H243032   4.042   7.533   8.604
14264WAT      O43033   9.537   7.175   6.481
14264WAT     H143034   9.471   7.249   6.495
14264WAT     H243035   9.577   7.183   6.390
14265WAT      O43036   8.826   3.838   4.098
14265WAT     H143037   8.758   3.868   4.164
14265WAT     H243038   8.856   3.916   4.043
14266WAT      O43039   1.911   2.934   8.459
14266WAT     H143040   1.954   2.934   8.549
14266WAT     H243041   1.872   3.024   8.440
14267WAT      O43042   0.450   8.339   8.392
14267WAT     H143043   0.351   8.332   8.382
14267WAT     H243044   0.487   8.400   8.322
14268WAT      O43045   3.240   9.332   2.375
14268WAT     H143046   3.149   9.343   2.415
14268WAT     H243047   3.236   9.267   2.299
14269WAT      O43048   4.062   8.663   6.678
14269WAT     H143049   4.023   8.732   6.739
14269WAT     H243050   4.159   8.683   6.664
14270WAT      O43051   7.614   6.127   6.676
14270WAT     H143052   7.588   6.222   6.660
14270WAT     H243053   7.536   6.076   6.712
14271WAT      O43054   1.088   3.401   0.086
14271WAT     H143055   1.050   3.339   0.154
14271WAT     H243056   1.125   3.349   0.009
14272WAT      O43057   9.179   6.286   9.480
14272WAT     H143058   9.148   6.227   9.555
14272WAT     H243059   9.260   6.245   9.437
14273WAT      O43060   3.978   9.165   4.973
14273WAT     H143061   3.973   9.260   4.943
14273WAT     H243062   4.065   9.126   4.944
14274WAT      O43063   7.527   6.957   4.983
14274WAT     H143064   7.567   7.028   5.041
14274WAT     H243065   7.465   6.901   5.038
14275WAT      O43066   5.307   7.786   2.939
14275WAT     H143067   5.261   7.875   2.950
14275WAT     H243068   5.257   7.731   2.872
14276WAT      O43069   4.058   6.352   0.503
14276WAT     H143070   4.052   6.434   0.446
14276WAT     H243071   4.152   6.319   0.504
14277WAT      O43072   7.685   0.410   9.170
14277WAT     H143073   7.730   0.481   9.117
14277WAT     H243074   7.591   0.398   9.138
14278WAT      O43075   5.500   8.571   9.277
14278WAT     H143076   5.487   8.613   9.367
14278WAT     H243077   5.488   8.472   9.284
14279WAT      O43078   7.320   5.794   5.982
14279WAT     H143079   7.238   5.834   5.940
14279WAT     H243080   7.396   5.799   5.917
14280WAT      O43081   1.080   7.347   4.821
14280WAT     H143082   1.129   7.411   4.760
14280WAT     H243083   1.113   7.359   4.914
14281WAT      O43084   4.722   8.051   0.994
14281WAT     H143085   4.695   8.128   1.053
14281WAT     H243086   4.648   7.984   0.991
14282WAT      O43087   4.887   7.533   0.070
14282WAT     H143088   4.797   7.489   0.070
14282WAT     H243089   4.901   7.582   0.156
14283WAT      O43090   0.176   1.315   7.282
14283WAT     H143091   0.249   1.286   7.344
14283WAT     H243092   0.192   1.410   7.254
14284WAT      O43093   7.828   7.896   6.743
14284WAT     H143094   7.766   7.886   6.666
14284WAT     H243095   7.776   7.925   6.824
14285WAT      O43096   2.394   3.779   9.522
14285WAT     H143097   2.431   3.775   9.430
14285WAT     H243098   2.320   3.846   9.526
14286WAT      O43099   7.362   4.252   7.680
14286WAT     H143100   7.450   4.256   7.728
14286WAT     H243101   7.367   4.309   7.598
14287WAT      O43102   1.826   3.053   9.047
14287WAT     H143103   1.785   3.115   9.114
14287WAT     H243104   1.807   2.958   9.073
14288WAT      O43105   7.470   8.433   5.603
14288WAT     H143106   7.380   8.464   5.571
14288WAT     H243107   7.480   8.335   5.585
14289WAT      O43108   0.443   7.242   3.861
14289WAT     H143109   0.448   7.291   3.774
14289WAT     H243110   0.474   7.302   3.935
14290WAT      O43111   7.315   6.615   4.394
14290WAT     H143112   7.279   6.692   4.447
14290WAT     H243113   7.394   6.577   4.441
14291WAT      O43114   8.143   3.941   8.716
14291WAT     H143115   8.188   3.958   8.628
14291WAT     H243116   8.063   4.001   8.725
14292WAT      O43117   7.984   1.114   2.226
14292WAT     H143118   8.047   1.166   2.168
14292WAT     H243119   7.896   1.105   2.180
14293WAT      O43120   2.671   3.970   6.943
14293WAT     H143121   2.709   4.052   6.900
14293WAT     H243122   2.661   3.898   6.874
14294WAT      O43123   1.237   7.564   3.235
14294WAT     H143124   1.212   7.472   3.205
14294WAT     H243125   1.312   7.598   3.179
14295WAT      O43126   8.861   6.983   2.874
14295WAT     H143127   8.795   7.046   2.835
14295WAT     H243128   8.818   6.931   2.948
14296WAT      O43129   6.677   8.181   4.282
14296WAT     H143130   6.667   8.222   4.191
14296WAT     H243131   6.722   8.246   4.343
14297WAT      O43132   0.422   4.060   0.801
14297WAT     H143133   0.517   4.043   0.775
14297WAT     H243134   0.405   4.158   0.805
14298WAT      O43135   8.610   2.432   7.444
14298WAT     H143136   8.693   2.414   7.392
14298WAT     H243137   8.611   2.379   7.529
14299WAT      O43138   3.528   6.844   4.961
14299WAT     H143139   3.569   6.754   4.982
14299WAT     H243140   3.453   6.862   5.025
14300WAT      O43141   0.233   5.039   5.368
14300WAT     H143142   0.285   5.123   5.376
14300WAT     H243143   0.135   5.059   5.371
14301WAT      O43144   6.209   0.856   7.185
14301WAT     H143145   6.176   0.892   7.098
14301WAT     H243146   6.132   0.821   7.239
14302WAT      O43147   0.359   6.310   0.821
14302WAT     H143148   0.394   6.346   0.734
14302WAT     H243149   0.413   6.230   0.848
14303WAT      O43150   3.523   2.361   2.944
14303WAT     H143151   3.483   2.278   2.985
14303WAT     H243152   3.452   2.432   2.938
14304WAT      O43153   1.173   2.456   5.904
14304WAT     H143154   1.091   2.405   5.932
14304WAT     H243155   1.152   2.510   5.822
14305WAT      O43156   1.008   8.783   1.963
14305WAT     H143157   0.913   8.751   1.965
14305WAT     H243158   1.056   8.749   2.044
14306WAT      O43159   9.056   1.564   8.012
14306WAT     H143160   9.048   1.504   7.932
14306WAT     H243161   9.036   1.658   7.985
14307WAT      O43162   3.967   7.044   5.539
14307WAT     H143163   4.063   7.021   5.522
14307WAT     H243164   3.926   6.974   5.599
14308WAT      O43165   7.104   5.430   3.624
14308WAT     H143166   7.125   5.349   3.570
14308WAT     H243167   7.019   5.471   3.591
14309WAT      O43168   6.574   4.072   5.275
14309WAT     H143169   6.495   4.117   5.316
14309WAT     H243170   6.658   4.115   5.309
14310WAT      O43171   9.319   8.328   9.211
14310WAT     H143172   9.402   8.304   9.162
14310WAT     H243173   9.298   8.257   9.278
14311WAT      O43174   0.407   2.935   8.989
14311WAT     H143175   0.506   2.932   9.001
14311WAT     H243176   0.378   3.029   8.972
14312WAT      O43177   2.224   4.641   0.921
14312WAT     H143178   2.145   4.594   0.881
14312WAT     H243179   2.206   4.740   0.923
14313WAT      O43180   2.409   4.223   3.821
14313WAT     H143181   2.408   4.318   3.793
14313WAT     H243182   2.490   4.178   3.783
14314WAT      O43183   6.141   6.616   8.730
14314WAT     H143184   6.126   6.714   8.745
14314WAT     H243185   6.090   6.586   8.650
14315WAT      O43186   5.386   5.359   0.221
14315WAT     H143187   5.385   5.459   0.221
14315WAT     H243188   5.462   5.327   0.276
14316WAT      O43189   8.636   4.170   0.000
14316WAT     H143190   8.652   4.156   0.098
14316WAT     H243191   8.592   4.259  -0.014
14317WAT      O43192   8.390   6.548   2.755
14317WAT     H143193   8.480   6.537   2.711
14317WAT     H243194   8.395   6.515   2.849
14318WAT      O43195   1.339   5.146   6.047
14318WAT     H143196   1.332   5.227   5.988
14318WAT     H243197   1.249   5.125   6.084
14319WAT      O43198   5.475   8.500   1.292
14319WAT     H143199   5.459   8.418   1.237
14319WAT     H243200   5.389   8.550   1.303
14320WAT      O43201   7.478   1.286   4.439
14320WAT     H143202   7.558   1.228   4.422
14320WAT     H243203   7.509   1.378   4.463
14321WAT      O43204   9.025   3.618   9.662
14321WAT     H143205   9.101   3.680   9.643
14321WAT     H243206   8.964   3.659   9.730
14322WAT      O43207   1.456   6.924   0.314
14322WAT     H143208   1.377   6.863   0.311
14322WAT     H243209   1.539   6.870   0.328
14323WAT      O43210   1.734   7.837   5.337
14323WAT     H143211   1.806   7.897   5.304
14323WAT     H243212   1.774   7.755   5.379
14324WAT      O43213   6.375   1.868   4.661
14324WAT     H143214   6.468   1.849   4.692
14324WAT     H243215   6.378   1.912   4.571
14325WAT      O43216   5.112   2.232   1.763
14325WAT     H143217   5.065   2.321   1.762
14325WAT     H243218   5.175   2.227   1.685
14326WAT      O43219   1.544   9.432   1.057
14326WAT     H143220   1.555   9.530   1.040
14326WAT     H243221   1.589   9.409   1.144
14327WAT      O43222   4.192   6.548   6.157
14327WAT     H143223   4.150   6.537   6.247
14327WAT     H243224   4.288   6.572   6.168
14328WAT      O43225   6.228   3.385   1.369
14328WAT     H143226   6.305   3.321   1.370
14328WAT     H243227   6.233   3.445   1.448
14329WAT      O43228   6.288   2.552   8.344
14329WAT     H143229   6.192   2.578   8.358
14329WAT     H243230   6.296   2.452   8.345
14330WAT      O43231   6.608   6.550   5.526
14330WAT     H143232   6.649   6.641   5.516
14330WAT     H243233   6.516   6.559   5.564
14331WAT      O43234   0.244   6.715   2.840
14331WAT     H143235   0.301   6.633   2.843
14331WAT     H243236   0.239   6.755   2.932
14332WAT      O43237   1.862   6.025   5.346
14332WAT     H143238   1.841   6.115   5.384
14332WAT     H243239   1.828   5.954   5.407
14333WAT      O43240   2.436   2.727   1.685
14333WAT     H143241   2.484   2.757   1.603
14333WAT     H243242   2.380   2.647   1.663
14334WAT      O43243   0.938   2.516   3.811
14334WAT     H143244   0.860   2.484   3.758
14334WAT     H243245   0.942   2.466   3.898
14335WAT      O43246   2.452   5.886   4.451
14335WAT     H143247   2.386   5.923   4.516
14335WAT     H243248   2.405   5.859   4.367
14336WAT      O43249   8.251   5.860   3.785
14336WAT     H143250   8.337   5.911   3.790
14336WAT     H243251   8.202   5.886   3.702
14337WAT      O43252   5.334   7.129   3.428
14337WAT     H143253   5.254   7.105   3.482
14337WAT     H243254   5.343   7.065   3.352
14338WAT      O43255   2.423   6.861   8.002
14338WAT     H143256   2.362   6.784   7.986
14338WAT     H243257   2.518   6.832   7.994
14339WAT      O43258   6.253   5.907   4.300
14339WAT     H143259   6.284   5.870   4.212
14339WAT     H243260   6.182   5.976   4.285
14340WAT      O43261   7.640   3.911   1.226
14340WAT     H143262   7.720   3.866   1.264
14340WAT     H243263   7.558   3.856   1.242
14341WAT      O43264   0.294   2.060   2.141
14341WAT     H143265   0.387   2.046   2.176
14341WAT     H243266   0.295   2.052   2.041
14342WAT      O43267   9.647   8.828   4.772
14342WAT     H143268   9.623   8.913   4.820
14342WAT     H243269   9.569   8.799   4.716
14343WAT      O43270   1.061   4.986   3.880
14343WAT     H143271   0.980   5.029   3.921
14343WAT     H243272   1.034   4.936   3.798
14344WAT      O43273   0.215   8.749   1.668
14344WAT     H143274   0.162   8.673   1.705
14344WAT     H243275   0.297   8.713   1.622
14345WAT      O43276   0.428   3.596   1.941
14345WAT     H143277   0.516   3.567   1.905
14345WAT     H243278   0.408   3.690   1.912
14346WAT      O43279   5.749   9.717   1.949
14346WAT     H143280   5.718   9.643   1.889
14346WAT     H243281   5.849   9.717   1.952
14347WAT      O43282   1.769   4.375   7.350
14347WAT     H143283   1.857   4.328   7.354
14347WAT     H243284   1.743   4.404   7.442
14348WAT      O43285   3.178   0.318   0.012
14348WAT     H143286   3.143   0.362  -0.071
14348WAT     H243287   3.103   0.307   0.077
14349WAT      O43288   5.581   1.096   5.547
14349WAT     H143289   5.520   1.066   5.473
14349WAT     H243290   5.654   1.029   5.558
14350WAT      O43291   8.026   7.242   1.753
14350WAT     H143292   8.017   7.330   1.707
14350WAT     H243293   7.964   7.176   1.711
14351WAT      O43294   7.412   5.074   4.033
14351WAT     H143295   7.451   5.167   4.039
14351WAT     H243296   7.399   5.038   4.125
14352WAT      O43297   4.050   6.176   9.411
14352WAT     H143298   3.980   6.195   9.480
14352WAT     H243299   4.140   6.173   9.456
14353WAT      O43300   5.756   0.134   1.603
14353WAT     H143301   5.686   0.107   1.669
14353WAT     H243302   5.817   0.056   1.585
14354WAT      O43303   4.446   7.048   2.432
14354WAT     H143304   4.429   7.045   2.333
14354WAT     H243305   4.461   6.956   2.466
14355WAT      O43306   8.445   7.103   4.095
14355WAT     H143307   8.530   7.064   4.133
14355WAT     H243308   8.468   7.170   4.025
14356WAT      O43309   6.974   6.554   0.254
14356WAT     H143310   6.938   6.462   0.272
14356WAT     H243311   7.061   6.546   0.205
14357WAT      O43312   4.508   1.825   8.533
14357WAT     H143313   4.522   1.743   8.588
14357WAT     H243314   4.590   1.881   8.535
14358WAT      O43315   5.785   0.353   4.510
14358WAT     H143316   5.702   0.379   4.461
14358WAT     H243317   5.863   0.354   4.448
14359WAT      O43318   9.086   9.596   9.493
14359WAT     H143319   9.157   9.603   9.563
14359WAT     H243320   9.079   9.501   9.462
14360WAT      O43321   3.683   4.168   0.119
14360WAT     H143322   3.763   4.113   0.094
14360WAT     H243323   3.671   4.168   0.218
14361WAT      O43324   5.005   3.924   9.654
14361WAT     H143325   5.077   3.993   9.645
14361WAT     H243326   5.022   3.849   9.590
14362WAT      O43327   3.527   9.567   4.864
14362WAT     H143328   3.542   9.498   4.935
14362WAT     H243329   3.438   9.554   4.822
14363WAT      O43330   0.607   3.323   9.131
14363WAT     H143331   0.701   3.294   9.148
14363WAT     H243332   0.544   3.257   9.174
14364WAT      O43333   2.042   8.910   7.731
14364WAT     H143334   2.060   9.008   7.743
14364WAT     H243335   2.112   8.857   7.778
14365WAT      O43336   1.969   1.788   6.621
14365WAT     H143337   1.953   1.758   6.527
14365WAT     H243338   2.059   1.832   6.628
14366WAT      O43339   2.583   0.801   4.790
14366WAT     H143340   2.596   0.704   4.773
14366WAT     H243341   2.499   0.833   4.745
14367WAT      O43342   8.444   1.485   6.027
14367WAT     H143343   8.520   1.539   6.062
14367WAT     H243344   8.389   1.452   6.103
14368WAT      O43345   2.772   8.443   5.906
14368WAT     H143346   2.815   8.375   5.846
14368WAT     H243347   2.842   8.488   5.961
14369WAT      O43348   5.313   9.183   6.400
14369WAT     H143349   5.266   9.154   6.484
14369WAT     H243350   5.373   9.110   6.369
14370WAT      O43351   6.902   0.900   4.102
14370WAT     H143352   6.940   0.969   4.040
14370WAT     H243353   6.975   0.866   4.162
14371WAT      O43354   9.300   1.939   8.293
14371WAT     H143355   9.336   1.875   8.224
14371WAT     H243356   9.208   1.910   8.319
14372WAT      O43357   3.564   7.860   9.811
14372WAT     H143358   3.543   7.882   9.906
14372WAT     H243359   3.578   7.945   9.760
14373WAT      O43360   0.907   2.414   6.018
14373WAT     H143361   0.871   2.332   6.062
14373WAT     H243362   0.953   2.471   6.086
14374WAT      O43363   2.447   3.946   5.137
14374WAT     H143364   2.527   4.007   5.143
14374WAT     H243365   2.367   4.001   5.112
14375WAT      O43366   9.121   6.144   9.259
14375WAT     H143367   9.106   6.048   9.283
14375WAT     H243368   9.123   6.200   9.343
14376WAT      O43369   6.843   8.481   4.668
14376WAT     H143370   6.789   8.459   4.587
14376WAT     H243371   6.881   8.573   4.659
14377WAT      O43372   1.037   0.460   9.498
14377WAT     H143373   0.974   0.419   9.565
14377WAT     H243374   1.021   0.559   9.494
14378WAT      O43375   6.695   8.038   7.115
14378WAT     H143376   6.625   7.992   7.169
14378WAT     H243377   6.785   8.022   7.156
14379WAT      O43378   7.546   6.707   7.989
14379WAT     H143379   7.465   6.725   7.933
14379WAT     H243380   7.529   6.737   8.082
14380WAT      O43381   9.115   2.946   4.031
14380WAT     H143382   9.030   2.917   4.076
14380WAT     H243383   9.190   2.888   4.061
14381WAT      O43384   7.948   4.573   7.865
14381WAT     H143385   7.970   4.550   7.960
14381WAT     H243386   7.865   4.630   7.863
14382WAT      O43387   6.710   4.468   9.505
14382WAT     H143388   6.685   4.371   9.503
14382WAT     H243389   6.655   4.515   9.574
14383WAT      O43390   7.772   1.920   3.366
14383WAT     H143391   7.717   1.837   3.371
14383WAT     H243392   7.825   1.930   3.450
14384WAT      O43393   1.890   3.817   8.304
14384WAT     H143394   1.884   3.770   8.393
14384WAT     H243395   1.972   3.874   8.302
14385WAT      O43396   7.776   6.770   6.116
14385WAT     H143397   7.825   6.841   6.165
14385WAT     H243398   7.723   6.715   6.181
14386WAT      O43399   2.784   9.262   4.473
14386WAT     H143400   2.704   9.275   4.531
14386WAT     H243401   2.790   9.337   4.407
14387WAT      O43402   0.248   6.902   9.240
14387WAT     H143403   0.228   6.880   9.335
14387WAT     H243404   0.181   6.859   9.180
14388WAT      O43405   1.879   0.996   3.795
14388WAT     H143406   1.925   1.004   3.707
14388WAT     H243407   1.830   0.909   3.799
14389WAT      O43408   2.005   4.549   1.111
14389WAT     H143409   1.939   4.520   1.042
14389WAT     H243410   2.095   4.509   1.091
14390WAT      O43411   7.433   8.875   1.319
14390WAT     H143412   7.404   8.918   1.233
14390WAT     H243413   7.527   8.902   1.340
14391WAT      O43414   0.712   6.737   6.170
14391WAT     H143415   0.719   6.735   6.070
14391WAT     H243416   0.749   6.823   6.204
14392WAT      O43417   2.235   5.324   2.851
14392WAT     H143418   2.206   5.340   2.757
14392WAT     H243419   2.289   5.241   2.856
14393WAT      O43420   7.920   7.166   0.161
14393WAT     H143421   7.906   7.067   0.165
14393WAT     H243422   7.959   7.197   0.248
14394WAT      O43423   0.860   0.151   7.743
14394WAT     H143424   0.931   0.170   7.676
14394WAT     H243425   0.816   0.064   7.722
14395WAT      O43426   9.807   2.548   1.112
14395WAT     H143427   9.862   2.472   1.077
14395WAT     H243428   9.861   2.633   1.107
14396WAT      O43429   5.302   5.707   7.273
14396WAT     H143430   5.257   5.795   7.287
14396WAT     H243431   5.319   5.664   7.361
14397WAT      O43432   8.471   3.622   1.086
14397WAT     H143433   8.458   3.529   1.052
14397WAT     H243434   8.564   3.652   1.067
14398WAT      O43435   7.425   9.277   4.238
14398WAT     H143436   7.365   9.272   4.318
14398WAT     H243437   7.477   9.192   4.230
14399WAT      O43438   8.596   8.950   0.725
14399WAT     H143439   8.609   8.996   0.638
14399WAT     H243440   8.501   8.921   0.734
14400WAT      O43441   7.816   2.070   8.512
14400WAT     H143442   7.854   2.110   8.428
14400WAT     H243443   7.758   2.137   8.557
14401WAT      O43444   2.888   1.716   0.688
14401WAT     H143445   2.873   1.777   0.610
14401WAT     H243446   2.824   1.739   0.761
14402WAT      O43447   6.072   3.706   2.606
14402WAT     H143448   6.023   3.771   2.663
14402WAT     H243449   6.109   3.632   2.663
14403WAT      O43450   4.936   2.594   3.703
14403WAT     H143451   4.976   2.630   3.787
14403WAT     H243452   4.993   2.520   3.668
14404WAT      O43453   8.676   7.785   5.648
14404WAT     H143454   8.711   7.798   5.741
14404WAT     H243455   8.725   7.710   5.604
14405WAT      O43456   8.833   5.431   3.836
14405WAT     H143457   8.793   5.521   3.821
14405WAT     H243458   8.909   5.437   3.899
14406WAT      O43459   4.773   1.939   5.905
14406WAT     H143460   4.819   2.026   5.925
14406WAT     H243461   4.748   1.937   5.809
14407WAT      O43462   9.284   8.112   4.426
14407WAT     H143463   9.344   8.185   4.459
14407WAT     H243464   9.338   8.030   4.408
14408WAT      O43465   1.549   5.842   8.158
14408WAT     H143466   1.516   5.876   8.070
14408WAT     H243467   1.518   5.903   8.231
14409WAT      O43468   1.080   4.719   1.894
14409WAT     H143469   0.982   4.705   1.880
14409WAT     H243470   1.117   4.643   1.948
14410WAT      O43471   7.176   0.753   5.794
14410WAT     H143472   7.234   0.826   5.829
14410WAT     H243473   7.080   0.775   5.813
14411WAT      O43474   3.579   5.369   5.166
14411WAT     H143475   3.631   5.387   5.083
14411WAT     H243476   3.632   5.309   5.226
14412WAT      O43477   0.593   4.900   1.735
14412WAT     H143478   0.660   4.938   1.798
14412WAT     H243479   0.594   4.952   1.649
14413WAT      O43480   2.040   3.902   3.960
14413WAT     H143481   1.979   3.902   4.039
14413WAT     H243482   2.006   3.838   3.891
14414WAT      O43483   4.383   3.978   2.384
14414WAT     H143484   4.440   3.920   2.327
14414WAT     H243485   4.286   3.956   2.369
14415WAT      O43486   7.895   5.118   5.062
14415WAT     H143487   7.930   5.183   5.130
14415WAT     H243488   7.958   5.114   4.985
14416WAT      O43489   1.335   3.798   2.952
14416WAT     H143490   1.369   3.877   2.901
14416WAT     H243491   1.313   3.725   2.888
14417WAT      O43492   0.464   0.848   1.986
14417WAT     H143493   0.510   0.787   2.051
14417WAT     H243494   0.365   0.842   1.999
14418WAT      O43495   4.189   8.256   9.617
14418WAT     H143496   4.116   8.196   9.649
14418WAT     H243497   4.174   8.349   9.651
14419WAT      O43498   7.641   7.751   2.044
14419WAT     H143499   7.613   7.755   1.948
14419WAT     H243500   7.568   7.710   2.099
14420WAT      O43501   2.931   4.571   7.621
14420WAT     H143502   2.923   4.640   7.549
14420WAT     H243503   2.998   4.502   7.594
14421WAT      O43504   4.130   3.008   3.892
14421WAT     H143505   4.047   3.012   3.836
14421WAT     H243506   4.207   3.046   3.840
14422WAT      O43507   1.601   9.318   4.847
14422WAT     H143508   1.539   9.293   4.921
14422WAT     H243509   1.675   9.374   4.882
14423WAT      O43510   7.454   7.416   0.315
14423WAT     H143511   7.457   7.319   0.290
14423WAT     H243512   7.367   7.456   0.286
14424WAT      O43513   3.269   9.694   7.157
14424WAT     H143514   3.191   9.722   7.213
14424WAT     H243515   3.324   9.628   7.207
14425WAT      O43516   4.070   4.331   7.764
14425WAT     H143517   4.046   4.286   7.679
14425WAT     H243518   4.017   4.292   7.839
14426WAT      O43519   8.644   8.861   1.773
14426WAT     H143520   8.693   8.776   1.755
14426WAT     H243521   8.559   8.862   1.721
14427WAT      O43522   2.786   4.946   5.667
14427WAT     H143523   2.809   5.040   5.691
14427WAT     H243524   2.849   4.884   5.713
14428WAT      O43525   9.495   8.645   5.708
14428WAT     H143526   9.414   8.688   5.748
14428WAT     H243527   9.535   8.582   5.775
14429WAT      O43528   8.898   9.409   4.426
14429WAT     H143529   8.907   9.311   4.443
14429WAT     H243530   8.816   9.426   4.372
14430WAT      O43531   0.310   5.322   5.676
14430WAT     H143532   0.238   5.260   5.706
14430WAT     H243533   0.270   5.397   5.624
14431WAT      O43534   3.879   8.375   8.475
14431WAT     H143535   3.883   8.464   8.430
14431WAT     H243536   3.920   8.381   8.566
14432WAT      O43537   0.659   5.795   8.495
14432WAT     H143538   0.569   5.829   8.469
14432WAT     H243539   0.730   5.845   8.446
14433WAT      O43540   2.412   8.022   4.345
14433WAT     H143541   2.313   8.008   4.342
14433WAT     H243542   2.432   8.120   4.335
14434WAT      O43543   5.697   4.929   8.233
14434WAT     H143544   5.644   4.895   8.156
14434WAT     H243545   5.648   5.006   8.275
14435WAT      O43546   1.525   6.069   7.287
14435WAT     H143547   1.595   5.999   7.273
14435WAT     H243548   1.559   6.158   7.256
14436WAT      O43549   3.803   9.408   1.162
14436WAT     H143550   3.728   9.352   1.198
14436WAT     H243551   3.853   9.448   1.239
14437WAT      O43552   2.140   8.979   0.484
14437WAT     H143553   2.208   9.000   0.414
14437WAT     H243554   2.086   8.900   0.455
14438WAT      O43555   6.006   0.863   6.948
14438WAT     H143556   5.970   0.819   7.030
14438WAT     H243557   5.960   0.826   6.868
14439WAT      O43558   7.953   0.881   8.706
14439WAT     H143559   8.002   0.831   8.778
14439WAT     H243560   7.864   0.911   8.741
14440WAT      O43561   4.673   2.368   9.388
14440WAT     H143562   4.670   2.450   9.445
14440WAT     H243563   4.591   2.313   9.404
14441WAT      O43564   9.491   3.553   3.191
14441WAT     H143565   9.503   3.534   3.093
14441WAT     H243566   9.496   3.652   3.206
14442WAT      O43567   1.266   1.066   1.409
14442WAT     H143568   1.186   1.114   1.444
14442WAT     H243569   1.256   0.968   1.426
14443WAT      O43570   0.431   2.956   4.834
14443WAT     H143571   0.384   2.997   4.912
14443WAT     H243572   0.459   3.028   4.770
14444WAT      O43573   1.407   1.020   6.520
14444WAT     H143574   1.486   1.050   6.574
14444WAT     H243575   1.380   1.093   6.457
14445WAT      O43576   1.158   4.967   2.006
14445WAT     H143577   1.105   4.892   1.966
14445WAT     H243578   1.249   4.934   2.029
14446WAT      O43579   6.658   5.585   5.738
14446WAT     H143580   6.657   5.532   5.654
14446WAT     H243581   6.634   5.680   5.718
14447WAT      O43582   8.307   1.441   7.280
14447WAT     H143583   8.259   1.525   7.255
14447WAT     H243584   8.296   1.373   7.208
14448WAT      O43585   1.142   7.381   5.352
14448WAT     H143586   1.142   7.283   5.333
14448WAT     H243587   1.049   7.416   5.345
14449WAT      O43588   8.440   8.985   1.221
14449WAT     H143589   8.508   9.018   1.286
14449WAT     H243590   8.376   8.925   1.268
14450WAT      O43591   5.428   5.730   3.614
14450WAT     H143592   5.391   5.770   3.698
14450WAT     H243593   5.417   5.631   3.617
14451WAT      O43594   9.286   8.789   5.823
14451WAT     H143595   9.293   8.874   5.876
14451WAT     H243596   9.268   8.811   5.727
14452WAT      O43597   8.402   5.478   7.736
14452WAT     H143598   8.394   5.476   7.637
14452WAT     H243599   8.464   5.552   7.763
14453WAT      O43600   4.362   6.975   0.810
14453WAT     H143601   4.381   6.903   0.744
14453WAT     H243602   4.355   7.063   0.762
14454WAT      O43603   2.787   0.690   6.334
14454WAT     H143604   2.851   0.679   6.410
14454WAT     H243605   2.821   0.760   6.272
14455WAT      O43606   0.113   6.378   4.487
14455WAT     H143607   0.163   6.393   4.572
14455WAT     H243608   0.015   6.390   4.504
14456WAT      O43609   6.494   3.781   0.155
14456WAT     H143610   6.519   3.685   0.168
14456WAT     H243611   6.412   3.802   0.207
14457WAT      O43612   6.217   7.730   1.974
14457WAT     H143613   6.252   7.786   2.050
14457WAT     H243614   6.286   7.726   1.902
14458WAT      O43615   0.134   2.987   7.392
14458WAT     H143616   0.127   3.052   7.468
14458WAT     H243617   0.043   2.966   7.358
14459WAT      O43618   4.590   0.011   9.636
14459WAT     H143619   4.579   0.096   9.688
14459WAT     H243620   4.684   0.005   9.602
14460WAT      O43621   7.747   9.638   5.585
14460WAT     H143622   7.813   9.564   5.595
14460WAT     H243623   7.688   9.641   5.665
14461WAT      O43624   0.373   1.339   7.020
14461WAT     H143625   0.405   1.253   6.981
14461WAT     H243626   0.300   1.376   6.962
14462WAT      O43627   9.287   6.262   0.750
14462WAT     H143628   9.369   6.221   0.709
14462WAT     H243629   9.239   6.193   0.804
14463WAT      O43630   1.922   8.946   1.671
14463WAT     H143631   1.953   8.878   1.605
14463WAT     H243632   1.973   9.031   1.658
14464WAT      O43633   1.747   5.608   8.959
14464WAT     H143634   1.767   5.560   9.044
14464WAT     H243635   1.825   5.599   8.896
14465WAT      O43636   1.619   0.862   4.784
14465WAT     H143637   1.542   0.799   4.772
14465WAT     H243638   1.587   0.956   4.775
14466WAT      O43639   2.513   9.563   5.753
14466WAT     H143640   2.433   9.622   5.766
14466WAT     H243641   2.488   9.484   5.699
14467WAT      O43642   0.607   7.761   1.513
14467WAT     H143643   0.679   7.777   1.445
14467WAT     H243644   0.648   7.735   1.600
14468WAT      O43645   5.826   4.172   8.068
14468WAT     H143646   5.874   4.160   8.155
14468WAT     H243647   5.843   4.263   8.032
14469WAT      O43648   5.105   5.910   4.991
14469WAT     H143649   5.101   5.810   4.989
14469WAT     H243650   5.193   5.941   4.955
14470WAT      O43651   1.120   3.989   8.771
14470WAT     H143652   1.099   3.903   8.725
14470WAT     H243653   1.040   4.049   8.766
14471WAT      O43654   0.450   4.529   1.076
14471WAT     H143655   0.510   4.594   1.123
14471WAT     H243656   0.452   4.546   0.978
14472WAT      O43657   3.233   1.481   9.265
14472WAT     H143658   3.332   1.466   9.268
14472WAT     H243659   3.187   1.409   9.317
14473WAT      O43660   9.602   1.535   4.693
14473WAT     H143661   9.573   1.627   4.665
14473WAT     H243662   9.543   1.503   4.767
14474WAT      O43663   5.405   4.800   9.243
14474WAT     H143664   5.375   4.801   9.148
14474WAT     H243665   5.422   4.894   9.274
14475WAT      O43666   6.679   5.286   3.797
14475WAT     H143667   6.635   5.314   3.712
14475WAT     H243668   6.707   5.190   3.790
14476WAT      O43669   6.011   5.441   4.643
14476WAT     H143670   6.016   5.540   4.642
14476WAT     H243671   5.936   5.411   4.584
14477WAT      O43672   0.581   7.749   5.307
14477WAT     H143673   0.622   7.679   5.366
14477WAT     H243674   0.594   7.724   5.211
14478WAT      O43675   1.162   0.021   2.666
14478WAT     H143676   1.210  -0.065   2.651
14478WAT     H243677   1.180   0.083   2.588
14479WAT      O43678   5.655   3.088   2.625
14479WAT     H143679   5.745   3.129   2.636
14479WAT     H243680   5.655   2.996   2.664
14480WAT      O43681   0.295   4.407   5.357
14480WAT     H143682   0.351   4.385   5.277
14480WAT     H243683   0.317   4.499   5.389
14481WAT      O43684   3.298   9.652   6.412
14481WAT     H143685   3.263   9.681   6.323
14481WAT     H243686   3.378   9.594   6.400
14482WAT      O43687   8.134   6.138   7.053
14482WAT     H143688   8.210   6.137   6.988
14482WAT     H243689   8.131   6.226   7.100
14483WAT      O43690   6.671   3.431   7.908
14483WAT     H143691   6.696   3.527   7.897
14483WAT     H243692   6.638   3.415   8.001
14484WAT      O43693   3.324   5.543   8.727
14484WAT     H143694   3.244   5.583   8.773
14484WAT     H243695   3.306   5.535   8.629
14485WAT      O43696   1.648   3.092   1.301
14485WAT     H143697   1.646   3.186   1.333
14485WAT     H243698   1.556   3.053   1.303
14486WAT      O43699   7.862   2.832   1.333
14486WAT     H143700   7.934   2.850   1.401
14486WAT     H243701   7.826   2.919   1.300
14487WAT      O43702   6.276   4.601   9.023
14487WAT     H143703   6.289   4.700   9.029
14487WAT     H243704   6.315   4.567   8.938
14488WAT      O43705   6.753   6.492   7.656
14488WAT     H143706   6.806   6.414   7.623
14488WAT     H243707   6.762   6.499   7.755
14489WAT      O43708   9.292   5.413   9.450
14489WAT     H143709   9.323   5.470   9.526
14489WAT     H243710   9.372   5.386   9.395
14490WAT      O43711   8.839   2.807   5.451
14490WAT     H143712   8.870   2.749   5.527
14490WAT     H243713   8.888   2.894   5.453
14491WAT      O43714   3.079   4.727   2.296
14491WAT     H143715   3.098   4.721   2.198
14491WAT     H243716   3.147   4.785   2.340
14492WAT      O43717   2.477   2.863   6.167
14492WAT     H143718   2.471   2.763   6.163
14492WAT     H243719   2.413   2.898   6.235
14493WAT      O43720   6.311   6.391   2.615
14493WAT     H143721   6.387   6.433   2.664
14493WAT     H243722   6.236   6.457   2.606
14494WAT      O43723   1.014   3.579   0.481
14494WAT     H143724   1.009   3.591   0.580
14494WAT     H243725   1.109   3.587   0.451
14495WAT      O43726   5.318   7.549   6.681
14495WAT     H143727   5.227   7.511   6.672
14495WAT     H243728   5.339   7.566   6.777
14496WAT      O43729   0.813   3.289   5.681
14496WAT     H143730   0.884   3.310   5.614
14496WAT     H243731   0.770   3.201   5.657
14497WAT      O43732   6.129   1.483   4.535
14497WAT     H143733   6.054   1.478   4.470
14497WAT     H243734   6.145   1.578   4.562
14498WAT      O43735   9.093   1.031   2.707
14498WAT     H143736   9.025   0.960   2.721
14498WAT     H243737   9.177   1.008   2.757
14499WAT      O43738   4.441   0.518   0.267
14499WAT     H143739   4.437   0.617   0.283
14499WAT     H243740   4.375   0.473   0.327
14500WAT      O43741   5.097   9.453   4.257
14500WAT     H143742   5.058   9.541   4.284
14500WAT     H243743   5.087   9.388   4.332
14501WAT      O43744   5.015   7.749   3.554
14501WAT     H143745   4.929   7.800   3.558
14501WAT     H243746   5.030   7.718   3.460
14502WAT      O43747   7.522   0.691   9.347
14502WAT     H143748   7.507   0.601   9.387
14502WAT     H243749   7.481   0.761   9.407
14503WAT      O43750   5.111   3.765   8.334
14503WAT     H143751   5.125   3.691   8.268
14503WAT     H243752   5.106   3.727   8.426
14504WAT      O43753   0.018   2.794   3.949
14504WAT     H143754   0.112   2.828   3.962
14504WAT     H243755  -0.040   2.828   4.022
14505WAT      O43756   9.647   0.805   9.807
14505WAT     H143757   9.579   0.738   9.837
14505WAT     H243758   9.722   0.759   9.759
14506WAT      O43759   2.004   2.431   9.018
14506WAT     H143760   2.033   2.374   9.094
14506WAT     H243761   1.905   2.448   9.025
14507WAT      O43762   4.209   9.407   6.060
14507WAT     H143763   4.118   9.385   6.095
14507WAT     H243764   4.245   9.485   6.110
14508WAT      O43765   2.288   0.391   3.224
14508WAT     H143766   2.231   0.330   3.278
14508WAT     H243767   2.370   0.416   3.276
14509WAT      O43768   6.203   9.140   1.316
14509WAT     H143769   6.276   9.170   1.378
14509WAT     H243770   6.132   9.210   1.313
14510WAT      O43771   7.433   5.197   3.640
14510WAT     H143772   7.513   5.219   3.584
14510WAT     H243773   7.444   5.237   3.731
14511WAT      O43774   6.717   2.321   0.251
14511WAT     H143775   6.705   2.419   0.240
14511WAT     H243776   6.641   2.273   0.207
14512WAT      O43777   9.658   4.265   9.653
14512WAT     H143778   9.723   4.204   9.699
14512WAT     H243779   9.586   4.210   9.610
14513WAT      O43780   4.170   6.245   3.815
14513WAT     H143781   4.268   6.250   3.836
14513WAT     H243782   4.134   6.337   3.800
14514WAT      O43783   6.563   1.683   0.871
14514WAT     H143784   6.560   1.613   0.799
14514WAT     H243785   6.469   1.707   0.897
14515WAT      O43786   2.184   0.986   0.211
14515WAT     H143787   2.217   0.909   0.265
14515WAT     H243788   2.100   0.961   0.164
14516WAT      O43789   0.614   9.258   7.566
14516WAT     H143790   0.544   9.283   7.499
14516WAT     H243791   0.570   9.222   7.648
14517WAT      O43792   2.340   1.720   2.486
14517WAT     H143793   2.289   1.740   2.570
14517WAT     H243794   2.433   1.754   2.495
14518WAT      O43795   8.961   2.490   2.183
14518WAT     H143796   8.875   2.541   2.177
14518WAT     H243797   9.017   2.528   2.257
14519WAT      O43798   6.997   8.154   3.471
14519WAT     H143799   6.944   8.239   3.469
14519WAT     H243800   7.090   8.172   3.438
14520WAT      O43801   3.792   2.486   6.258
14520WAT     H143802   3.798   2.566   6.318
14520WAT     H243803   3.845   2.411   6.297
14521WAT      O43804   0.757   8.417   4.944
14521WAT     H143805   0.692   8.431   5.018
14521WAT     H243806   0.753   8.493   4.880
14522WAT      O43807   6.027   6.614   8.472
14522WAT     H143808   5.944   6.558   8.478
14522WAT     H243809   6.077   6.592   8.389
14523WAT      O43810   1.865   5.606   1.915
14523WAT     H143811   1.922   5.687   1.900
14523WAT     H243812   1.884   5.568   2.006
14524WAT      O43813   4.580   9.135   1.225
14524WAT     H143814   4.650   9.064   1.214
14524WAT     H243815   4.592   9.206   1.155
14525WAT      O43816   1.139   0.692   6.180
14525WAT     H143817   1.181   0.663   6.094
14525WAT     H243818   1.041   0.671   6.179
14526WAT      O43819   0.431   8.073   0.065
14526WAT     H143820   0.367   8.024   0.124
14526WAT     H243821   0.502   8.010   0.033
14527WAT      O43822   0.649   1.028   4.064
14527WAT     H143823   0.643   1.084   4.147
14527WAT     H243824   0.655   1.088   3.984
14528WAT      O43825   4.687   7.473   4.739
14528WAT     H143826   4.674   7.383   4.780
14528WAT     H243827   4.646   7.474   4.647
14529WAT      O43828   9.522   4.983   5.345
14529WAT     H143829   9.424   4.997   5.360
14529WAT     H243830   9.559   5.061   5.294
14530WAT      O43831   6.015   8.715   4.528
14530WAT     H143832   6.008   8.630   4.579
14530WAT     H243833   5.932   8.769   4.539
14531WAT      O43834   0.054   0.519   4.980
14531WAT     H143835   0.095   0.483   4.896
14531WAT     H243836  -0.009   0.451   5.018
14532WAT      O43837   7.799   9.370   1.199
14532WAT     H143838   7.717   9.325   1.164
14532WAT     H243839   7.880   9.320   1.168
14533WAT      O43840   3.070   2.288   6.581
14533WAT     H143841   3.025   2.363   6.532
14533WAT     H243842   3.169   2.294   6.567
14534WAT      O43843   1.704   7.264   5.161
14534WAT     H143844   1.684   7.362   5.160
14534WAT     H243845   1.699   7.228   5.068
14535WAT      O43846   4.259   9.838   7.823
14535WAT     H143847   4.288   9.919   7.770
14535WAT     H243848   4.178   9.798   7.781
14536WAT      O43849   4.433   2.850   9.073
14536WAT     H143850   4.460   2.797   9.154
14536WAT     H243851   4.435   2.948   9.096
14537WAT      O43852   8.761   9.458   1.882
14537WAT     H143853   8.685   9.504   1.837
14537WAT     H243854   8.820   9.415   1.812
14538WAT      O43855   2.725   9.219   3.956
14538WAT     H143856   2.636   9.194   3.994
14538WAT     H243857   2.712   9.254   3.863
14539WAT      O43858   0.306   2.713   3.369
14539WAT     H143859   0.243   2.649   3.413
14539WAT     H243860   0.292   2.712   3.270
14540WAT      O43861   2.794   4.226   9.523
14540WAT     H143862   2.777   4.273   9.609
14540WAT     H243863   2.728   4.151   9.512
14541WAT      O43864   7.762   2.757   8.633
14541WAT     H143865   7.768   2.763   8.534
14541WAT     H243866   7.846   2.716   8.669
14542WAT      O43867   5.387   1.610   3.228
14542WAT     H143868   5.402   1.706   3.250
14542WAT     H243869   5.456   1.554   3.274
14543WAT      O43870   7.910   0.022   1.187
14543WAT     H143871   7.949  -0.021   1.268
14543WAT     H243872   7.861  -0.047   1.133
14544WAT      O43873   8.841   7.258   7.941
14544WAT     H143874   8.885   7.226   8.025
14544WAT     H243875   8.749   7.291   7.963
14545WAT      O43876   3.852   1.327   9.745
14545WAT     H143877   3.918   1.383   9.695
14545WAT     H243878   3.770   1.382   9.763
14546WAT      O43879   6.220   6.925   7.067
14546WAT     H143880   6.133   6.961   7.100
14546WAT     H243881   6.208   6.890   6.974
14547WAT      O43882   9.098   2.450   3.517
14547WAT     H143883   9.166   2.395   3.565
14547WAT     H243884   9.067   2.524   3.576
14548WAT      O43885   2.965   2.189   4.409
14548WAT     H143886   3.008   2.102   4.432
14548WAT     H243887   2.911   2.221   4.486
14549WAT      O43888   9.358   6.015   3.980
14549WAT     H143889   9.368   6.073   3.899
14549WAT     H243890   9.266   5.975   3.981
14550WAT      O43891   4.975   8.221   7.910
14550WAT     H143892   4.974   8.149   7.840
14550WAT     H243893   5.051   8.284   7.891
14551WAT      O43894   3.241   6.439   8.691
14551WAT     H143895   3.306   6.508   8.723
14551WAT     H243896   3.220   6.455   8.595
14552WAT      O43897   8.599   3.888   5.530
14552WAT     H143898   8.662   3.895   5.454
14552WAT     H243899   8.518   3.945   5.512
14553WAT      O43900   5.166   3.751   7.483
14553WAT     H143901   5.178   3.674   7.421
14553WAT     H243902   5.214   3.831   7.446
14554WAT      O43903   2.258   5.159   4.596
14554WAT     H143904   2.312   5.167   4.513
14554WAT     H243905   2.188   5.089   4.583
14555WAT      O43906   3.866   1.555   2.826
14555WAT     H143907   3.866   1.511   2.915
14555WAT     H243908   3.816   1.642   2.830
14556WAT      O43909   4.675   1.387   4.345
14556WAT     H143910   4.685   1.309   4.284
14556WAT     H243911   4.583   1.386   4.385
14557WAT      O43912   2.831   7.634   3.378
14557WAT     H143913   2.829   7.659   3.475
14557WAT     H243914   2.760   7.685   3.329
14558WAT      O43915   1.326   8.903   1.460
14558WAT     H143916   1.248   8.885   1.520
14558WAT     H243917   1.394   8.956   1.510
14559WAT      O43918   9.398   7.744   3.297
14559WAT     H143919   9.311   7.714   3.335
14559WAT     H243920   9.432   7.822   3.348
14560WAT      O43921   6.953   8.869   0.184
14560WAT     H143922   6.881   8.865   0.115
14560WAT     H243923   7.039   8.894   0.140
14561WAT      O43924   5.473   7.431   1.328
14561WAT     H143925   5.532   7.388   1.260
14561WAT     H243926   5.377   7.419   1.301
14562WAT      O43927   3.088   3.180   7.861
14562WAT     H143928   3.137   3.251   7.912
14562WAT     H243929   3.145   3.147   7.786
14563WAT      O43930   7.112   7.470   7.683
14563WAT     H143931   7.176   7.543   7.706
14563WAT     H243932   7.018   7.502   7.700
14564WAT      O43933   9.651   8.819   8.250
14564WAT     H143934   9.711   8.834   8.329
14564WAT     H243935   9.629   8.722   8.243
14565WAT      O43936   3.831   0.489   7.287
14565WAT     H143937   3.930   0.474   7.277
14565WAT     H243938   3.782   0.433   7.221
14566WAT      O43939   3.858   4.200   8.955
14566WAT     H143940   3.920   4.139   9.004
14566WAT     H243941   3.910   4.258   8.892
14567WAT      O43942   4.572   1.879   3.362
14567WAT     H143943   4.541   1.918   3.276
14567WAT     H243944   4.503   1.894   3.433
14568WAT      O43945   9.032   9.688   0.994
14568WAT     H143946   9.116   9.737   1.021
14568WAT     H243947   9.056   9.597   0.962
14569WAT      O43948   7.059   1.004   2.626
14569WAT     H143949   7.082   0.953   2.543
14569WAT     H243950   7.130   1.072   2.644
14570WAT      O43951   2.154   1.916   3.771
14570WAT     H143952   2.151   1.932   3.870
14570WAT     H243953   2.124   1.999   3.723
14571WAT      O43954   8.346   3.681   3.573
14571WAT     H143955   8.361   3.723   3.483
14571WAT     H243956   8.421   3.708   3.634
14572WAT      O43957   4.827   9.175   0.933
14572WAT     H143958   4.898   9.128   0.880
14572WAT     H243959   4.761   9.108   0.967
14573WAT      O43960   5.271   4.942   8.629
14573WAT     H143961   5.220   4.884   8.691
14573WAT     H243962   5.235   4.932   8.536
14574WAT      O43963   2.783   4.024   5.043
14574WAT     H143964   2.725   4.084   5.097
14574WAT     H243965   2.874   4.064   5.034
14575WAT      O43966   3.431   2.129   3.100
14575WAT     H143967   3.332   2.137   3.088
14575WAT     H243968   3.456   2.032   3.104
14576WAT      O43969   0.762   4.373   3.649
14576WAT     H143970   0.724   4.442   3.587
14576WAT     H243971   0.708   4.369   3.732
14577WAT      O43972   6.399   6.531   2.960
14577WAT     H143973   6.327   6.487   3.013
14577WAT     H243974   6.377   6.627   2.945
14578WAT      O43975   0.867   7.477   3.385
14578WAT     H143976   0.925   7.554   3.357
14578WAT     H243977   0.910   7.392   3.356
14579WAT      O43978   8.103   6.338   5.261
14579WAT     H143979   8.101   6.277   5.182
14579WAT     H243980   8.195   6.335   5.302
14580WAT      O43981   1.202   4.527   0.289
14580WAT     H143982   1.108   4.557   0.273
14580WAT     H243983   1.262   4.564   0.218
14581WAT      O43984   9.319   5.535   1.261
14581WAT     H143985   9.253   5.460   1.263
14581WAT     H243986   9.272   5.622   1.275
14582WAT      O43987   2.050   6.212   3.320
14582WAT     H143988   2.052   6.148   3.242
14582WAT     H243989   1.968   6.194   3.375
14583WAT      O43990   9.727   0.302   9.305
14583WAT     H143991   9.752   0.281   9.399
14583WAT     H243992   9.752   0.396   9.283
14584WAT      O43993   6.263   3.816   1.431
14584WAT     H143994   6.213   3.900   1.410
14584WAT     H243995   6.238   3.785   1.523
14585WAT      O43996   9.226   3.098   0.634
14585WAT     H143997   9.184   3.182   0.601
14585WAT     H243998   9.155   3.031   0.657
14586WAT      O43999   4.614   8.497   1.849
14586WAT     H144000   4.712   8.492   1.830
14586WAT     H244001   4.567   8.533   1.768
14587WAT      O44002   4.447   1.795   5.664
14587WAT     H144003   4.442   1.732   5.742
14587WAT     H244004   4.359   1.840   5.651
14588WAT      O44005   3.120   2.025   4.082
14588WAT     H144006   3.069   2.110   4.098
14588WAT     H244007   3.056   1.950   4.066
14589WAT      O44008   1.635   8.697   1.994
14589WAT     H144009   1.614   8.659   1.904
14589WAT     H244010   1.732   8.720   1.998
14590WAT      O44011   1.736   6.867   3.628
14590WAT     H144012   1.714   6.796   3.696
14590WAT     H244013   1.805   6.929   3.665
14591WAT      O44014   6.270   7.302   1.969
14591WAT     H144015   6.170   7.298   1.973
14591WAT     H244016   6.304   7.352   2.049
14592WAT      O44017   5.322   4.120   5.463
14592WAT     H144018   5.264   4.110   5.383
14592WAT     H244019   5.400   4.179   5.441
14593WAT      O44020   9.737   2.511   3.821
14593WAT     H144021   9.638   2.505   3.808
14593WAT     H244022   9.776   2.577   3.757
14594WAT      O44023   2.805   8.813   0.403
14594WAT     H144024   2.890   8.863   0.422
14594WAT     H244025   2.828   8.723   0.366
14595WAT      O44026   9.408   0.406   1.691
14595WAT     H144027   9.383   0.314   1.663
14595WAT     H244028   9.424   0.408   1.790
14596WAT      O44029   4.027   4.154   4.526
14596WAT     H144030   3.980   4.211   4.460
14596WAT     H244031   4.118   4.131   4.492
14597WAT      O44032   1.386   7.572   7.891
14597WAT     H144033   1.310   7.508   7.884
14597WAT     H244034   1.386   7.632   7.810
14598WAT      O44035   9.535   4.501   1.377
14598WAT     H144036   9.587   4.416   1.383
14598WAT     H244037   9.585   4.575   1.422
14599WAT      O44038   9.436   0.466   3.718
14599WAT     H144039   9.463   0.407   3.643
14599WAT     H244040   9.411   0.410   3.798
14600WAT      O44041   6.937   4.060   3.468
14600WAT     H144042   6.942   4.105   3.557
14600WAT     H244043   7.023   4.013   3.450
14601WAT      O44044   5.181   0.162   5.742
14601WAT     H144045   5.117   0.228   5.703
14601WAT     H244046   5.246   0.132   5.672
14602WAT      O44047   6.042   8.034   8.123
14602WAT     H144048   6.038   8.066   8.218
14602WAT     H244049   6.091   7.947   8.119
14603WAT      O44050   4.472   2.686   4.915
14603WAT     H144051   4.466   2.674   5.015
14603WAT     H244052   4.536   2.620   4.877
14604WAT      O44053   4.015   8.149   9.798
14604WAT     H144054   3.972   8.212   9.862
14604WAT     H244055   3.997   8.055   9.825
14605WAT      O44056   9.539   4.712   5.580
14605WAT     H144057   9.580   4.699   5.490
14605WAT     H244058   9.473   4.639   5.598
14606WAT      O44059   1.332   3.974   2.686
14606WAT     H144060   1.413   3.964   2.628
14606WAT     H244061   1.257   3.921   2.649
14607WAT      O44062   0.274   9.188   4.754
14607WAT     H144063   0.368   9.158   4.739
14607WAT     H244064   0.215   9.108   4.764
14608WAT      O44065   8.803   2.884   4.342
14608WAT     H144066   8.846   2.915   4.427
14608WAT     H244067   8.706   2.867   4.358
14609WAT      O44068   8.288   5.927   0.688
14609WAT     H144069   8.223   6.003   0.696
14609WAT     H244070   8.248   5.854   0.634
14610WAT      O44071   0.219   2.346   6.159
14610WAT     H144072   0.178   2.357   6.250
14610WAT     H244073   0.221   2.249   6.134
14611WAT      O44074   0.865   4.988   2.627
14611WAT     H144075   0.809   4.974   2.709
14611WAT     H244076   0.813   4.961   2.546
14612WAT      O44077   3.499   8.486   2.969
14612WAT     H144078   3.576   8.538   2.933
14612WAT     H244079   3.415   8.513   2.922
14613WAT      O44080   3.930   2.398   5.404
14613WAT     H144081   3.941   2.347   5.489
14613WAT     H244082   3.879   2.482   5.421
14614WAT      O44083   6.052   2.971   7.720
14614WAT     H144084   5.955   2.955   7.702
14614WAT     H244085   6.099   2.883   7.732
14615WAT      O44086   5.503   9.749   3.228
14615WAT     H144087   5.484   9.690   3.150
14615WAT     H244088   5.416   9.777   3.271
14616WAT      O44089   4.007   6.553   9.529
14616WAT     H144090   3.912   6.544   9.499
14616WAT     H244091   4.068   6.552   9.449
14617WAT      O44092   5.678   9.814   9.318
14617WAT     H144093   5.622   9.830   9.399
14617WAT     H244094   5.723   9.899   9.290
14618WAT      O44095   0.807   0.864   3.150
14618WAT     H144096   0.778   0.895   3.241
14618WAT     H244097   0.832   0.767   3.154
14619WAT      O44098   5.009   9.052   9.867
14619WAT     H144099   4.914   9.045   9.834
14619WAT     H244100   5.064   9.101   9.800
14620WAT      O44101   8.435   5.746   6.439
14620WAT     H144102   8.373   5.695   6.499
14620WAT     H244103   8.387   5.823   6.398
14621WAT      O44104   9.385   1.746   5.628
14621WAT     H144105   9.401   1.690   5.547
14621WAT     H244106   9.292   1.732   5.662
14622WAT      O44107   3.035   9.680   1.856
14622WAT     H144108   3.079   9.764   1.888
14622WAT     H244109   3.082   9.601   1.894
14623WAT      O44110   3.316   0.111   0.973
14623WAT     H144111   3.289   0.102   0.877
14623WAT     H244112   3.285   0.199   1.008
14624WAT      O44113   4.233   4.802   5.282
14624WAT     H144114   4.199   4.767   5.195
14624WAT     H244115   4.326   4.768   5.298
14625WAT      O44116   7.163   0.364   5.548
14625WAT     H144117   7.222   0.311   5.608
14625WAT     H244118   7.078   0.315   5.531
14626WAT      O44119   4.789   0.106   6.980
14626WAT     H144120   4.758   0.191   7.022
14626WAT     H244121   4.831   0.126   6.891
14627WAT      O44122   8.369   4.986   0.092
14627WAT     H144123   8.434   5.063   0.096
14627WAT     H244124   8.279   5.018   0.122
14628WAT      O44125   9.541   9.553   1.138
14628WAT     H144126   9.560   9.475   1.197
14628WAT     H244127   9.453   9.540   1.093
14629WAT      O44128   2.956   1.797   3.390
14629WAT     H144129   3.023   1.870   3.380
14629WAT     H244130   2.864   1.835   3.392
14630WAT      O44131   6.630   4.954   3.520
14630WAT     H144132   6.661   4.868   3.479
14630WAT     H244133   6.589   5.012   3.451
14631WAT      O44134   4.455   0.336   0.007
14631WAT     H144135   4.382   0.391   0.050
14631WAT     H244136   4.544   0.371   0.035
14632WAT      O44137   1.870   3.147   0.398
14632WAT     H144138   1.772   3.167   0.390
14632WAT     H244139   1.918   3.230   0.426
14633WAT      O44140   6.711   6.779   5.461
14633WAT     H144141   6.721   6.796   5.363
14633WAT     H244142   6.801   6.765   5.502
14634WAT      O44143   1.314   3.351   6.382
14634WAT     H144144   1.283   3.285   6.314
14634WAT     H244145   1.397   3.317   6.426
14635WAT      O44146   3.709   5.706   1.748
14635WAT     H144147   3.676   5.747   1.663
14635WAT     H244148   3.631   5.688   1.809
14636WAT      O44149   6.101   6.950   8.321
14636WAT     H144150   6.125   6.930   8.226
14636WAT     H244151   6.048   7.034   8.325
14637WAT      O44152   1.150   3.265   3.363
14637WAT     H144153   1.135   3.251   3.461
14637WAT     H244154   1.085   3.209   3.311
14638WAT      O44155   2.974   3.432   3.850
14638WAT     H144156   2.878   3.438   3.878
14638WAT     H244157   2.981   3.441   3.751
14639WAT      O44158   1.284   0.455   9.615
14639WAT     H144159   1.294   0.543   9.661
14639WAT     H244160   1.200   0.454   9.561
14640WAT      O44161   8.941   8.690   6.146
14640WAT     H144162   8.948   8.715   6.049
14640WAT     H244163   8.856   8.640   6.162
14641WAT      O44164   8.747   1.434   0.202
14641WAT     H144165   8.665   1.462   0.251
14641WAT     H244166   8.782   1.349   0.241
14642WAT      O44167   4.693   2.881   5.420
14642WAT     H144168   4.693   2.808   5.489
14642WAT     H244169   4.783   2.887   5.377
14643WAT      O44170   4.742   3.035   7.128
14643WAT     H144171   4.714   3.108   7.190
14643WAT     H244172   4.692   3.044   7.042
14644WAT      O44173   0.643   7.107   4.266
14644WAT     H144174   0.654   7.197   4.223
14644WAT     H244175   0.733   7.064   4.275
14645WAT      O44176   1.950   2.916   0.002
14645WAT     H144177   2.006   2.967  -0.064
14645WAT     H244178   1.980   2.938   0.095
14646WAT      O44179   7.806   4.979   6.238
14646WAT     H144180   7.817   5.014   6.145
14646WAT     H244181   7.715   5.003   6.273
14647WAT      O44182   6.610   2.327   8.786
14647WAT     H144183   6.690   2.386   8.780
14647WAT     H244184   6.636   2.239   8.825
14648WAT      O44185   6.895   3.997   1.770
14648WAT     H144186   6.821   3.931   1.761
14648WAT     H244187   6.958   3.988   1.693
14649WAT      O44188   3.742   0.139   9.204
14649WAT     H144189   3.699   0.051   9.225
14649WAT     H244190   3.673   0.203   9.169
14650WAT      O44191   2.606   7.080   9.515
14650WAT     H144192   2.682   7.141   9.538
14650WAT     H244193   2.615   7.051   9.419
14651WAT      O44194   3.987   7.059   9.283
14651WAT     H144195   4.023   7.082   9.374
14651WAT     H244196   4.049   7.094   9.213
14652WAT      O44197   4.694   6.815   8.550
14652WAT     H144198   4.772   6.765   8.514
14652WAT     H244199   4.666   6.885   8.485
14653WAT      O44200   3.258   1.666   0.791
14653WAT     H144201   3.204   1.608   0.851
14653WAT     H244202   3.342   1.694   0.838
14654WAT      O44203   4.849   1.360   5.318
14654WAT     H144204   4.862   1.262   5.308
14654WAT     H244205   4.837   1.382   5.415
14655WAT      O44206   9.630   1.793   4.433
14655WAT     H144207   9.649   1.745   4.347
14655WAT     H244208   9.714   1.796   4.488
14656WAT      O44209   8.798   3.349   8.697
14656WAT     H144210   8.862   3.425   8.692
14656WAT     H244211   8.845   3.264   8.671
14657WAT      O44212   0.268   4.113   1.572
14657WAT     H144213   0.221   4.049   1.511
14657WAT     H244214   0.330   4.170   1.518
14658WAT      O44215   4.303   7.251   8.395
14658WAT     H144216   4.301   7.169   8.339
14658WAT     H244217   4.210   7.272   8.425
14659WAT      O44218   5.922   4.317   9.143
14659WAT     H144219   5.956   4.410   9.156
14659WAT     H244220   5.998   4.253   9.139
14660WAT      O44221   8.710   9.139   3.393
14660WAT     H144222   8.695   9.055   3.446
14660WAT     H244223   8.740   9.212   3.455
14661WAT      O44224   0.435   6.768   8.205
14661WAT     H144225   0.490   6.766   8.121
14661WAT     H244226   0.400   6.676   8.223
14662WAT      O44227   0.002   2.728   5.744
14662WAT     H144228   0.083   2.781   5.718
14662WAT     H244229  -0.057   2.785   5.802
14663WAT      O44230   3.126   1.149   7.212
14663WAT     H144231   3.177   1.145   7.127
14663WAT     H244232   3.122   1.058   7.253
14664WAT      O44233   3.303   4.305   8.594
14664WAT     H144234   3.327   4.300   8.691
14664WAT     H244235   3.267   4.396   8.573
14665WAT      O44236   0.621   6.597   9.862
14665WAT     H144237   0.577   6.539   9.794
14665WAT     H244238   0.624   6.691   9.830
14666WAT      O44239   7.428   3.595   7.623
14666WAT     H144240   7.355   3.606   7.555
14666WAT     H244241   7.387   3.577   7.713
14667WAT      O44242   7.486   7.473   7.353
14667WAT     H144243   7.470   7.374   7.359
14667WAT     H244244   7.462   7.515   7.441
14668WAT      O44245   8.199   9.698   3.317
14668WAT     H144246   8.292   9.722   3.342
14668WAT     H244247   8.182   9.724   3.222
14669WAT      O44248   2.678   8.033   3.809
14669WAT     H144249   2.706   8.128   3.799
14669WAT     H244250   2.744   7.985   3.868
14670WAT      O44251   5.440   2.967   4.212
14670WAT     H144252   5.385   2.887   4.188
14670WAT     H244253   5.435   3.035   4.139
14671WAT      O44254   5.377   4.634   2.203
14671WAT     H144255   5.317   4.714   2.209
14671WAT     H244256   5.459   4.650   2.259
14672WAT      O44257   6.263   7.377   6.586
14672WAT     H144258   6.351   7.420   6.601
14672WAT     H244259   6.233   7.331   6.669
14673WAT      O44260   5.133   4.879   9.882
14673WAT     H144261   5.083   4.854   9.965
14673WAT     H244262   5.231   4.881   9.901
14674WAT      O44263   0.306   4.956   0.473
14674WAT     H144264   0.281   4.980   0.566
14674WAT     H244265   0.364   5.028   0.434
14675WAT      O44266   6.938   0.421   7.923
14675WAT     H144267   6.879   0.501   7.911
14675WAT     H244268   6.916   0.376   8.009
14676WAT      O44269   2.633   6.451   0.155
14676WAT     H144270   2.647   6.355   0.129
14676WAT     H244271   2.721   6.496   0.168
14677WAT      O44272   6.452   3.425   0.943
14677WAT     H144273   6.425   3.510   0.897
14677WAT     H244274   6.381   3.399   1.009
14678WAT      O44275   8.770   1.006   8.697
14678WAT     H144276   8.706   1.011   8.621
14678WAT     H244277   8.862   0.986   8.663
14679WAT      O44278   7.085   5.655   2.825
14679WAT     H144279   7.138   5.644   2.909
14679WAT     H244280   7.106   5.743   2.783
14680WAT      O44281   2.816   6.329   8.110
14680WAT     H144282   2.839   6.306   8.205
14680WAT     H244283   2.857   6.262   8.048
14681WAT      O44284   2.780   7.712   8.099
14681WAT     H144285   2.785   7.709   8.199
14681WAT     H244286   2.777   7.807   8.068
14682WAT      O44287   1.621   8.790   1.393
14682WAT     H144288   1.670   8.825   1.312
14682WAT     H244289   1.558   8.718   1.365
14683WAT      O44290   2.786   1.149   7.224
14683WAT     H144291   2.698   1.147   7.271
14683WAT     H244292   2.844   1.076   7.260
14684WAT      O44293   6.936   1.957   7.103
14684WAT     H144294   6.876   1.968   7.182
14684WAT     H244295   6.963   1.861   7.096
14685WAT      O44296   2.098   4.857   5.698
14685WAT     H144297   2.125   4.911   5.618
14685WAT     H244298   2.009   4.888   5.730
14686WAT      O44299   3.381   3.630   6.924
14686WAT     H144300   3.382   3.662   6.829
14686WAT     H244301   3.470   3.590   6.946
14687WAT      O44302   0.967   8.885   1.270
14687WAT     H144303   1.053   8.834   1.262
14687WAT     H244304   0.924   8.863   1.357
14688WAT      O44305   6.769   1.529   0.971
14688WAT     H144306   6.786   1.448   0.915
14688WAT     H244307   6.706   1.590   0.922
14689WAT      O44308   1.452   7.786   7.113
14689WAT     H144309   1.465   7.883   7.137
14689WAT     H244310   1.366   7.753   7.152
14690WAT      O44311   4.918   9.279   6.522
14690WAT     H144312   4.970   9.209   6.474
14690WAT     H244313   4.867   9.334   6.456
14691WAT      O44314   2.957   5.959   1.359
14691WAT     H144315   2.929   6.034   1.419
14691WAT     H244316   2.926   5.872   1.397
14692WAT      O44317   2.305   5.647   6.628
14692WAT     H144318   2.332   5.574   6.691
14692WAT     H244319   2.332   5.735   6.667
14693WAT      O44320   1.075   6.465   1.812
14693WAT     H144321   1.172   6.439   1.818
14693WAT     H244322   1.059   6.543   1.872
14694WAT      O44323   0.602   4.945   9.847
14694WAT     H144324   0.542   4.915   9.922
14694WAT     H244325   0.660   4.868   9.819
14695WAT      O44326   2.413   8.236   1.103
14695WAT     H144327   2.481   8.216   1.032
14695WAT     H244328   2.460   8.257   1.188
14696WAT      O44329   7.787   6.373   1.548
14696WAT     H144330   7.786   6.466   1.585
14696WAT     H244331   7.715   6.319   1.591
14697WAT      O44332   4.760   1.229   8.181
14697WAT     H144333   4.825   1.192   8.247
14697WAT     H244334   4.669   1.191   8.199
14698WAT      O44335   8.930   6.145   6.427
14698WAT     H144336   8.958   6.052   6.448
14698WAT     H244337   8.831   6.150   6.421
14699WAT      O44338   5.474   9.735   4.832
14699WAT     H144339   5.412   9.659   4.812
14699WAT     H244340   5.430   9.821   4.808
14700WAT      O44341   4.742   7.280   8.655
14700WAT     H144342   4.647   7.260   8.632
14700WAT     H244343   4.755   7.379   8.663
14701WAT      O44344   8.623   3.021   2.380
14701WAT     H144345   8.560   2.993   2.307
14701WAT     H244346   8.676   2.942   2.410
14702WAT      O44347   1.965   5.803   8.626
14702WAT     H144348   2.023   5.726   8.655
14702WAT     H244349   2.012   5.889   8.645
14703WAT      O44350   4.273   9.563   7.941
14703WAT     H144351   4.289   9.659   7.917
14703WAT     H244352   4.200   9.558   8.010
14704WAT      O44353   9.729   2.102   4.077
14704WAT     H144354   9.681   2.027   4.030
14704WAT     H244355   9.725   2.087   4.176
14705WAT      O44356   9.830   2.477   5.435
14705WAT     H144357   9.913   2.436   5.473
14705WAT     H244358   9.751   2.450   5.490
14706WAT      O44359   4.115   1.025   1.420
14706WAT     H144360   4.068   0.965   1.484
14706WAT     H244361   4.122   1.117   1.459
14707WAT      O44362   2.871   2.348   0.700
14707WAT     H144363   2.834   2.398   0.622
14707WAT     H244364   2.950   2.396   0.737
14708WAT      O44365   4.440   6.020   4.480
14708WAT     H144366   4.505   6.090   4.512
14708WAT     H244367   4.414   5.962   4.557
14709WAT      O44368   1.153   1.928   1.636
14709WAT     H144369   1.111   1.853   1.687
14709WAT     H244370   1.153   1.906   1.539
14710WAT      O44371   7.718   5.860   8.109
14710WAT     H144372   7.758   5.906   8.189
14710WAT     H244373   7.625   5.831   8.131
14711WAT      O44374   0.331   6.868   4.839
14711WAT     H144375   0.403   6.925   4.801
14711WAT     H244376   0.257   6.859   4.772
14712WAT      O44377   7.538   5.865   1.973
14712WAT     H144378   7.451   5.899   2.007
14712WAT     H244379   7.612   5.924   2.006
14713WAT      O44380   1.574   5.196   8.214
14713WAT     H144381   1.650   5.261   8.209
14713WAT     H244382   1.579   5.134   8.136
14714WAT      O44383   6.689   1.681   0.570
14714WAT     H144384   6.788   1.675   0.552
14714WAT     H244385   6.662   1.605   0.628
14715WAT      O44386   8.883   5.993   8.533
14715WAT     H144387   8.917   6.017   8.623
14715WAT     H244388   8.795   5.947   8.542
14716WAT      O44389   1.425   5.668   7.076
14716WAT     H144390   1.524   5.680   7.081
14716WAT     H244391   1.404   5.571   7.059
14717WAT      O44392   0.991   1.968   7.783
14717WAT     H144393   1.019   2.030   7.710
14717WAT     H244394   0.966   2.020   7.864
14718WAT      O44395   9.121   8.020   2.338
14718WAT     H144396   9.170   7.935   2.355
14718WAT     H244397   9.129   8.079   2.418
14719WAT      O44398   6.998   4.419   4.179
14719WAT     H144399   6.920   4.429   4.118
14719WAT     H244400   6.998   4.328   4.219
14720WAT      O44401   7.271   2.510   1.672
14720WAT     H144402   7.253   2.518   1.574
14720WAT     H244403   7.245   2.418   1.703
14721WAT      O44404   5.950   1.020   1.530
14721WAT     H144405   5.857   0.991   1.509
14721WAT     H244406   6.000   1.036   1.445
14722WAT      O44407   2.520   9.462   2.774
14722WAT     H144408   2.611   9.478   2.812
14722WAT     H244409   2.529   9.404   2.693
14723WAT      O44410   6.637   1.670   3.474
14723WAT     H144411   6.644   1.591   3.535
14723WAT     H244412   6.567   1.652   3.405
14724WAT      O44413   8.988   7.562   5.978
14724WAT     H144414   9.055   7.504   6.024
14724WAT     H244415   9.029   7.600   5.895
14725WAT      O44416   1.966   7.088   6.912
14725WAT     H144417   1.930   7.168   6.960
14725WAT     H244418   1.896   7.052   6.850
14726WAT      O44419   1.240   2.127   3.089
14726WAT     H144420   1.206   2.221   3.099
14726WAT     H244421   1.339   2.126   3.105
14727WAT      O44422   3.455   3.595   6.418
14727WAT     H144423   3.535   3.636   6.376
14727WAT     H244424   3.376   3.604   6.357
14728WAT      O44425   3.489   3.947   0.080
14728WAT     H144426   3.571   4.001   0.066
14728WAT     H244427   3.470   3.893  -0.002
14729WAT      O44428   1.181   8.140   2.377
14729WAT     H144429   1.150   8.049   2.351
14729WAT     H244430   1.263   8.132   2.434
14730WAT      O44431   6.399   1.238   1.929
14730WAT     H144432   6.451   1.316   1.896
14730WAT     H244433   6.304   1.245   1.897
14731WAT      O44434   1.106   0.148   1.446
14731WAT     H144435   1.073   0.218   1.383
14731WAT     H244436   1.029   0.100   1.487
14732WAT      O44437   0.091   2.211   4.380
14732WAT     H144438   0.186   2.190   4.404
14732WAT     H244439   0.080   2.309   4.367
14733WAT      O44440   0.150   0.626   6.126
14733WAT     H144441   0.089   0.581   6.060
14733WAT     H244442   0.103   0.635   6.214
14734WAT      O44443   5.024   8.943   1.694
14734WAT     H144444   5.101   8.987   1.741
14734WAT     H244445   4.991   9.004   1.622
14735WAT      O44446   0.913   5.080   1.047
14735WAT     H144447   0.949   5.055   0.958
14735WAT     H244448   0.873   5.172   1.043
14736WAT      O44449   5.939   6.342   0.627
14736WAT     H144450   5.890   6.299   0.703
14736WAT     H244451   6.030   6.370   0.658
14737WAT      O44452   5.475   1.755   5.060
14737WAT     H144453   5.514   1.755   4.968
14737WAT     H244454   5.391   1.701   5.060
14738WAT      O44455   4.270   1.671   3.669
14738WAT     H144456   4.244   1.622   3.586
14738WAT     H244457   4.205   1.744   3.687
14739WAT      O44458   5.100   7.041   2.533
14739WAT     H144459   5.039   6.969   2.566
14739WAT     H244460   5.089   7.051   2.434
14740WAT      O44461   5.190   2.182   3.569
14740WAT     H144462   5.238   2.198   3.655
14740WAT     H244463   5.245   2.218   3.493
14741WAT      O44464   1.561   9.676   0.119
14741WAT     H144465   1.658   9.656   0.100
14741WAT     H244466   1.508   9.657   0.036
14742WAT      O44467   4.707   4.640   0.187
14742WAT     H144468   4.618   4.685   0.196
14742WAT     H244469   4.695   4.554   0.136
14743WAT      O44470   6.031   2.978   2.210
14743WAT     H144471   5.958   2.956   2.145
14743WAT     H244472   6.101   3.032   2.164
14744WAT      O44473   6.258   4.325   3.157
14744WAT     H144474   6.233   4.235   3.191
14744WAT     H244475   6.175   4.378   3.138
14745WAT      O44476   4.199   5.761   7.495
14745WAT     H144477   4.201   5.713   7.407
14745WAT     H244478   4.157   5.701   7.564
14746WAT      O44479   5.727   2.533   4.651
14746WAT     H144480   5.774   2.519   4.564
14746WAT     H244481   5.629   2.548   4.634
14747WAT      O44482   0.526   6.130   0.918
14747WAT     H144483   0.617   6.104   0.885
14747WAT     H244484   0.470   6.048   0.927
14748WAT      O44485   5.400   5.609   1.570
14748WAT     H144486   5.449   5.525   1.550
14748WAT     H244487   5.432   5.647   1.657
14749WAT      O44488   9.224   9.192   9.845
14749WAT     H144489   9.285   9.136   9.790
14749WAT     H244490   9.136   9.202   9.799
14750WAT      O44491   2.897   5.388   3.847
14750WAT     H144492   2.989   5.370   3.882
14750WAT     H244493   2.890   5.482   3.816
14751WAT      O44494   8.338   8.240   8.214
14751WAT     H144495   8.322   8.220   8.311
14751WAT     H244496   8.285   8.176   8.158
14752WAT      O44497   3.827   0.933   6.712
14752WAT     H144498   3.795   0.924   6.618
14752WAT     H244499   3.799   0.853   6.765
14753WAT      O44500   6.146   6.595   0.894
14753WAT     H144501   6.220   6.617   0.958
14753WAT     H244502   6.178   6.527   0.829
14754WAT      O44503   4.654   3.988   7.368
14754WAT     H144504   4.723   3.944   7.426
14754WAT     H244505   4.685   4.079   7.342
14755WAT      O44506   7.605   1.726   8.203
14755WAT     H144507   7.515   1.684   8.192
14755WAT     H244508   7.595   1.815   8.246
14756WAT      O44509   2.364   4.009   2.558
14756WAT     H144510   2.299   3.990   2.484
14756WAT     H244511   2.333   3.965   2.642
14757WAT      O44512   6.461   8.470   8.546
14757WAT     H144513   6.557   8.498   8.540
14757WAT     H244514   6.424   8.457   8.454
14758WAT      O44515   6.356   2.836   6.316
14758WAT     H144516   6.299   2.784   6.380
14758WAT     H244517   6.305   2.853   6.232
14759WAT      O44518   7.211   7.888   2.903
14759WAT     H144519   7.112   7.898   2.894
14759WAT     H244520   7.252   7.879   2.812
14760WAT      O44521   7.975   3.327   2.815
14760WAT     H144522   7.980   3.311   2.913
14760WAT     H244523   8.024   3.412   2.792
14761WAT      O44524   8.279   5.082   9.602
14761WAT     H144525   8.266   5.125   9.512
14761WAT     H244526   8.257   5.148   9.673
14762WAT      O44527   7.270   7.968   7.617
14762WAT     H144528   7.170   7.976   7.627
14762WAT     H244529   7.292   7.881   7.573
14763WAT      O44530   6.232   8.291   2.240
14763WAT     H144531   6.253   8.287   2.337
14763WAT     H244532   6.277   8.216   2.192
14764WAT      O44533   4.391   0.984   5.604
14764WAT     H144534   4.398   1.034   5.518
14764WAT     H244535   4.479   0.984   5.651
14765WAT      O44536   4.178   0.649   7.719
14765WAT     H144537   4.189   0.571   7.782
14765WAT     H244538   4.233   0.726   7.752
14766WAT      O44539   9.842   6.764   6.836
14766WAT     H144540   9.755   6.802   6.806
14766WAT     H244541   9.826   6.678   6.884
14767WAT      O44542   0.945   1.132   8.466
14767WAT     H144543   0.977   1.099   8.376
14767WAT     H244544   1.024   1.148   8.525
14768WAT      O44545   1.561   3.757   8.326
14768WAT     H144546   1.636   3.774   8.389
14768WAT     H244547   1.590   3.779   8.233
14769WAT      O44548   2.629   1.849   2.297
14769WAT     H144549   2.633   1.834   2.396
14769WAT     H244550   2.536   1.874   2.270
14770WAT      O44551   3.540   7.014   1.015
14770WAT     H144552   3.580   6.947   1.078
14770WAT     H244553   3.442   7.023   1.034
14771WAT      O44554   2.391   0.759   7.471
14771WAT     H144555   2.363   0.834   7.530
14771WAT     H244556   2.393   0.790   7.376
14772WAT      O44557   6.941   1.342   6.961
14772WAT     H144558   7.023   1.393   6.986
14772WAT     H244559   6.952   1.246   6.987
14773WAT      O44560   3.736   8.331   7.188
14773WAT     H144561   3.776   8.259   7.132
14773WAT     H244562   3.808   8.377   7.239
14774WAT      O44563   5.007   4.112   4.420
14774WAT     H144564   5.059   4.133   4.337
14774WAT     H244565   4.973   4.197   4.460
14775WAT      O44566   4.356   4.433   5.893
14775WAT     H144567   4.298   4.352   5.888
14775WAT     H244568   4.298   4.515   5.886
14776WAT      O44569   9.642   6.086   0.386
14776WAT     H144570   9.598   6.002   0.356
14776WAT     H244571   9.723   6.064   0.440
14777WAT      O44572   8.076   2.176   6.317
14777WAT     H144573   8.061   2.102   6.382
14777WAT     H244574   8.134   2.246   6.358
14778WAT      O44575   7.598   7.046   4.583
14778WAT     H144576   7.631   6.965   4.631
14778WAT     H244577   7.578   7.118   4.650
14779WAT      O44578   4.061   4.320   8.816
14779WAT     H144579   4.123   4.318   8.894
14779WAT     H244580   4.113   4.344   8.733
14780WAT      O44581   7.771   9.625   1.090
14780WAT     H144582   7.701   9.663   1.030
14780WAT     H244583   7.736   9.542   1.133
14781WAT      O44584   5.854   2.598   1.459
14781WAT     H144585   5.864   2.674   1.395
14781WAT     H244586   5.884   2.626   1.550
14782WAT      O44587   6.379   3.400   9.769
14782WAT     H144588   6.331   3.327   9.720
14782WAT     H244589   6.320   3.479   9.779
14783WAT      O44590   4.079   7.194   5.964
14783WAT     H144591   4.046   7.220   5.873
14783WAT     H244592   4.035   7.252   6.033
14784WAT      O44593   9.199   5.189   7.452
14784WAT     H144594   9.116   5.201   7.506
14784WAT     H244595   9.271   5.149   7.509
14785WAT      O44596   8.479   8.052   9.554
14785WAT     H144597   8.413   7.985   9.520
14785WAT     H244598   8.554   8.061   9.488
14786WAT      O44599   6.612   3.177   1.679
14786WAT     H144600   6.670   3.179   1.760
14786WAT     H244601   6.669   3.184   1.597
14787WAT      O44602   7.222   7.681   6.271
14787WAT     H144603   7.296   7.614   6.269
14787WAT     H244604   7.147   7.650   6.212
14788WAT      O44605   3.885   6.278   0.699
14788WAT     H144606   3.934   6.320   0.622
14788WAT     H244607   3.922   6.188   0.717
14789WAT      O44608   5.165   6.125   6.807
14789WAT     H144609   5.138   6.029   6.807
14789WAT     H244610   5.164   6.161   6.900
14790WAT      O44611   0.806   5.900   9.732
14790WAT     H144612   0.782   5.916   9.827
14790WAT     H244613   0.891   5.948   9.710
14791WAT      O44614   7.814   9.126   8.298
14791WAT     H144615   7.847   9.071   8.222
14791WAT     H244616   7.714   9.126   8.298
14792WAT      O44617   8.519   4.130   1.160
14792WAT     H144618   8.526   4.033   1.135
14792WAT     H244619   8.567   4.145   1.246
14793WAT      O44620   6.528   3.362   7.042
14793WAT     H144621   6.505   3.369   7.139
14793WAT     H244622   6.468   3.296   6.998
14794WAT      O44623   3.447   8.218   3.306
14794WAT     H144624   3.377   8.225   3.377
14794WAT     H244625   3.533   8.187   3.346
14795WAT      O44626   6.097   8.773   1.324
14795WAT     H144627   6.175   8.836   1.325
14795WAT     H244628   6.086   8.734   1.233
14796WAT      O44629   6.409   3.735   3.598
14796WAT     H144630   6.356   3.651   3.601
14796WAT     H244631   6.355   3.811   3.635
14797WAT      O44632   7.886   0.963   4.487
14797WAT     H144633   7.976   0.941   4.524
14797WAT     H244634   7.838   0.878   4.463
14798WAT      O44635   1.655   1.848   2.534
14798WAT     H144636   1.686   1.753   2.540
14798WAT     H244637   1.588   1.865   2.606
14799WAT      O44638   9.376   8.486   1.394
14799WAT     H144639   9.459   8.532   1.425
14799WAT     H244640   9.377   8.479   1.294
14800WAT      O44641   2.451   4.609   1.857
14800WAT     H144642   2.519   4.592   1.786
14800WAT     H244643   2.483   4.682   1.917
14801WAT      O44644   1.394   9.244   5.631
14801WAT     H144645   1.359   9.278   5.544
14801WAT     H244646   1.412   9.146   5.625
14802WAT      O44647   2.550   9.008   3.711
14802WAT     H144648   2.483   9.066   3.757
14802WAT     H244649   2.625   9.065   3.677
14803WAT      O44650   9.608   4.354   7.121
14803WAT     H144651   9.644   4.288   7.055
14803WAT     H244652   9.510   4.340   7.132
14804WAT      O44653   4.871   5.960   7.398
14804WAT     H144654   4.815   6.012   7.463
14804WAT     H244655   4.852   5.992   7.305
14805WAT      O44656   0.970   9.758   0.970
14805WAT     H144657   0.908   9.722   0.900
14805WAT     H244658   1.021   9.682   1.012
14806WAT      O44659   7.775   3.691   1.946
14806WAT     H144660   7.764   3.755   2.022
14806WAT     H244661   7.711   3.615   1.958
14807WAT      O44662   0.691   2.359   7.060
14807WAT     H144663   0.646   2.363   6.971
14807WAT     H244664   0.665   2.274   7.107
14808WAT      O44665   1.005   9.152   1.390
14808WAT     H144666   1.011   9.077   1.325
14808WAT     H244667   0.915   9.195   1.384
14809WAT      O44668   3.191   7.783   8.645
14809WAT     H144669   3.176   7.759   8.741
14809WAT     H244670   3.262   7.854   8.640
14810WAT      O44671   9.866   5.616   1.826
14810WAT     H144672   9.769   5.605   1.849
14810WAT     H244673   9.883   5.711   1.799
14811WAT      O44674   0.924   7.081   7.943
14811WAT     H144675   0.906   7.057   8.038
14811WAT     H244676   0.886   7.010   7.883
14812WAT      O44677   6.113   7.434   0.697
14812WAT     H144678   6.171   7.451   0.776
14812WAT     H244679   6.017   7.447   0.722
14813WAT      O44680   4.276   4.087   5.834
14813WAT     H144681   4.259   4.110   5.930
14813WAT     H244682   4.194   4.105   5.780
14814WAT      O44683   8.804   4.261   4.299
14814WAT     H144684   8.840   4.172   4.327
14814WAT     H244685   8.704   4.257   4.295
14815WAT      O44686   8.063   2.291   0.789
14815WAT     H144687   8.121   2.257   0.715
14815WAT     H244688   8.090   2.384   0.812
14816WAT      O44689   2.038   2.429   3.240
14816WAT     H144690   2.053   2.345   3.293
14816WAT     H244691   1.942   2.457   3.251
14817WAT      O44692   0.195   4.625   4.191
14817WAT     H144693   0.187   4.646   4.288
14817WAT     H244694   0.163   4.703   4.137
14818WAT      O44695   0.676   5.688   9.624
14818WAT     H144696   0.724   5.758   9.678
14818WAT     H244697   0.686   5.599   9.669
14819WAT      O44698   2.184   1.260   4.537
14819WAT     H144699   2.222   1.191   4.475
14819WAT     H244700   2.126   1.214   4.605
14820WAT      O44701   1.965   7.854   6.706
14820WAT     H144702   1.973   7.761   6.741
14820WAT     H244703   1.974   7.919   6.782
14821WAT      O44704   4.333   8.221   7.658
14821WAT     H144705   4.416   8.189   7.704
14821WAT     H244706   4.329   8.321   7.661
14822WAT      O44707   2.558   1.123   3.524
14822WAT     H144708   2.587   1.185   3.597
14822WAT     H244709   2.633   1.109   3.459
14823WAT      O44710   7.006   2.010   1.249
14823WAT     H144711   7.023   1.994   1.152
14823WAT     H244712   6.999   1.923   1.297
14824WAT      O44713   4.840   6.169   8.803
14824WAT     H144714   4.776   6.153   8.727
14824WAT     H244715   4.792   6.219   8.876
14825WAT      O44716   4.679   0.059   4.430
14825WAT     H144717   4.678   0.081   4.332
14825WAT     H244718   4.749  -0.010   4.448
14826WAT      O44719   8.068   5.139   8.174
14826WAT     H144720   8.006   5.169   8.102
14826WAT     H244721   8.023   5.071   8.231
14827WAT      O44722   6.500   2.293   3.476
14827WAT     H144723   6.534   2.386   3.493
14827WAT     H244724   6.572   2.239   3.432
14828WAT      O44725   4.922   3.874   7.449
14828WAT     H144726   5.005   3.820   7.444
14828WAT     H244727   4.865   3.841   7.524
14829WAT      O44728   2.752   6.647   9.047
14829WAT     H144729   2.767   6.576   8.978
14829WAT     H244730   2.669   6.698   9.025
14830WAT      O44731   8.429   7.781   1.823
14830WAT     H144732   8.518   7.747   1.853
14830WAT     H244733   8.400   7.856   1.882
14831WAT      O44734   9.636   2.037   1.649
14831WAT     H144735   9.593   2.096   1.718
14831WAT     H244736   9.684   2.094   1.582
14832WAT      O44737   2.555   9.649   3.954
14832WAT     H144738   2.591   9.662   4.047
14832WAT     H244739   2.469   9.597   3.959
14833WAT      O44740   1.280   7.283   8.856
14833WAT     H144741   1.203   7.266   8.917
14833WAT     H244742   1.322   7.371   8.879
14834WAT      O44743   5.883   8.435   9.147
14834WAT     H144744   5.946   8.377   9.096
14834WAT     H244745   5.915   8.529   9.145
14835WAT      O44746   8.470   7.963   9.228
14835WAT     H144747   8.549   7.985   9.286
14835WAT     H244748   8.502   7.924   9.142
14836WAT      O44749   4.629   5.394   0.351
14836WAT     H144750   4.583   5.479   0.377
14836WAT     H244751   4.586   5.317   0.398
14837WAT      O44752   8.122   0.814   0.937
14837WAT     H144753   8.189   0.856   0.875
14837WAT     H244754   8.144   0.718   0.949
14838WAT      O44755   2.161   4.202   0.840
14838WAT     H144756   2.215   4.175   0.921
14838WAT     H244757   2.114   4.121   0.804
14839WAT      O44758   0.607   0.757   3.595
14839WAT     H144759   0.700   0.752   3.560
14839WAT     H244760   0.577   0.853   3.597
14840WAT      O44761   3.576   5.994   8.281
14840WAT     H144762   3.655   5.963   8.229
14840WAT     H244763   3.568   5.940   8.365
14841WAT      O44764   8.260   6.011   5.166
14841WAT     H144765   8.249   5.935   5.103
14841WAT     H244766   8.186   6.077   5.152
14842WAT      O44767   3.968   3.193   0.895
14842WAT     H144768   3.939   3.284   0.927
14842WAT     H244769   3.895   3.127   0.914
14843WAT      O44770   6.094   2.076   9.584
14843WAT     H144771   6.175   2.077   9.642
14843WAT     H244772   6.027   2.012   9.622
14844WAT      O44773   8.965   3.434   8.970
14844WAT     H144774   8.989   3.459   9.063
14844WAT     H244775   8.875   3.390   8.969
14845WAT      O44776   8.203   6.541   6.960
14845WAT     H144777   8.259   6.624   6.962
14845WAT     H244778   8.106   6.566   6.956
14846WAT      O44779   1.069   2.998   2.505
14846WAT     H144780   1.019   2.911   2.509
14846WAT     H244781   1.018   3.067   2.556
14847WAT      O44782   4.794   9.380   0.228
14847WAT     H144783   4.888   9.366   0.262
14847WAT     H244784   4.778   9.319   0.151
14848WAT      O44785   6.006   0.433   1.489
14848WAT     H144786   5.922   0.384   1.465
14848WAT     H244787   5.987   0.531   1.493
14849WAT      O44788   8.579   6.377   3.357
14849WAT     H144789   8.567   6.284   3.393
14849WAT     H244790   8.490   6.416   3.334
14850WAT      O44791   2.507   7.710   8.341
14850WAT     H144792   2.470   7.645   8.275
14850WAT     H244793   2.606   7.696   8.351
14851WAT      O44794   5.012   6.700   8.809
14851WAT     H144795   5.021   6.712   8.710
14851WAT     H244796   4.983   6.607   8.828
14852WAT      O44797   5.746   0.013   0.458
14852WAT     H144798   5.835   0.006   0.413
14852WAT     H244799   5.747   0.089   0.523
14853WAT      O44800   8.751   7.793   8.230
14853WAT     H144801   8.700   7.819   8.312
14853WAT     H244802   8.796   7.873   8.192
14854WAT      O44803   8.602   0.203   7.968
14854WAT     H144804   8.579   0.112   7.934
14854WAT     H244805   8.607   0.268   7.892
14855WAT      O44806   7.875   3.356   3.991
14855WAT     H144807   7.970   3.381   4.007
14855WAT     H244808   7.816   3.435   4.007
14856WAT      O44809   5.071   9.405   1.564
14856WAT     H144810   5.072   9.385   1.662
14856WAT     H244811   4.989   9.366   1.523
14857WAT      O44812   1.998   7.976   6.151
14857WAT     H144813   2.023   8.011   6.241
14857WAT     H244814   1.901   7.949   6.151
14858WAT      O44815   4.451   2.259   5.117
14858WAT     H144816   4.382   2.324   5.084
14858WAT     H244817   4.476   2.197   5.044
14859WAT      O44818   6.942   3.794   6.540
14859WAT     H144819   6.934   3.856   6.462
14859WAT     H244820   6.889   3.711   6.522
14860WAT      O44821   8.379   1.693   0.447
14860WAT     H144822   8.323   1.659   0.523
14860WAT     H244823   8.444   1.761   0.481
14861WAT      O44824   9.423   6.266   5.900
14861WAT     H144825   9.481   6.338   5.938
14861WAT     H244826   9.437   6.181   5.952
14862WAT      O44827   9.109   8.602   2.150
14862WAT     H144828   9.088   8.660   2.229
14862WAT     H244829   9.037   8.614   2.081
14863WAT      O44830   7.925   1.820   6.942
14863WAT     H144831   7.964   1.901   6.899
14863WAT     H244832   7.941   1.824   7.041
14864WAT      O44833   6.773   7.629   1.808
14864WAT     H144834   6.694   7.657   1.863
14864WAT     H244835   6.763   7.532   1.784
14865WAT      O44836   0.812   0.448   4.132
14865WAT     H144837   0.872   0.511   4.183
14865WAT     H244838   0.741   0.500   4.086
14866WAT      O44839   8.906   5.280   3.628
14866WAT     H144840   8.897   5.346   3.703
14866WAT     H244841   8.994   5.234   3.636
14867WAT      O44842   6.069   8.281   5.157
14867WAT     H144843   6.007   8.344   5.203
14867WAT     H244844   6.101   8.323   5.072
14868WAT      O44845   7.445   4.248   0.786
14868WAT     H144846   7.428   4.204   0.698
14868WAT     H244847   7.372   4.226   0.850
14869WAT      O44848   2.022   0.636   2.541
14869WAT     H144849   1.982   0.549   2.512
14869WAT     H244850   1.961   0.681   2.606
14870WAT      O44851   1.102   7.898   1.393
14870WAT     H144852   1.190   7.935   1.365
14870WAT     H244853   1.115   7.835   1.469
14871WAT      O44854   9.479   4.943   5.771
14871WAT     H144855   9.578   4.950   5.786
14871WAT     H244856   9.461   4.891   5.687
14872WAT      O44857   4.289   5.978   8.149
14872WAT     H144858   4.268   6.008   8.056
14872WAT     H244859   4.292   5.878   8.152
14873WAT      O44860   9.569   7.547   0.925
14873WAT     H144861   9.558   7.490   0.844
14873WAT     H244862   9.636   7.620   0.906
14874WAT      O44863   7.261   0.183   4.023
14874WAT     H144864   7.196   0.245   3.980
14874WAT     H244865   7.318   0.140   3.953
14875WAT      O44866   7.804   2.439   9.173
14875WAT     H144867   7.895   2.449   9.133
14875WAT     H244868   7.812   2.401   9.265
14876WAT      O44869   4.382   3.892   8.134
14876WAT     H144870   4.466   3.847   8.101
14876WAT     H244871   4.405   3.982   8.169
14877WAT      O44872   4.240   5.694   0.383
14877WAT     H144873   4.247   5.607   0.334
14877WAT     H244874   4.207   5.678   0.476
14878WAT      O44875   0.334   2.163   4.678
14878WAT     H144876   0.249   2.203   4.711
14878WAT     H244877   0.348   2.191   4.582
14879WAT      O44878   8.404   2.293   8.770
14879WAT     H144879   8.427   2.196   8.781
14879WAT     H244880   8.425   2.342   8.855
14880WAT      O44881   4.733   1.058   7.490
14880WAT     H144882   4.833   1.066   7.490
14880WAT     H244883   4.705   0.987   7.426
14881WAT      O44884   6.483   1.382   9.793
14881WAT     H144885   6.561   1.325   9.817
14881WAT     H244886   6.415   1.326   9.746
14882WAT      O44887   8.231   6.264   1.988
14882WAT     H144888   8.199   6.298   1.899
14882WAT     H244889   8.162   6.282   2.057
14883WAT      O44890   8.565   0.976   1.634
14883WAT     H144891   8.559   0.984   1.733
14883WAT     H244892   8.661   0.978   1.606
14884WAT      O44893   3.653   2.830   6.853
14884WAT     H144894   3.598   2.913   6.868
14884WAT     H244895   3.667   2.817   6.754
14885WAT      O44896   7.714   1.085   9.013
14885WAT     H144897   7.631   1.055   9.059
14885WAT     H244898   7.794   1.043   9.057
14886WAT      O44899   4.216   2.986   6.389
14886WAT     H144900   4.118   2.965   6.393
14886WAT     H244901   4.267   2.903   6.367
14887WAT      O44902   1.211   7.003   3.082
14887WAT     H144903   1.269   6.962   3.152
14887WAT     H244904   1.131   6.945   3.067
14888WAT      O44905   1.677   2.927   0.917
14888WAT     H144906   1.697   2.862   0.843
14888WAT     H244907   1.614   2.997   0.883
14889WAT      O44908   3.532   7.936   4.407
14889WAT     H144909   3.596   7.877   4.456
14889WAT     H244910   3.577   8.024   4.388
14890WAT      O44911   0.306   0.813   4.274
14890WAT     H144912   0.333   0.836   4.367
14890WAT     H244913   0.253   0.888   4.234
14891WAT      O44914   4.509   1.115   4.243
14891WAT     H144915   4.490   1.070   4.330
14891WAT     H244916   4.445   1.191   4.229
14892WAT      O44917   9.341   7.509   0.570
14892WAT     H144918   9.334   7.550   0.661
14892WAT     H244919   9.280   7.558   0.507
14893WAT      O44920   7.582   2.340   4.912
14893WAT     H144921   7.661   2.310   4.857
14893WAT     H244922   7.503   2.284   4.889
14894WAT      O44923   3.903   0.616   2.905
14894WAT     H144924   3.832   0.680   2.874
14894WAT     H244925   3.859   0.536   2.947
14895WAT      O44926   5.738   2.399   2.406
14895WAT     H144927   5.727   2.498   2.405
14895WAT     H244928   5.781   2.371   2.492
14896WAT      O44929   7.648   8.808   6.450
14896WAT     H144930   7.639   8.735   6.382
14896WAT     H244931   7.560   8.853   6.462
14897WAT      O44932   1.733   3.280   3.749
14897WAT     H144933   1.771   3.340   3.819
14897WAT     H244934   1.739   3.325   3.660
14898WAT      O44935   5.611   9.451   4.621
14898WAT     H144936   5.565   9.445   4.709
14898WAT     H244937   5.580   9.532   4.572
14899WAT      O44938   4.346   7.897   5.674
14899WAT     H144939   4.380   7.968   5.737
14899WAT     H244940   4.249   7.914   5.656
14900WAT      O44941   0.247   2.175   6.617
14900WAT     H144942   0.291   2.153   6.705
14900WAT     H244943   0.247   2.274   6.604
14901WAT      O44944   4.453   2.844   7.683
14901WAT     H144945   4.432   2.803   7.595
14901WAT     H244946   4.535   2.902   7.674
14902WAT      O44947   0.118   0.741   5.828
14902WAT     H144948   0.156   0.651   5.848
14902WAT     H244949   0.102   0.790   5.913
14903WAT      O44950   7.181   0.089   4.602
14903WAT     H144951   7.224   0.013   4.554
14903WAT     H244952   7.227   0.175   4.579
14904WAT      O44953   2.334   0.773   3.841
14904WAT     H144954   2.271   0.848   3.821
14904WAT     H244955   2.425   0.797   3.809
14905WAT      O44956   0.515   7.930   2.294
14905WAT     H144957   0.458   7.953   2.215
14905WAT     H244958   0.576   8.006   2.314
14906WAT      O44959   8.470   8.958   5.186
14906WAT     H144960   8.502   9.032   5.245
14906WAT     H244961   8.534   8.945   5.110
14907WAT      O44962   0.420   3.139   9.239
14907WAT     H144963   0.444   3.062   9.298
14907WAT     H244964   0.332   3.121   9.194
14908WAT      O44965   4.997   4.642   9.284
14908WAT     H144966   5.088   4.666   9.320
14908WAT     H244967   4.928   4.702   9.325
14909WAT      O44968   2.724   3.989   2.280
14909WAT     H144969   2.637   4.027   2.250
14909WAT     H244970   2.794   4.009   2.212
14910WAT      O44971   5.398   0.439   4.625
14910WAT     H144972   5.299   0.427   4.627
14910WAT     H244973   5.442   0.360   4.668
14911WAT      O44974   3.550   3.769   9.392
14911WAT     H144975   3.554   3.677   9.353
14911WAT     H244976   3.472   3.776   9.454
14912WAT      O44977   9.514   7.816   7.875
14912WAT     H144978   9.470   7.770   7.797
14912WAT     H244979   9.499   7.763   7.958
14913WAT      O44980   4.820   6.190   0.083
14913WAT     H144981   4.792   6.140   0.164
14913WAT     H244982   4.827   6.288   0.103
14914WAT      O44983   8.635   2.229   0.492
14914WAT     H144984   8.643   2.183   0.404
14914WAT     H244985   8.578   2.174   0.554
14915WAT      O44986   1.886   7.795   3.689
14915WAT     H144987   1.957   7.770   3.756
14915WAT     H244988   1.869   7.717   3.629
14916WAT      O44989   8.399   7.511   0.982
14916WAT     H144990   8.478   7.462   1.020
14916WAT     H244991   8.380   7.592   1.037
14917WAT      O44992   7.995   2.834   2.297
14917WAT     H144993   8.092   2.851   2.318
14917WAT     H244994   7.941   2.913   2.326
14918WAT      O44995   2.500   4.595   8.433
14918WAT     H144996   2.457   4.530   8.370
14918WAT     H244997   2.452   4.682   8.429
14919WAT      O44998   2.716   8.171   3.288
14919WAT     H144999   2.766   8.162   3.202
14919WAT     H245000   2.649   8.098   3.295
14920WAT      O45001   0.747   0.881   1.013
14920WAT     H145002   0.763   0.839   1.103
14920WAT     H245003   0.835   0.908   0.974
14921WAT      O45004   4.450   7.883   3.959
14921WAT     H145005   4.513   7.823   4.010
14921WAT     H245006   4.362   7.886   4.007
14922WAT      O45007   2.003   0.464   1.744
14922WAT     H145008   2.001   0.512   1.656
14922WAT     H245009   1.909   0.453   1.777
14923WAT      O45010   9.853   9.609   3.234
14923WAT     H145011   9.800   9.657   3.164
14923WAT     H245012   9.891   9.525   3.195
14924WAT      O45013   9.663   7.279   9.457
14924WAT     H145014   9.744   7.221   9.453
14924WAT     H245015   9.655   7.320   9.547
14925WAT      O45016   7.386   3.877   7.599
14925WAT     H145017   7.405   3.783   7.628
14925WAT     H245018   7.323   3.920   7.664
14926WAT      O45019   2.640   4.717   0.242
14926WAT     H145020   2.722   4.773   0.247
14926WAT     H245021   2.665   4.621   0.229
14927WAT      O45022   7.993   5.929   8.635
14927WAT     H145023   7.906   5.905   8.678
14927WAT     H245024   8.062   5.861   8.659
14928WAT      O45025   0.227   3.785   2.828
14928WAT     H145026   0.287   3.809   2.904
14928WAT     H245027   0.141   3.751   2.863
14929WAT      O45028   3.653   1.609   7.742
14929WAT     H145029   3.565   1.561   7.747
14929WAT     H245030   3.677   1.642   7.833
14930WAT      O45031   8.134   3.447   0.182
14930WAT     H145032   8.131   3.521   0.250
14930WAT     H245033   8.076   3.471   0.104
14931WAT      O45034   2.232   8.852   8.805
14931WAT     H145035   2.137   8.855   8.839
14931WAT     H245036   2.292   8.820   8.878
14932WAT      O45037   7.727   2.578   5.488
14932WAT     H145038   7.664   2.562   5.565
14932WAT     H245039   7.675   2.605   5.408
14933WAT      O45040   9.779   3.403   5.981
14933WAT     H145041   9.805   3.317   6.025
14933WAT     H245042   9.815   3.404   5.887
14934WAT      O45043   0.183   7.690   6.315
14934WAT     H145044   0.096   7.727   6.349
14934WAT     H245045   0.259   7.730   6.366
14935WAT      O45046   4.493   0.185   0.947
14935WAT     H145047   4.439   0.253   0.897
14935WAT     H245048   4.432   0.122   0.995
14936WAT      O45049   3.710   3.754   0.403
14936WAT     H145050   3.784   3.729   0.465
14936WAT     H245051   3.641   3.682   0.403
14937WAT      O45052   1.937   9.244   4.909
14937WAT     H145053   1.927   9.282   5.001
14937WAT     H245054   1.981   9.155   4.913
14938WAT      O45055   7.363   7.674   9.244
14938WAT     H145056   7.323   7.726   9.168
14938WAT     H245057   7.428   7.608   9.208
14939WAT      O45058   8.439   0.248   4.594
14939WAT     H145059   8.450   0.347   4.593
14939WAT     H245060   8.361   0.222   4.537
14940WAT      O45061   2.791   4.315   1.061
14940WAT     H145062   2.890   4.310   1.078
14940WAT     H245063   2.772   4.392   0.999
14941WAT      O45064   1.626   6.854   2.356
14941WAT     H145065   1.583   6.765   2.345
14941WAT     H245066   1.585   6.902   2.433
14942WAT      O45067   7.799   6.861   9.400
14942WAT     H145068   7.763   6.952   9.423
14942WAT     H245069   7.882   6.870   9.346
14943WAT      O45070   2.763   5.712   1.208
14943WAT     H145071   2.786   5.730   1.304
14943WAT     H245072   2.750   5.613   1.195
14944WAT      O45073   6.320   3.157   9.318
14944WAT     H145074   6.286   3.070   9.352
14944WAT     H245075   6.268   3.232   9.359
14945WAT      O45076   5.770   8.491   8.195
14945WAT     H145077   5.687   8.435   8.207
14945WAT     H245078   5.817   8.500   8.282
14946WAT      O45079   7.983   8.655   1.930
14946WAT     H145080   7.929   8.604   1.996
14946WAT     H245081   8.029   8.732   1.976
14947WAT      O45082   5.644   6.041   6.508
14947WAT     H145083   5.626   5.954   6.556
14947WAT     H245084   5.727   6.032   6.453
14948WAT      O45085   8.986   4.512   3.846
14948WAT     H145086   8.926   4.588   3.823
14948WAT     H245087   8.973   4.487   3.942
14949WAT      O45088   3.680   0.160   8.029
14949WAT     H145089   3.679   0.260   8.041
14949WAT     H245090   3.773   0.131   8.005
14950WAT      O45091   1.306   2.010   2.269
14950WAT     H145092   1.283   2.082   2.334
14950WAT     H245093   1.258   1.926   2.294
14951WAT      O45094   2.149   8.544   8.705
14951WAT     H145095   2.152   8.643   8.715
14951WAT     H245096   2.242   8.507   8.703
14952WAT      O45097   9.859   7.428   2.655
14952WAT     H145098   9.891   7.343   2.697
14952WAT     H245099   9.927   7.499   2.669
14953WAT      O45100   1.792   3.044   2.776
14953WAT     H145101   1.757   3.124   2.728
14953WAT     H245102   1.844   3.073   2.856
14954WAT      O45103   8.236   4.423   5.970
14954WAT     H145104   8.218   4.377   6.058
14954WAT     H245105   8.313   4.378   5.925
14955WAT      O45106   9.256   1.332   4.647
14955WAT     H145107   9.280   1.240   4.616
14955WAT     H245108   9.266   1.396   4.572
14956WAT      O45109   6.113   5.553   8.963
14956WAT     H145110   6.072   5.486   8.901
14956WAT     H245111   6.209   5.566   8.940
14957WAT      O45112   8.526   9.523   6.210
14957WAT     H145113   8.583   9.542   6.290
14957WAT     H245114   8.502   9.610   6.166
14958WAT      O45115   4.778   2.509   7.091
14958WAT     H145116   4.802   2.599   7.127
14958WAT     H245117   4.819   2.439   7.149
14959WAT      O45118   9.577   0.883   8.227
14959WAT     H145119   9.575   0.867   8.128
14959WAT     H245120   9.614   0.973   8.246
14960WAT      O45121   0.739   1.996   9.545
14960WAT     H145122   0.674   2.020   9.617
14960WAT     H245123   0.689   1.973   9.461
14961WAT      O45124   6.417   8.454   3.310
14961WAT     H145125   6.387   8.544   3.340
14961WAT     H245126   6.381   8.436   3.218
14962WAT      O45127   6.343   1.685   4.221
14962WAT     H145128   6.433   1.644   4.211
14962WAT     H245129   6.274   1.613   4.227
14963WAT      O45130   0.484   5.115   0.364
14963WAT     H145131   0.560   5.069   0.318
14963WAT     H245132   0.477   5.209   0.329
14964WAT      O45133   4.020   5.117   2.871
14964WAT     H145134   4.022   5.043   2.803
14964WAT     H245135   4.086   5.188   2.845
14965WAT      O45136   4.221   9.470   3.289
14965WAT     H145137   4.209   9.569   3.290
14965WAT     H245138   4.148   9.427   3.236
14966WAT      O45139   7.975   8.876   0.194
14966WAT     H145140   7.973   8.795   0.135
14966WAT     H245141   8.064   8.884   0.238
14967WAT      O45142   1.381   4.572   5.888
14967WAT     H145143   1.297   4.537   5.930
14967WAT     H245144   1.453   4.579   5.956
14968WAT      O45145   6.311   3.223   6.167
14968WAT     H145146   6.389   3.187   6.116
14968WAT     H245147   6.269   3.297   6.115
14969WAT      O45148   0.819   6.307   3.514
14969WAT     H145149   0.874   6.276   3.436
14969WAT     H245150   0.876   6.359   3.577
14970WAT      O45151   4.055   1.251   1.536
14970WAT     H145152   4.033   1.255   1.634
14970WAT     H245153   3.990   1.306   1.484
14971WAT      O45154   4.611   2.116   9.740
14971WAT     H145155   4.666   2.107   9.823
14971WAT     H245156   4.672   2.124   9.661
14972WAT      O45157   3.612   3.815   7.543
14972WAT     H145158   3.632   3.795   7.639
14972WAT     H245159   3.654   3.903   7.519
14973WAT      O45160   9.459   4.901   1.293
14973WAT     H145161   9.383   4.917   1.231
14973WAT     H245162   9.494   4.989   1.327
14974WAT      O45163   8.929   5.679   6.597
14974WAT     H145164   8.836   5.668   6.562
14974WAT     H245165   8.960   5.593   6.636
14975WAT      O45166   4.201   2.295   7.868
14975WAT     H145167   4.246   2.220   7.820
14975WAT     H245168   4.247   2.381   7.845
14976WAT      O45169   3.935   8.966   4.272
14976WAT     H145170   3.865   9.018   4.224
14976WAT     H245171   3.957   9.011   4.359
14977WAT      O45172   3.981   5.345   8.244
14977WAT     H145173   3.975   5.416   8.174
14977WAT     H245174   3.912   5.275   8.228
14978WAT      O45175   0.821   6.216   3.834
14978WAT     H145176   0.815   6.316   3.833
14978WAT     H245177   0.910   6.188   3.800
14979WAT      O45178   9.535   0.780   9.011
14979WAT     H145179   9.579   0.708   8.957
14979WAT     H245180   9.591   0.862   9.008
14980WAT      O45181   5.127   7.615   1.991
14980WAT     H145182   5.090   7.596   1.901
14980WAT     H245183   5.105   7.540   2.054
14981WAT      O45184   4.334   7.053   6.829
14981WAT     H145185   4.322   7.074   6.731
14981WAT     H245186   4.410   6.989   6.840
14982WAT      O45187   5.620   6.555   5.371
14982WAT     H145188   5.655   6.463   5.389
14982WAT     H245189   5.620   6.607   5.456
14983WAT      O45190   1.059   9.311   0.527
14983WAT     H145191   1.122   9.386   0.544
14983WAT     H245192   1.007   9.291   0.610
14984WAT      O45193   3.395   2.863   0.706
14984WAT     H145194   3.317   2.828   0.656
14984WAT     H245195   3.476   2.809   0.683
14985WAT      O45196   7.719   9.256   4.152
14985WAT     H145197   7.749   9.284   4.243
14985WAT     H245198   7.765   9.312   4.083
14986WAT      O45199   3.874   1.958   1.976
14986WAT     H145200   3.865   1.865   1.941
14986WAT     H245201   3.963   1.968   2.021
14987WAT      O45202   7.954   9.216   9.217
14987WAT     H145203   7.873   9.223   9.160
14987WAT     H245204   7.935   9.252   9.308
14988WAT      O45205   6.043   3.707   3.428
14988WAT     H145206   6.077   3.641   3.495
14988WAT     H245207   6.059   3.800   3.462
14989WAT      O45208   2.349   8.576   0.282
14989WAT     H145209   2.390   8.559   0.192
14989WAT     H245210   2.270   8.636   0.272
14990WAT      O45211   2.303   1.904   0.440
14990WAT     H145212   2.343   1.834   0.499
14990WAT     H245213   2.204   1.895   0.439
14991WAT      O45214   6.299   6.543   0.025
14991WAT     H145215   6.335   6.631   0.054
14991WAT     H245216   6.275   6.547  -0.073
14992WAT      O45217   0.465   9.093   4.448
14992WAT     H145218   0.390   9.082   4.382
14992WAT     H245219   0.504   9.185   4.438
14993WAT      O45220   7.805   9.110   6.186
14993WAT     H145221   7.837   9.054   6.262
14993WAT     H245222   7.741   9.179   6.219
14994WAT      O45223   2.968   0.746   5.512
14994WAT     H145224   2.941   0.652   5.534
14994WAT     H245225   2.904   0.784   5.445
14995WAT      O45226   4.960   3.680   2.358
14995WAT     H145227   4.911   3.604   2.317
14995WAT     H245228   5.007   3.649   2.441
14996WAT      O45229   1.403   0.587   9.301
14996WAT     H145230   1.443   0.651   9.366
14996WAT     H245231   1.343   0.523   9.349
14997WAT      O45232   6.655   6.037   8.216
14997WAT     H145233   6.751   6.007   8.217
14997WAT     H245234   6.626   6.056   8.309
14998WAT      O45235   9.548   5.231   4.855
14998WAT     H145236   9.554   5.157   4.788
14998WAT     H245237   9.519   5.315   4.810
14999WAT      O45238   1.931   5.419   5.817
14999WAT     H145239   1.913   5.507   5.772
14999WAT     H245240   1.875   5.412   5.899
15000WAT      O45241   9.744   7.372   3.739
15000WAT     H145242   9.675   7.384   3.667
15000WAT     H245243   9.771   7.462   3.774
15001WAT      O45244   0.916   4.140   5.683
15001WAT     H145245   0.989   4.086   5.725
15001WAT     H245246   0.831   4.087   5.682
15002WAT      O45247   9.327   0.304   6.123
15002WAT     H145248   9.348   0.298   6.025
15002WAT     H245249   9.354   0.219   6.168
15003WAT      O45250   9.561   3.812   5.905
15003WAT     H145251   9.602   3.761   5.980
15003WAT     H245252   9.633   3.852   5.848
15004WAT      O45253   6.724   3.580   1.679
15004WAT     H145254   6.804   3.602   1.623
15004WAT     H245255   6.646   3.560   1.619
15005WAT      O45256   0.232   5.887   1.550
15005WAT     H145257   0.135   5.865   1.541
15005WAT     H245258   0.279   5.813   1.599
15006WAT      O45259   1.442   2.410   3.764
15006WAT     H145260   1.497   2.391   3.682
15006WAT     H245261   1.347   2.426   3.737
15007WAT      O45262   0.037   2.904   9.174
15007WAT     H145263  -0.050   2.856   9.159
15007WAT     H245264   0.082   2.868   9.256
15008WAT      O45265   3.572   9.696   5.746
15008WAT     H145266   3.642   9.649   5.801
15008WAT     H245267   3.557   9.788   5.783
15009WAT      O45268   6.691   8.903   5.695
15009WAT     H145269   6.781   8.923   5.656
15009WAT     H245270   6.678   8.956   5.778
15010WAT      O45271   1.676   0.220   3.751
15010WAT     H145272   1.728   0.138   3.776
15010WAT     H245273   1.583   0.195   3.726
15011WAT      O45274   0.497   6.801   4.187
15011WAT     H145275   0.404   6.836   4.173
15011WAT     H245276   0.550   6.812   4.103
15012WAT      O45277   6.485   0.727   2.689
15012WAT     H145278   6.520   0.697   2.777
15012WAT     H245279   6.489   0.826   2.683
15013WAT      O45280   4.992   1.982   1.847
15013WAT     H145281   5.015   1.913   1.779
15013WAT     H245282   5.043   2.066   1.829
15014WAT      O45283   3.864   1.693   1.906
15014WAT     H145284   3.830   1.600   1.897
15014WAT     H245285   3.909   1.721   1.822
15015WAT      O45286   5.924   3.974   1.400
15015WAT     H145287   5.862   4.035   1.449
15015WAT     H245288   5.888   3.957   1.308
15016WAT      O45289   3.833   2.724   0.874
15016WAT     H145290   3.769   2.648   0.884
15016WAT     H245291   3.924   2.696   0.906
15017WAT      O45292   8.849   5.278   4.861
15017WAT     H145293   8.909   5.230   4.925
15017WAT     H245294   8.883   5.371   4.847
15018WAT      O45295   7.991   8.638   9.877
15018WAT     H145296   8.073   8.594   9.914
15018WAT     H245297   8.013   8.684   9.791
15019WAT      O45298   2.824   4.062   3.486
15019WAT     H145299   2.885   4.080   3.563
15019WAT     H245300   2.832   4.137   3.420
15020WAT      O45301   5.186   8.570   1.040
15020WAT     H145302   5.279   8.560   1.005
15020WAT     H245303   5.148   8.480   1.060
15021WAT      O45304   6.985   5.960   9.248
15021WAT     H145305   6.916   5.890   9.263
15021WAT     H245306   6.946   6.050   9.269
15022WAT      O45307   3.799   5.318   4.311
15022WAT     H145308   3.824   5.291   4.404
15022WAT     H245309   3.873   5.371   4.271
15023WAT      O45310   1.558   2.303   6.719
15023WAT     H145311   1.654   2.285   6.739
15023WAT     H245312   1.551   2.377   6.652
15024WAT      O45313   8.227   1.069   9.360
15024WAT     H145314   8.266   0.984   9.395
15024WAT     H245315   8.299   1.124   9.318
15025WAT      O45316   9.366   3.688   5.465
15025WAT     H145317   9.408   3.645   5.545
15025WAT     H245318   9.345   3.618   5.397
15026WAT      O45319   6.887   7.634   4.500
15026WAT     H145320   6.853   7.713   4.449
15026WAT     H245321   6.846   7.633   4.591
15027WAT      O45322   4.789   9.308   2.367
15027WAT     H145323   4.833   9.366   2.298
15027WAT     H245324   4.705   9.269   2.329
15028WAT      O45325   3.281   6.213   6.109
15028WAT     H145326   3.205   6.188   6.049
15028WAT     H245327   3.251   6.286   6.171
15029WAT      O45328   4.291   7.359   5.506
15029WAT     H145329   4.375   7.412   5.494
15029WAT     H245330   4.250   7.339   5.417
15030WAT      O45331   7.985   0.945   8.388
15030WAT     H145332   7.921   0.883   8.434
15030WAT     H245333   8.035   0.998   8.457
15031WAT      O45334   5.067   4.255   9.131
15031WAT     H145335   5.028   4.341   9.098
15031WAT     H245336   5.007   4.179   9.105
15032WAT      O45337   5.121   3.446   5.029
15032WAT     H145338   5.041   3.393   4.999
15032WAT     H245339   5.199   3.425   4.970
15033WAT      O45340   6.832   9.313   4.494
15033WAT     H145341   6.879   9.240   4.445
15033WAT     H245342   6.761   9.353   4.436
15034WAT      O45343   6.694   2.984   0.052
15034WAT     H145344   6.717   2.914   0.118
15034WAT     H245345   6.639   2.944  -0.022
15035WAT      O45346   1.349   5.598   4.931
15035WAT     H145347   1.379   5.693   4.920
15035WAT     H245348   1.306   5.567   4.846
15036WAT      O45349   3.554   4.109   3.834
15036WAT     H145350   3.460   4.137   3.814
15036WAT     H245351   3.579   4.139   3.926
15037WAT      O45352   2.878   9.062   7.978
15037WAT     H145353   2.911   9.148   8.017
15037WAT     H245354   2.922   9.048   7.889
15038WAT      O45355   7.243   5.680   2.570
15038WAT     H145356   7.182   5.602   2.584
15038WAT     H245357   7.324   5.671   2.629
15039WAT      O45358   0.587   1.999   0.969
15039WAT     H145359   0.572   2.018   1.066
15039WAT     H245360   0.674   1.950   0.957
15040WAT      O45361   6.752   6.032   7.166
15040WAT     H145362   6.755   6.078   7.077
15040WAT     H245363   6.793   5.941   7.158
15041WAT      O45364   7.197   6.652   6.507
15041WAT     H145365   7.190   6.567   6.560
15041WAT     H245366   7.110   6.670   6.462
15042WAT      O45367   8.970   7.748   7.494
15042WAT     H145368   8.986   7.664   7.545
15042WAT     H245369   9.043   7.814   7.515
15043WAT      O45370   3.033   1.719   8.313
15043WAT     H145371   3.060   1.724   8.409
15043WAT     H245372   3.108   1.751   8.256
15044WAT      O45373   8.053   0.432   1.278
15044WAT     H145374   8.083   0.381   1.359
15044WAT     H245375   8.035   0.527   1.304
15045WAT      O45376   0.820   4.223   9.698
15045WAT     H145377   0.852   4.259   9.785
15045WAT     H245378   0.778   4.133   9.713
15046WAT      O45379   0.921   3.978   2.742
15046WAT     H145380   0.915   4.077   2.727
15046WAT     H245381   0.992   3.959   2.809
15047WAT      O45382   7.557   8.297   1.652
15047WAT     H145383   7.633   8.362   1.661
15047WAT     H245384   7.534   8.260   1.742
15048WAT      O45385   7.066   6.861   7.487
15048WAT     H145386   7.117   6.880   7.403
15048WAT     H245387   6.998   6.791   7.470
15049WAT      O45388   5.148   4.168   8.151
15049WAT     H145389   5.082   4.243   8.142
15049WAT     H245390   5.129   4.117   8.235
15050WAT      O45391   2.912   3.168   3.037
15050WAT     H145392   2.890   3.089   3.095
15050WAT     H245393   3.011   3.170   3.022
15051WAT      O45394   3.511   1.623   6.953
15051WAT     H145395   3.553   1.587   7.037
15051WAT     H245396   3.502   1.722   6.960
15052WAT      O45397   4.448   0.624   5.939
15052WAT     H145398   4.521   0.617   5.870
15052WAT     H245399   4.461   0.553   6.008
15053WAT      O45400   5.559   3.408   2.701
15053WAT     H145401   5.500   3.399   2.781
15053WAT     H245402   5.504   3.408   2.618
15054WAT      O45403   9.564   2.181   3.760
15054WAT     H145404   9.625   2.102   3.767
15054WAT     H245405   9.581   2.243   3.836
15055WAT      O45406   4.359   2.649   5.417
15055WAT     H145407   4.360   2.744   5.451
15055WAT     H245408   4.383   2.587   5.492
15056WAT      O45409   9.417   8.207   1.759
15056WAT     H145410   9.348   8.150   1.715
15056WAT     H245411   9.396   8.304   1.743
15057WAT      O45412   2.928   0.240   5.067
15057WAT     H145413   2.914   0.171   4.995
15057WAT     H245414   2.851   0.238   5.131
15058WAT      O45415   8.566   9.812   9.839
15058WAT     H145416   8.596   9.741   9.776
15058WAT     H245417   8.468   9.803   9.856
15059WAT      O45418   5.772   8.062   9.517
15059WAT     H145419   5.742   8.063   9.422
15059WAT     H245420   5.844   8.130   9.531
15060WAT      O45421   7.273   4.726   5.721
15060WAT     H145422   7.234   4.752   5.808
15060WAT     H245423   7.254   4.797   5.653
15061WAT      O45424   5.964   7.418   1.482
15061WAT     H145425   5.889   7.371   1.437
15061WAT     H245426   6.021   7.464   1.414
15062WAT      O45427   5.614   1.977   7.907
15062WAT     H145428   5.549   1.942   7.975
15062WAT     H245429   5.693   2.016   7.954
15063WAT      O45430   3.226   6.198   7.514
15063WAT     H145431   3.275   6.165   7.434
15063WAT     H245432   3.212   6.297   7.506
15064WAT      O45433   4.082   6.569   0.336
15064WAT     H145434   4.135   6.546   0.254
15064WAT     H245435   4.104   6.663   0.364
15065WAT      O45436   8.660   8.300   6.684
15065WAT     H145437   8.688   8.272   6.592
15065WAT     H245438   8.700   8.390   6.705
15066WAT      O45439   3.015   1.174   0.388
15066WAT     H145440   2.919   1.165   0.414
15066WAT     H245441   3.023   1.235   0.309
15067WAT      O45442   0.434   1.680   8.888
15067WAT     H145443   0.410   1.772   8.858
15067WAT     H245444   0.530   1.661   8.864
15068WAT      O45445   6.128   9.549   9.579
15068WAT     H145446   6.164   9.495   9.503
15068WAT     H245447   6.030   9.531   9.589
15069WAT      O45448   6.975   1.570   8.448
15069WAT     H145449   6.907   1.643   8.455
15069WAT     H245450   6.980   1.521   8.536
15070WAT      O45451   9.020   7.148   5.688
15070WAT     H145452   9.070   7.233   5.708
15070WAT     H245453   9.055   7.108   5.603
15071WAT      O45454   3.026   2.908   7.932
15071WAT     H145455   3.032   2.997   7.888
15071WAT     H245456   3.071   2.839   7.875
15072WAT      O45457   6.865   8.189   5.858
15072WAT     H145458   6.843   8.108   5.913
15072WAT     H245459   6.848   8.170   5.762
15073WAT      O45460   2.396   5.773   9.054
15073WAT     H145461   2.299   5.787   9.072
15073WAT     H245462   2.410   5.687   9.005
15074WAT      O45463   1.836   7.668   9.405
15074WAT     H145464   1.869   7.756   9.440
15074WAT     H245465   1.764   7.685   9.337
15075WAT      O45466   6.360   3.883   3.044
15075WAT     H145467   6.345   3.825   3.124
15075WAT     H245468   6.285   3.871   2.979
15076WAT      O45469   7.497   0.709   2.360
15076WAT     H145470   7.482   0.662   2.273
15076WAT     H245471   7.418   0.693   2.420
15077WAT      O45472   0.815   6.157   8.428
15077WAT     H145473   0.829   6.210   8.512
15077WAT     H245474   0.857   6.204   8.351
15078WAT      O45475   4.951   2.268   8.766
15078WAT     H145476   4.861   2.274   8.808
15078WAT     H245477   5.021   2.267   8.838
15079WAT      O45478   3.937   2.614   6.050
15079WAT     H145479   3.869   2.562   6.102
15079WAT     H245480   4.024   2.614   6.099
15080WAT      O45481   7.241   6.615   8.006
15080WAT     H145482   7.234   6.702   7.956
15080WAT     H245483   7.258   6.541   7.941
15081WAT      O45484   3.655   8.240   1.727
15081WAT     H145485   3.577   8.266   1.784
15081WAT     H245486   3.686   8.319   1.675
15082WAT      O45487   8.625   3.888   4.328
15082WAT     H145488   8.609   3.900   4.426
15082WAT     H245489   8.600   3.972   4.280
15083WAT      O45490   7.923   4.454   6.602
15083WAT     H145491   7.871   4.534   6.573
15083WAT     H245492   7.877   4.411   6.680
15084WAT      O45493   6.639   5.501   2.524
15084WAT     H145494   6.699   5.422   2.537
15084WAT     H245495   6.689   5.573   2.476
15085WAT      O45496   6.086   9.777   2.918
15085WAT     H145497   6.136   9.843   2.862
15085WAT     H245498   6.058   9.821   3.004
15086WAT      O45499   6.053   7.740   4.816
15086WAT     H145500   6.001   7.767   4.897
15086WAT     H245501   5.994   7.692   4.752
15087WAT      O45502   8.505   8.966   9.142
15087WAT     H145503   8.496   8.869   9.167
15087WAT     H245504   8.423   9.015   9.172
15088WAT      O45505   0.073   9.513   5.256
15088WAT     H145506   0.073   9.424   5.302
15088WAT     H245507  -0.005   9.517   5.193
15089WAT      O45508   3.373   3.752   2.619
15089WAT     H145509   3.427   3.836   2.615
15089WAT     H245510   3.429   3.675   2.590
15090WAT      O45511   2.494   5.106   3.313
15090WAT     H145512   2.578   5.058   3.338
15090WAT     H245513   2.417   5.069   3.365
15091WAT      O45514   7.578   6.235   7.273
15091WAT     H145515   7.625   6.235   7.185
15091WAT     H245516   7.500   6.298   7.270
15092WAT      O45517   5.166   4.963   8.358
15092WAT     H145518   5.082   5.017   8.356
15092WAT     H245519   5.171   4.905   8.277
15093WAT      O45520   2.156   3.651   1.586
15093WAT     H145521   2.168   3.636   1.684
15093WAT     H245522   2.219   3.592   1.535
15094WAT      O45523   1.417   3.262   3.335
15094WAT     H145524   1.324   3.272   3.370
15094WAT     H245525   1.450   3.351   3.304
15095WAT      O45526   0.380   5.767   9.795
15095WAT     H145527   0.425   5.771   9.705
15095WAT     H245528   0.419   5.838   9.854
15096WAT      O45529   6.678   0.523   8.360
15096WAT     H145530   6.621   0.524   8.278
15096WAT     H245531   6.666   0.435   8.407
15097WAT      O45532   2.327   9.477   8.877
15097WAT     H145533   2.365   9.389   8.850
15097WAT     H245534   2.228   9.477   8.861
15098WAT      O45535   9.536   8.989   0.423
15098WAT     H145536   9.481   8.953   0.348
15098WAT     H245537   9.490   8.971   0.510
15099WAT      O45538   4.750   5.962   5.291
15099WAT     H145539   4.733   6.059   5.310
15099WAT     H245540   4.663   5.913   5.289
15100WAT      O45541   1.090   4.534   5.282
15100WAT     H145542   0.999   4.576   5.287
15100WAT     H245543   1.158   4.600   5.315
15101WAT      O45544   3.652   1.440   9.859
15101WAT     H145545   3.643   1.375   9.934
15101WAT     H245546   3.677   1.530   9.895
15102WAT      O45547   2.919   0.044   2.971
15102WAT     H145548   2.976   0.077   3.047
15102WAT     H245549   2.929   0.105   2.893
15103WAT      O45550   5.831   5.966   1.959
15103WAT     H145551   5.867   6.049   2.003
15103WAT     H245552   5.773   5.917   2.024
15104WAT      O45553   4.898   1.248   8.439
15104WAT     H145554   4.822   1.298   8.481
15104WAT     H245555   4.926   1.174   8.500
15105WAT      O45556   3.448   0.509   5.133
15105WAT     H145557   3.537   0.550   5.114
15105WAT     H245558   3.422   0.449   5.057
15106WAT      O45559   1.482   9.836   2.044
15106WAT     H145560   1.498   9.791   1.956
15106WAT     H245561   1.514   9.778   2.118
15107WAT      O45562   4.629   1.629   2.247
15107WAT     H145563   4.557   1.561   2.256
15107WAT     H245564   4.632   1.662   2.153
15108WAT      O45565   9.570   0.710   3.778
15108WAT     H145566   9.531   0.619   3.765
15108WAT     H245567   9.662   0.713   3.738
15109WAT      O45568   0.616   6.464   5.374
15109WAT     H145569   0.571   6.485   5.461
15109WAT     H245570   0.669   6.380   5.384
15110WAT      O45571   3.424   7.196   3.510
15110WAT     H145572   3.489   7.207   3.585
15110WAT     H245573   3.460   7.241   3.428
15111WAT      O45574   6.619   2.486   2.792
15111WAT     H145575   6.695   2.522   2.739
15111WAT     H245576   6.610   2.388   2.776
15112WAT      O45577   5.937   0.599   3.872
15112WAT     H145578   5.970   0.515   3.916
15112WAT     H245579   6.010   0.666   3.869
15113WAT      O45580   8.872   3.522   1.769
15113WAT     H145581   8.834   3.498   1.679
15113WAT     H245582   8.818   3.597   1.808
15114WAT      O45583   9.827   5.331   4.031
15114WAT     H145584   9.924   5.354   4.040
15114WAT     H245585   9.779   5.405   3.984
15115WAT      O45586   3.834   4.541   9.147
15115WAT     H145587   3.899   4.608   9.181
15115WAT     H245588   3.875   4.449   9.154
15116WAT      O45589   8.925   6.382   1.291
15116WAT     H145590   8.854   6.348   1.229
15116WAT     H245591   9.006   6.407   1.238
15117WAT      O45592   1.422   2.972   0.311
15117WAT     H145593   1.377   2.883   0.315
15117WAT     H245594   1.491   2.971   0.239
15118WAT      O45595   1.035   8.153   2.860
15118WAT     H145596   1.074   8.078   2.806
15118WAT     H245597   1.033   8.127   2.957
15119WAT      O45598   0.557   4.833   5.509
15119WAT     H145599   0.480   4.880   5.551
15119WAT     H245600   0.643   4.874   5.541
15120WAT      O45601   3.210   2.338   4.351
15120WAT     H145602   3.209   2.420   4.407
15120WAT     H245603   3.119   2.297   4.351
15121WAT      O45604   3.779   2.819   4.328
15121WAT     H145605   3.722   2.741   4.353
15121WAT     H245606   3.866   2.786   4.291
15122WAT      O45607   4.309   9.827   4.999
15122WAT     H145608   4.215   9.819   5.033
15122WAT     H245609   4.331   9.923   4.983
15123WAT      O45610   3.110   0.931   0.320
15123WAT     H145611   3.074   1.011   0.367
15123WAT     H245612   3.056   0.850   0.345
15124WAT      O45613   4.293   4.797   7.187
15124WAT     H145614   4.226   4.741   7.138
15124WAT     H245615   4.250   4.883   7.215
15125WAT      O45616   7.447   2.803   6.985
15125WAT     H145617   7.369   2.852   7.024
15125WAT     H245618   7.506   2.770   7.058
15126WAT      O45619   9.109   9.718   1.917
15126WAT     H145620   9.127   9.640   1.857
15126WAT     H245621   9.011   9.725   1.935
15127WAT      O45622   8.241   9.606   9.339
15127WAT     H145623   8.251   9.569   9.432
15127WAT     H245624   8.194   9.540   9.282
15128WAT      O45625   7.972   8.448   9.039
15128WAT     H145626   8.038   8.377   9.063
15128WAT     H245627   7.926   8.481   9.121
15129WAT      O45628   7.373   2.307   0.887
15129WAT     H145629   7.430   2.365   0.945
15129WAT     H245630   7.327   2.238   0.942
15130WAT      O45631   1.995   6.974   3.639
15130WAT     H145632   1.971   6.948   3.546
15130WAT     H245633   2.068   6.914   3.672
15131WAT      O45634   0.611   2.222   1.378
15131WAT     H145635   0.645   2.290   1.443
15131WAT     H245636   0.515   2.239   1.359
15132WAT      O45637   1.899   3.587   0.541
15132WAT     H145638   1.867   3.561   0.631
15132WAT     H245639   1.938   3.507   0.494
15133WAT      O45640   2.065   3.869   6.913
15133WAT     H145641   1.996   3.824   6.855
15133WAT     H245642   2.063   3.968   6.895
15134WAT      O45643   6.968   1.792   1.417
15134WAT     H145644   6.891   1.830   1.470
15134WAT     H245645   6.944   1.701   1.384
15135WAT      O45646   3.331   0.056   6.056
15135WAT     H145647   3.378   0.088   5.973
15135WAT     H245648   3.304   0.135   6.111
15136WAT      O45649   8.677   7.828   1.583
15136WAT     H145650   8.588   7.784   1.568
15136WAT     H245651   8.667   7.903   1.648
15137WAT      O45652   1.448   0.397   7.120
15137WAT     H145653   1.430   0.479   7.173
15137WAT     H245654   1.375   0.384   7.053
15138WAT      O45655   9.194   0.315   0.682
15138WAT     H145656   9.271   0.373   0.709
15138WAT     H245657   9.151   0.277   0.764
15139WAT      O45658   5.019   8.864   1.120
15139WAT     H145659   5.102   8.920   1.124
15139WAT     H245660   5.018   8.813   1.034
15140WAT      O45661   1.479   4.441   5.454
15140WAT     H145662   1.401   4.412   5.398
15140WAT     H245663   1.467   4.409   5.548
15141WAT      O45664   2.131   7.922   7.225
15141WAT     H145665   2.091   7.882   7.307
15141WAT     H245666   2.219   7.964   7.247
15142WAT      O45667   7.722   6.494   7.948
15142WAT     H145668   7.809   6.532   7.978
15142WAT     H245669   7.649   6.559   7.968
15143WAT      O45670   8.753   7.964   5.246
15143WAT     H145671   8.793   7.876   5.273
15143WAT     H245672   8.826   8.031   5.233
15144WAT      O45673   7.722   1.568   1.684
15144WAT     H145674   7.667   1.501   1.734
15144WAT     H245675   7.667   1.609   1.611
15145WAT      O45676   1.836   8.304   3.882
15145WAT     H145677   1.751   8.311   3.934
15145WAT     H245678   1.837   8.375   3.811
15146WAT      O45679   5.022   8.253   9.021
15146WAT     H145680   5.047   8.350   9.023
15146WAT     H245681   4.930   8.243   8.983
15147WAT      O45682   5.103   7.104   1.045
15147WAT     H145683   5.095   7.005   1.039
15147WAT     H245684   5.017   7.146   1.016
15148WAT      O45685   5.327   0.180   0.102
15148WAT     H145686   5.243   0.151   0.147
15148WAT     H245687   5.385   0.228   0.167
15149WAT      O45688   2.252   7.499   2.273
15149WAT     H145689   2.179   7.551   2.318
15149WAT     H245690   2.341   7.525   2.311
15150WAT      O45691   6.083   4.701   5.552
15150WAT     H145692   6.171   4.722   5.510
15150WAT     H245693   6.094   4.692   5.651
15151WAT      O45694   1.017   9.654   0.585
15151WAT     H145695   0.938   9.650   0.647
15151WAT     H245696   1.088   9.592   0.618
15152WAT      O45697   5.891   5.981   1.342
15152WAT     H145698   5.851   6.056   1.289
15152WAT     H245699   5.968   5.942   1.292
15153WAT      O45700   1.909   6.805   2.733
15153WAT     H145701   1.860   6.749   2.800
15153WAT     H245702   1.987   6.754   2.698
15154WAT      O45703   3.632   8.767   2.037
15154WAT     H145704   3.573   8.774   1.957
15154WAT     H245705   3.628   8.674   2.074
15155WAT      O45706   8.130   4.914   0.970
15155WAT     H145707   8.170   4.940   1.058
15155WAT     H245708   8.195   4.855   0.921
15156WAT      O45709   8.057   5.813   4.690
15156WAT     H145710   8.146   5.784   4.725
15156WAT     H245711   7.987   5.794   4.758
15157WAT      O45712   8.756   6.585   5.960
15157WAT     H145713   8.761   6.555   6.056
15157WAT     H245714   8.845   6.571   5.917
15158WAT      O45715   9.864   5.542   8.751
15158WAT     H145716   9.941   5.545   8.813
15158WAT     H245717   9.779   5.555   8.802
15159WAT      O45718   7.377   5.322   2.932
15159WAT     H145719   7.367   5.278   3.021
15159WAT     H245720   7.389   5.421   2.944
15160WAT      O45721   7.217   1.508   3.078
15160WAT     H145722   7.270   1.437   3.124
15160WAT     H245723   7.132   1.524   3.128
15161WAT      O45724   8.714   4.235   1.361
15161WAT     H145725   8.697   4.179   1.442
15161WAT     H245726   8.683   4.329   1.379
15162WAT      O45727   3.961   8.955   2.880
15162WAT     H145728   3.993   9.047   2.855
15162WAT     H245729   3.866   8.944   2.849
15163WAT      O45730   2.052   3.307   6.971
15163WAT     H145731   2.097   3.268   6.891
15163WAT     H245732   2.076   3.404   6.978
15164WAT      O45733   3.310   1.316   2.799
15164WAT     H145734   3.393   1.264   2.820
15164WAT     H245735   3.316   1.406   2.842
15165WAT      O45736   2.437   3.576   1.515
15165WAT     H145737   2.447   3.505   1.585
15165WAT     H245738   2.483   3.546   1.431
15166WAT      O45739   8.023   2.790   8.991
15166WAT     H145740   8.114   2.764   9.023
15166WAT     H245741   8.015   2.890   8.992
15167WAT      O45742   0.081   3.718   4.693
15167WAT     H145743   0.059   3.646   4.626
15167WAT     H245744   0.165   3.694   4.741
15168WAT      O45745   8.294   3.346   7.803
15168WAT     H145746   8.261   3.292   7.725
15168WAT     H245747   8.310   3.286   7.881
15169WAT      O45748   1.326   4.970   3.486
15169WAT     H145749   1.266   4.890   3.496
15169WAT     H245750   1.370   4.990   3.573
15170WAT      O45751   8.093   8.807   2.741
15170WAT     H145752   8.002   8.767   2.756
15170WAT     H245753   8.106   8.822   2.643
15171WAT      O45754   0.956   5.365   7.797
15171WAT     H145755   1.033   5.313   7.759
15171WAT     H245756   0.932   5.438   7.733
15172WAT      O45757   1.709   8.277   9.758
15172WAT     H145758   1.802   8.274   9.720
15172WAT     H245759   1.700   8.208   9.829
15173WAT      O45760   7.663   3.274   3.704
15173WAT     H145761   7.733   3.207   3.729
15173WAT     H245762   7.706   3.350   3.655
15174WAT      O45763   3.388   5.822   3.903
15174WAT     H145764   3.484   5.846   3.886
15174WAT     H245765   3.361   5.747   3.844
15175WAT      O45766   1.829   6.582   5.364
15175WAT     H145767   1.784   6.670   5.350
15175WAT     H245768   1.876   6.583   5.452
15176WAT      O45769   0.154   1.312   2.871
15176WAT     H145770   0.114   1.257   2.944
15176WAT     H245771   0.196   1.394   2.910
15177WAT      O45772   4.958   8.567   7.318
15177WAT     H145773   5.011   8.546   7.400
15177WAT     H245774   4.941   8.665   7.313
15178WAT      O45775   5.617   8.882   7.958
15178WAT     H145776   5.536   8.934   7.986
15178WAT     H245777   5.591   8.812   7.892
15179WAT      O45778   8.498   9.136   7.565
15179WAT     H145779   8.458   9.164   7.651
15179WAT     H245780   8.428   9.135   7.493
15180WAT      O45781   9.374   1.901   7.438
15180WAT     H145782   9.298   1.921   7.499
15180WAT     H245783   9.405   1.807   7.453
15181WAT      O45784   8.657   6.901   4.154
15181WAT     H145785   8.628   6.858   4.068
15181WAT     H245786   8.602   6.866   4.229
15182WAT      O45787   4.224   8.013   7.204
15182WAT     H145788   4.270   7.926   7.223
15182WAT     H245789   4.291   8.081   7.175
15183WAT      O45790   1.940   4.020   2.569
15183WAT     H145791   2.007   4.027   2.495
15183WAT     H245792   1.927   3.924   2.593
15184WAT      O45793   3.821   3.499   8.483
15184WAT     H145794   3.762   3.579   8.475
15184WAT     H245795   3.914   3.528   8.504
15185WAT      O45796   8.264   3.696   6.833
15185WAT     H145797   8.277   3.608   6.789
15185WAT     H245798   8.269   3.769   6.764
15186WAT      O45799   6.307   6.492   4.124
15186WAT     H145800   6.395   6.537   4.108
15186WAT     H245801   6.233   6.555   4.104
15187WAT      O45802   3.679   6.903   4.725
15187WAT     H145803   3.761   6.850   4.709
15187WAT     H245804   3.647   6.887   4.819
15188WAT      O45805   5.133   0.211   1.059
15188WAT     H145806   5.201   0.220   1.133
15188WAT     H245807   5.149   0.283   0.991
15189WAT      O45808   3.160   3.255   8.839
15189WAT     H145809   3.229   3.220   8.903
15189WAT     H245810   3.194   3.246   8.746
15190WAT      O45811   9.753   4.663   6.794
15190WAT     H145812   9.835   4.716   6.817
15190WAT     H245813   9.681   4.682   6.861
15191WAT      O45814   1.580   2.250   9.540
15191WAT     H145815   1.629   2.333   9.514
15191WAT     H245816   1.503   2.274   9.599
15192WAT      O45817   8.739   1.249   3.396
15192WAT     H145818   8.799   1.289   3.326
15192WAT     H245819   8.734   1.311   3.475
15193WAT      O45820   2.190   7.720   6.851
15193WAT     H145821   2.199   7.650   6.779
15193WAT     H245822   2.175   7.809   6.808
15194WAT      O45823   0.883   7.051   8.206
15194WAT     H145824   0.952   7.115   8.237
15194WAT     H245825   0.822   7.028   8.282
15195WAT      O45826   0.726   3.211   3.324
15195WAT     H145827   0.743   3.211   3.226
15195WAT     H245828   0.629   3.222   3.342
15196WAT      O45829   5.312   4.326   2.007
15196WAT     H145830   5.244   4.399   2.012
15196WAT     H245831   5.391   4.357   1.955
15197WAT      O45832   6.290   4.755   5.394
15197WAT     H145833   6.317   4.750   5.298
15197WAT     H245834   6.372   4.755   5.452
15198WAT      O45835   7.867   3.480   1.533
15198WAT     H145836   7.799   3.412   1.509
15198WAT     H245837   7.891   3.471   1.630
15199WAT      O45838   3.227   6.356   0.382
15199WAT     H145839   3.153   6.342   0.317
15199WAT     H245840   3.286   6.275   0.383
15200WAT      O45841   8.160   3.855   1.170
15200WAT     H145842   8.103   3.938   1.171
15200WAT     H245843   8.116   3.785   1.114
15201WAT      O45844   6.548   6.659   9.552
15201WAT     H145845   6.578   6.604   9.474
15201WAT     H245846   6.581   6.753   9.541
15202WAT      O45847   5.467   2.632   8.844
15202WAT     H145848   5.459   2.730   8.824
15202WAT     H245849   5.432   2.579   8.766
15203WAT      O45850   3.214   9.310   9.802
15203WAT     H145851   3.168   9.399   9.803
15203WAT     H245852   3.239   9.285   9.896
15204WAT      O45853   1.839   3.871   0.850
15204WAT     H145854   1.902   3.854   0.774
15204WAT     H245855   1.871   3.950   0.902
15205WAT      O45856   6.457   9.282   5.758
15205WAT     H145857   6.532   9.345   5.739
15205WAT     H245858   6.374   9.334   5.779
15206WAT      O45859   9.175   6.586   7.356
15206WAT     H145860   9.269   6.586   7.393
15206WAT     H245861   9.178   6.606   7.258
15207WAT      O45862   5.200   1.296   1.112
15207WAT     H145863   5.200   1.197   1.122
15207WAT     H245864   5.255   1.338   1.184
15208WAT      O45865   3.708   1.726   1.549
15208WAT     H145866   3.711   1.825   1.545
15208WAT     H245867   3.801   1.690   1.558
15209WAT      O45868   3.854   2.752   6.372
15209WAT     H145869   3.941   2.716   6.404
15209WAT     H245870   3.856   2.852   6.374
15210WAT      O45871   0.957   2.037   5.805
15210WAT     H145872   1.003   2.033   5.716
15210WAT     H245873   0.860   2.057   5.791
15211WAT      O45874   9.303   9.204   9.101
15211WAT     H145875   9.287   9.110   9.073
15211WAT     H245876   9.281   9.266   9.025
15212WAT      O45877   7.762   4.817   4.267
15212WAT     H145878   7.837   4.882   4.253
15212WAT     H245879   7.734   4.779   4.179
15213WAT      O45880   1.570   1.434   1.883
15213WAT     H145881   1.609   1.391   1.965
15213WAT     H245882   1.637   1.432   1.809
15214WAT      O45883   6.879   3.484   9.224
15214WAT     H145884   6.946   3.430   9.275
15214WAT     H245885   6.829   3.543   9.286
15215WAT      O45886   9.244   1.250   3.749
15215WAT     H145887   9.149   1.279   3.760
15215WAT     H245888   9.280   1.219   3.837
15216WAT      O45889   1.624   0.124   4.019
15216WAT     H145890   1.644   0.168   3.932
15216WAT     H245891   1.567   0.184   4.075
15217WAT      O45892   7.649   4.950   9.826
15217WAT     H145893   7.663   4.996   9.913
15217WAT     H245894   7.645   4.851   9.841
15218WAT      O45895   7.613   7.218   8.906
15218WAT     H145896   7.561   7.132   8.905
15218WAT     H245897   7.576   7.278   8.977
15219WAT      O45898   9.712   5.854   7.276
15219WAT     H145899   9.693   5.904   7.361
15219WAT     H245900   9.626   5.841   7.226
15220WAT      O45901   5.830   4.258   0.794
15220WAT     H145902   5.743   4.306   0.791
15220WAT     H245903   5.878   4.280   0.879
15221WAT      O45904   5.057   6.592   2.081
15221WAT     H145905   4.991   6.629   2.146
15221WAT     H245906   5.027   6.502   2.050
15222WAT      O45907   5.089   2.569   8.152
15222WAT     H145908   5.087   2.594   8.248
15222WAT     H245909   5.106   2.651   8.096
15223WAT      O45910   3.845   3.879   4.028
15223WAT     H145911   3.870   3.971   3.997
15223WAT     H245912   3.758   3.852   3.986
15224WAT      O45913   9.843   5.866   1.508
15224WAT     H145914   9.818   5.905   1.420
15224WAT     H245915   9.775   5.891   1.577
15225WAT      O45916   3.213   6.266   5.701
15225WAT     H145917   3.189   6.176   5.665
15225WAT     H245918   3.133   6.307   5.744
15226WAT      O45919   2.572   6.273   3.318
15226WAT     H145920   2.670   6.293   3.323
15226WAT     H245921   2.559   6.174   3.309
15227WAT      O45922   0.318   6.458   3.201
15227WAT     H145923   0.404   6.500   3.172
15227WAT     H245924   0.296   6.489   3.294
15228WAT      O45925   1.035   7.948   4.079
15228WAT     H145926   1.057   7.972   4.174
15228WAT     H245927   0.936   7.949   4.067
15229WAT      O45928   6.178   6.683   1.896
15229WAT     H145929   6.132   6.744   1.831
15229WAT     H245930   6.277   6.697   1.890
15230WAT      O45931   9.362   4.492   3.318
15230WAT     H145932   9.446   4.443   3.297
15230WAT     H245933   9.364   4.520   3.414
15231WAT      O45934   2.381   2.932   2.307
15231WAT     H145935   2.308   3.000   2.314
15231WAT     H245936   2.343   2.840   2.318
15232WAT      O45937   4.954   8.446   6.060
15232WAT     H145938   4.915   8.533   6.090
15232WAT     H245939   4.983   8.453   5.964
15233WAT      O45940   4.628   3.451   4.261
15233WAT     H145941   4.687   3.406   4.195
15233WAT     H245942   4.633   3.550   4.248
15234WAT      O45943   4.810   8.108   5.459
15234WAT     H145944   4.831   8.102   5.556
15234WAT     H245945   4.759   8.027   5.430
15235WAT      O45946   5.287   3.160   2.424
15235WAT     H145947   5.382   3.141   2.399
15235WAT     H245948   5.262   3.107   2.505
15236WAT      O45949   3.015   9.527   6.220
15236WAT     H145950   2.937   9.568   6.173
15236WAT     H245951   3.100   9.564   6.181
15237WAT      O45952   6.404   8.707   9.828
15237WAT     H145953   6.471   8.648   9.872
15237WAT     H245954   6.346   8.750   9.898
15238WAT      O45955   7.898   0.933   0.827
15238WAT     H145956   7.979   0.901   0.876
15238WAT     H245957   7.820   0.933   0.890
15239WAT      O45958   6.203   4.973   9.282
15239WAT     H145959   6.131   5.042   9.290
15239WAT     H245960   6.278   4.996   9.344
15240WAT      O45961   2.086   4.829   9.392
15240WAT     H145962   2.175   4.840   9.437
15240WAT     H245963   2.098   4.771   9.311
15241WAT      O45964   6.790   0.862   5.435
15241WAT     H145965   6.748   0.796   5.497
15241WAT     H245966   6.787   0.827   5.342
15242WAT      O45967   9.356   9.491   8.271
15242WAT     H145968   9.356   9.399   8.310
15242WAT     H245969   9.323   9.488   8.177
15243WAT      O45970   3.831   0.120   0.488
15243WAT     H145971   3.911   0.076   0.528
15243WAT     H245972   3.778   0.053   0.436
15244WAT      O45973   6.590   4.908   9.007
15244WAT     H145974   6.520   4.980   9.011
15244WAT     H245975   6.641   4.906   9.094
15245WAT      O45976   9.852   1.078   1.158
15245WAT     H145977   9.936   1.042   1.119
15245WAT     H245978   9.791   1.002   1.183
15246WAT      O45979   1.811   6.948   5.069
15246WAT     H145980   1.726   6.999   5.083
15246WAT     H245981   1.840   6.908   5.156
15247WAT      O45982   9.016   7.000   4.786
15247WAT     H145983   9.053   7.036   4.701
15247WAT     H245984   9.071   6.921   4.815
15248WAT      O45985   9.680   9.551   8.718
15248WAT     H145986   9.697   9.558   8.816
15248WAT     H245987   9.765   9.527   8.671
15249WAT      O45988   1.432   1.198   1.589
15249WAT     H145989   1.511   1.222   1.532
15249WAT     H245990   1.368   1.143   1.536
15250WAT      O45991   3.293   5.456   1.035
15250WAT     H145992   3.386   5.422   1.026
15250WAT     H245993   3.228   5.381   1.024
15251WAT      O45994   0.574   7.036   3.651
15251WAT     H145995   0.525   6.961   3.695
15251WAT     H245996   0.656   7.058   3.705
15252WAT      O45997   3.913   7.133   1.202
15252WAT     H145998   3.916   7.033   1.199
15252WAT     H245999   3.938   7.164   1.294
15253WAT      O46000   7.596   4.108   0.001
15253WAT     H146001   7.691   4.078   0.008
15253WAT     H246002   7.538   4.052   0.060
15254WAT      O46003   2.071   5.273   8.480
15254WAT     H146004   2.029   5.302   8.566
15254WAT     H246005   2.004   5.220   8.428
15255WAT      O46006   1.255   2.885   9.548
15255WAT     H146007   1.255   2.936   9.635
15255WAT     H246008   1.162   2.856   9.527
15256WAT      O46009   1.846   6.402   9.152
15256WAT     H146010   1.923   6.463   9.168
15256WAT     H246011   1.856   6.320   9.209
15257WAT      O46012   0.299   8.685   5.182
15257WAT     H146013   0.239   8.765   5.176
15257WAT     H246014   0.256   8.607   5.136
15258WAT      O46015   3.643   5.422   0.171
15258WAT     H146016   3.716   5.457   0.113
15258WAT     H246017   3.598   5.345   0.125
15259WAT      O46018   4.586   5.308   9.383
15259WAT     H146019   4.680   5.278   9.369
15259WAT     H246020   4.580   5.407   9.368
15260WAT      O46021   2.581   9.408   1.787
15260WAT     H146022   2.624   9.491   1.752
15260WAT     H246023   2.634   9.372   1.864
15261WAT      O46024   5.590   1.123   5.801
15261WAT     H146025   5.690   1.121   5.800
15261WAT     H246026   5.556   1.101   5.709
15262WAT      O46027   9.348   3.088   9.198
15262WAT     H146028   9.447   3.080   9.190
15262WAT     H246029   9.324   3.181   9.226
15263WAT      O46030   5.659   2.695   6.017
15263WAT     H146031   5.746   2.692   6.066
15263WAT     H246032   5.643   2.606   5.972
15264WAT      O46033   3.504   6.840   4.425
15264WAT     H146034   3.489   6.814   4.520
15264WAT     H246035   3.577   6.909   4.421
15265WAT      O46036   2.669   4.371   5.084
15265WAT     H146037   2.626   4.438   5.145
15265WAT     H246038   2.697   4.291   5.137
15266WAT      O46039   5.267   6.656   9.308
15266WAT     H146040   5.217   6.739   9.333
15266WAT     H246041   5.253   6.586   9.379
15267WAT      O46042   2.979   2.269   3.190
15267WAT     H146043   3.028   2.248   3.274
15267WAT     H246044   2.961   2.367   3.185
15268WAT      O46045   8.858   6.889   6.766
15268WAT     H146046   8.905   6.821   6.710
15268WAT     H246047   8.783   6.930   6.714
15269WAT      O46048   2.353   5.770   0.872
15269WAT     H146049   2.276   5.792   0.932
15269WAT     H246050   2.391   5.681   0.898
15270WAT      O46051   0.590   4.246   4.559
15270WAT     H146052   0.648   4.301   4.498
15270WAT     H246053   0.600   4.278   4.653
15271WAT      O46054   7.217   0.469   7.799
15271WAT     H146055   7.140   0.444   7.857
15271WAT     H246056   7.278   0.531   7.848
15272WAT      O46057   9.794   7.435   0.609
15272WAT     H146058   9.831   7.469   0.696
15272WAT     H246059   9.859   7.455   0.535
15273WAT      O46060   5.718   4.237   3.756
15273WAT     H146061   5.753   4.162   3.700
15273WAT     H246062   5.778   4.249   3.836
15274WAT      O46063   9.189   6.301   4.154
15274WAT     H146064   9.282   6.338   4.157
15274WAT     H246065   9.179   6.232   4.226
15275WAT      O46066   0.163   4.210   0.982
15275WAT     H146067   0.114   4.130   1.017
15275WAT     H246068   0.098   4.274   0.942
15276WAT      O46069   5.134   5.449   8.126
15276WAT     H146070   5.162   5.518   8.193
15276WAT     H246071   5.042   5.415   8.148
15277WAT      O46072   2.377   8.758   1.779
15277WAT     H146073   2.311   8.798   1.843
15277WAT     H246074   2.464   8.742   1.826
15278WAT      O46075   4.740   5.596   1.549
15278WAT     H146076   4.688   5.511   1.557
15278WAT     H246077   4.682   5.667   1.511
15279WAT      O46078   8.032   4.093   9.573
15279WAT     H146079   7.971   4.016   9.593
15279WAT     H246080   8.089   4.070   9.494
15280WAT      O46081   3.651   1.483   7.191
15280WAT     H146082   3.685   1.569   7.229
15280WAT     H246083   3.554   1.474   7.210
15281WAT      O46084   5.108   4.301   0.625
15281WAT     H146085   5.043   4.279   0.698
15281WAT     H246086   5.192   4.247   0.638
15282WAT      O46087   4.533   3.267   9.690
15282WAT     H146088   4.486   3.236   9.773
15282WAT     H246089   4.623   3.302   9.715
15283WAT      O46090   8.217   2.936   7.559
15283WAT     H146091   8.225   3.033   7.583
15283WAT     H246092   8.307   2.902   7.531
15284WAT      O46093   7.293   7.660   5.903
15284WAT     H146094   7.320   7.627   5.812
15284WAT     H246095   7.197   7.637   5.919
15285WAT      O46096   4.762   8.037   9.502
15285WAT     H146097   4.702   8.116   9.488
15285WAT     H246098   4.708   7.960   9.536
15286WAT      O46099   5.846   0.632   9.018
15286WAT     H146100   5.912   0.700   9.049
15286WAT     H246101   5.753   0.667   9.029
15287WAT      O46102   1.298   6.167   1.589
15287WAT     H146103   1.259   6.112   1.663
15287WAT     H246104   1.325   6.256   1.624
15288WAT      O46105   5.336   4.997   6.932
15288WAT     H146106   5.291   5.012   7.019
15288WAT     H246107   5.304   4.912   6.891
15289WAT      O46108   3.852   1.814   0.788
15289WAT     H146109   3.754   1.831   0.793
15289WAT     H246110   3.887   1.791   0.879
15290WAT      O46111   2.638   0.654   3.074
15290WAT     H146112   2.544   0.689   3.067
15290WAT     H246113   2.698   0.709   3.017
15291WAT      O46114   2.258   7.416   9.516
15291WAT     H146115   2.160   7.421   9.536
15291WAT     H246116   2.303   7.501   9.543
15292WAT      O46117   4.741   8.279   2.998
15292WAT     H146118   4.697   8.332   3.071
15292WAT     H246119   4.831   8.249   3.028
15293WAT      O46120   2.311   8.686   7.341
15293WAT     H146121   2.344   8.778   7.319
15293WAT     H246122   2.318   8.671   7.440
15294WAT      O46123   3.183   7.385   5.054
15294WAT     H146124   3.230   7.309   5.099
15294WAT     H246125   3.085   7.369   5.056
15295WAT      O46126   8.972   4.643   1.924
15295WAT     H146127   9.046   4.580   1.902
15295WAT     H246128   8.919   4.607   2.001
15296WAT      O46129   2.720   9.837   2.546
15296WAT     H146130   2.629   9.842   2.505
15296WAT     H246131   2.783   9.897   2.496
15297WAT      O46132   2.092   4.954   0.937
15297WAT     H146133   2.101   5.004   0.851
15297WAT     H246134   2.000   4.915   0.944
15298WAT      O46135   9.590   8.575   3.404
15298WAT     H146136   9.538   8.524   3.335
15298WAT     H246137   9.581   8.673   3.386
15299WAT      O46138   1.772   1.720   5.233
15299WAT     H146139   1.766   1.623   5.208
15299WAT     H246140   1.865   1.752   5.218
15300WAT      O46141   5.432   4.202   0.871
15300WAT     H146142   5.376   4.241   0.945
15300WAT     H246143   5.501   4.269   0.843
15301WAT      O46144   4.951   5.061   6.545
15301WAT     H146145   5.004   5.146   6.543
15301WAT     H246146   4.905   5.049   6.457
15302WAT      O46147   1.963   2.294   6.557
15302WAT     H146148   1.920   2.259   6.640
15302WAT     H246149   1.940   2.390   6.545
15303WAT      O46150   7.245   5.637   4.625
15303WAT     H146151   7.159   5.585   4.627
15303WAT     H246152   7.228   5.727   4.586
15304WAT      O46153   3.795   2.642   2.539
15304WAT     H146154   3.741   2.574   2.589
15304WAT     H246155   3.759   2.653   2.447
15305WAT      O46156   5.322   8.461   2.783
15305WAT     H146157   5.369   8.377   2.809
15305WAT     H246158   5.388   8.535   2.776
15306WAT      O46159   8.567   4.046   5.841
15306WAT     H146160   8.578   4.040   5.940
15306WAT     H246161   8.654   4.071   5.799
15307WAT      O46162   3.404   6.494   9.037
15307WAT     H146163   3.423   6.554   8.959
15307WAT     H246164   3.480   6.428   9.047
15308WAT      O46165   7.533   2.582   8.736
15308WAT     H146166   7.563   2.509   8.797
15308WAT     H246167   7.613   2.632   8.702
15309WAT      O46168   8.644   2.985   1.864
15309WAT     H146169   8.685   3.051   1.802
15309WAT     H246170   8.715   2.947   1.924
15310WAT      O46171   2.638   1.436   0.603
15310WAT     H146172   2.686   1.352   0.625
15310WAT     H246173   2.695   1.493   0.544
15311WAT      O46174   8.841   8.472   7.591
15311WAT     H146175   8.846   8.527   7.507
15311WAT     H246176   8.847   8.533   7.670
15312WAT      O46177   0.542   1.255   7.950
15312WAT     H146178   0.530   1.348   7.914
15312WAT     H246179   0.613   1.208   7.898
15313WAT      O46180   3.904   2.476   1.588
15313WAT     H146181   3.887   2.452   1.684
15313WAT     H246182   3.878   2.571   1.573
15314WAT      O46183   4.977   9.150   3.924
15314WAT     H146184   5.030   9.094   3.859
15314WAT     H246185   4.880   9.146   3.900
15315WAT      O46186   1.579   4.686   5.543
15315WAT     H146187   1.586   4.652   5.637
15315WAT     H246188   1.547   4.613   5.483
15316WAT      O46189   2.988   2.774   5.722
15316WAT     H146190   2.898   2.810   5.701
15316WAT     H246191   2.979   2.690   5.776
15317WAT      O46192   8.615   0.738   0.204
15317WAT     H146193   8.577   0.715   0.115
15317WAT     H246194   8.547   0.721   0.275
15318WAT      O46195   8.492   0.352   0.947
15318WAT     H146196   8.413   0.379   1.001
15318WAT     H246197   8.514   0.424   0.881
15319WAT      O46198   2.479   6.377   6.444
15319WAT     H146199   2.415   6.425   6.385
15319WAT     H246200   2.492   6.428   6.529
15320WAT      O46201   1.536   9.585   8.230
15320WAT     H146202   1.502   9.502   8.185
15320WAT     H246203   1.636   9.583   8.232
15321WAT      O46204   3.718   3.351   6.785
15321WAT     H146205   3.693   3.373   6.690
15321WAT     H246206   3.713   3.433   6.841
15322WAT      O46207   4.599   8.829   1.562
15322WAT     H146208   4.534   8.797   1.631
15322WAT     H246209   4.601   8.764   1.485
15323WAT      O46210   6.344   4.584   1.597
15323WAT     H146211   6.404   4.523   1.545
15323WAT     H246212   6.266   4.531   1.632
15324WAT      O46213   7.485   1.169   8.599
15324WAT     H146214   7.584   1.173   8.587
15324WAT     H246215   7.457   1.074   8.613
15325WAT      O46216   7.713   9.080   0.690
15325WAT     H146217   7.774   9.128   0.627
15325WAT     H246218   7.618   9.092   0.661
15326WAT      O46219   4.537   7.232   0.952
15326WAT     H146220   4.539   7.329   0.927
15326WAT     H246221   4.517   7.177   0.871
15327WAT      O46222   6.661   5.231   8.962
15327WAT     H146223   6.670   5.253   8.865
15327WAT     H246224   6.565   5.210   8.982
15328WAT      O46225   0.890   4.304   8.120
15328WAT     H146226   0.908   4.305   8.218
15328WAT     H246227   0.955   4.243   8.075
15329WAT      O46228   5.122   9.754   8.502
15329WAT     H146229   5.076   9.755   8.591
15329WAT     H246230   5.125   9.847   8.465
15330WAT      O46231   7.173   7.373   0.724
15330WAT     H146232   7.240   7.398   0.654
15330WAT     H246233   7.216   7.375   0.814
15331WAT      O46234   1.049   8.044   3.140
15331WAT     H146235   1.068   8.089   3.227
15331WAT     H246236   1.084   7.951   3.142
15332WAT      O46237   0.957   2.248   8.816
15332WAT     H146238   0.964   2.250   8.716
15332WAT     H246239   0.878   2.192   8.842
15333WAT      O46240   4.411   6.759   7.195
15333WAT     H146241   4.467   6.832   7.156
15333WAT     H246242   4.317   6.770   7.163
15334WAT      O46243   4.308   0.457   4.297
15334WAT     H146244   4.217   0.489   4.272
15334WAT     H246245   4.328   0.483   4.391
15335WAT      O46246   1.515   2.169   5.369
15335WAT     H146247   1.543   2.172   5.273
15335WAT     H246248   1.511   2.262   5.405
15336WAT      O46249   1.822   5.037   6.452
15336WAT     H146250   1.805   5.122   6.403
15336WAT     H246251   1.920   5.017   6.453
15337WAT      O46252   4.474   4.872   0.557
15337WAT     H146253   4.427   4.790   0.592
15337WAT     H246254   4.417   4.952   0.574
15338WAT      O46255   6.145   3.847   5.628
15338WAT     H146256   6.228   3.873   5.579
15338WAT     H246257   6.127   3.912   5.702
15339WAT      O46258   2.664   8.653   0.175
15339WAT     H146259   2.620   8.682   0.260
15339WAT     H246260   2.757   8.623   0.194
15340WAT      O46261   5.969   3.065   4.380
15340WAT     H146262   6.021   3.127   4.440
15340WAT     H246263   5.928   2.993   4.435
15341WAT      O46264   5.913   8.466   7.510
15341WAT     H146265   5.943   8.384   7.559
15341WAT     H246266   5.925   8.452   7.412
15342WAT      O46267   9.344   7.774   3.723
15342WAT     H146268   9.253   7.815   3.736
15342WAT     H246269   9.405   7.806   3.795
15343WAT      O46270   5.068   6.526   7.679
15343WAT     H146271   5.138   6.542   7.610
15343WAT     H246272   4.985   6.491   7.635
15344WAT      O46273   4.947   8.396   9.887
15344WAT     H146274   4.960   8.351   9.975
15344WAT     H246275   4.963   8.330   9.813
15345WAT      O46276   3.406   1.758   4.169
15345WAT     H146277   3.411   1.856   4.150
15345WAT     H246278   3.440   1.740   4.262
15346WAT      O46279   4.013   7.695   5.123
15346WAT     H146280   3.967   7.622   5.173
15346WAT     H246281   3.952   7.775   5.119
15347WAT      O46282   3.472   4.047   0.639
15347WAT     H146283   3.481   4.119   0.708
15347WAT     H246284   3.459   3.959   0.684
15348WAT      O46285   8.274   6.716   1.866
15348WAT     H146286   8.211   6.658   1.918
15348WAT     H246287   8.361   6.669   1.855
15349WAT      O46288   5.938   3.983   9.614
15349WAT     H146289   6.035   3.978   9.593
15349WAT     H246290   5.886   3.976   9.529
15350WAT      O46291   4.310   5.366   0.295
15350WAT     H146292   4.359   5.359   0.208
15350WAT     H246293   4.375   5.354   0.370
15351WAT      O46294   9.334   1.004   5.247
15351WAT     H146295   9.289   0.960   5.325
15351WAT     H246296   9.384   0.936   5.194
15352WAT      O46297   3.171   4.395   0.640
15352WAT     H146298   3.109   4.349   0.575
15352WAT     H246299   3.163   4.494   0.628
15353WAT      O46300   8.631   5.883   0.184
15353WAT     H146301   8.714   5.826   0.182
15353WAT     H246302   8.657   5.979   0.180
15354WAT      O46303   9.281   3.312   7.937
15354WAT     H146304   9.352   3.380   7.958
15354WAT     H246305   9.236   3.336   7.852
15355WAT      O46306   4.498   4.006   4.438
15355WAT     H146307   4.499   4.065   4.519
15355WAT     H246308   4.592   3.991   4.407
15356WAT      O46309   0.546   3.274   8.385
15356WAT     H146310   0.517   3.335   8.312
15356WAT     H246311   0.645   3.258   8.377
15357WAT      O46312   1.138   9.353   0.149
15357WAT     H146313   1.183   9.307   0.225
15357WAT     H246314   1.206   9.404   0.095
15358WAT      O46315   0.889   0.550   5.434
15358WAT     H146316   0.926   0.476   5.377
15358WAT     H246317   0.882   0.634   5.379
15359WAT      O46318   3.893   1.706   6.487
15359WAT     H146319   3.909   1.655   6.571
15359WAT     H246320   3.976   1.707   6.431
15360WAT      O46321   8.722   0.592   9.273
15360WAT     H146322   8.816   0.568   9.294
15360WAT     H246323   8.719   0.642   9.186
15361WAT      O46324   1.260   0.604   7.221
15361WAT     H146325   1.296   0.644   7.136
15361WAT     H246326   1.162   0.620   7.226
15362WAT      O46327   5.241   4.342   6.900
15362WAT     H146328   5.175   4.268   6.910
15362WAT     H246329   5.218   4.416   6.963
15363WAT      O46330   1.238   5.382   1.918
15363WAT     H146331   1.195   5.415   1.834
15363WAT     H246332   1.297   5.304   1.896
15364WAT      O46333   2.518   7.960   2.998
15364WAT     H146334   2.492   8.046   3.041
15364WAT     H246335   2.444   7.893   3.011
15365WAT      O46336   1.623   4.392   0.018
15365WAT     H146337   1.706   4.356  -0.024
15365WAT     H246338   1.643   4.479   0.064
15366WAT      O46339   5.561   5.821   1.008
15366WAT     H146340   5.472   5.859   1.036
15366WAT     H246341   5.613   5.794   1.089
15367WAT      O46342   8.575   7.462   8.948
15367WAT     H146343   8.673   7.462   8.926
15367WAT     H246344   8.563   7.437   9.044
15368WAT      O46345   2.450   0.101   3.318
15368WAT     H146346   2.365   0.114   3.368
15368WAT     H246347   2.438   0.029   3.249
15369WAT      O46348   4.845   5.108   0.263
15369WAT     H146349   4.871   5.198   0.298
15369WAT     H246350   4.754   5.084   0.298
15370WAT      O46351   3.936   7.789   7.340
15370WAT     H146352   3.949   7.875   7.290
15370WAT     H246353   3.909   7.809   7.434
15371WAT      O46354   8.214   4.821   7.327
15371WAT     H146355   8.127   4.787   7.360
15371WAT     H246356   8.256   4.880   7.396
15372WAT      O46357   4.742   2.648   4.143
15372WAT     H146358   4.743   2.723   4.076
15372WAT     H246359   4.824   2.592   4.131
15373WAT      O46360   8.116   0.157   8.385
15373WAT     H146361   8.019   0.140   8.369
15373WAT     H246362   8.137   0.253   8.366
15374WAT      O46363   3.367   4.047   2.610
15374WAT     H146364   3.317   4.080   2.530
15374WAT     H246365   3.339   4.100   2.690
15375WAT      O46366   2.783   9.453   4.776
15375WAT     H146367   2.707   9.395   4.745
15375WAT     H246368   2.866   9.397   4.783
15376WAT      O46369   4.769   8.136   7.182
15376WAT     H146370   4.707   8.205   7.218
15376WAT     H246371   4.731   8.097   7.098
15377WAT      O46372   6.960   3.276   5.626
15377WAT     H146373   7.005   3.218   5.694
15377WAT     H246374   6.862   3.254   5.623
15378WAT      O46375   9.194   8.709   0.229
15378WAT     H146376   9.105   8.732   0.269
15378WAT     H246377   9.250   8.661   0.296
15379WAT      O46378   0.125   1.911   6.155
15379WAT     H146379   0.033   1.934   6.124
15379WAT     H246380   0.127   1.908   6.255
15380WAT      O46381   5.916   0.798   5.129
15380WAT     H146382   5.892   0.894   5.113
15380WAT     H246383   5.935   0.753   5.042
15381WAT      O46384   2.793   5.076   1.253
15381WAT     H146385   2.856   5.050   1.327
15381WAT     H246386   2.789   5.002   1.186
15382WAT      O46387   3.078   6.590   6.800
15382WAT     H146388   3.038   6.608   6.890
15382WAT     H246389   3.175   6.616   6.801
15383WAT      O46390   2.239   1.400   8.808
15383WAT     H146391   2.333   1.373   8.828
15383WAT     H246392   2.239   1.481   8.749
15384WAT      O46393   6.065   4.930   5.296
15384WAT     H146394   6.006   4.952   5.374
15384WAT     H246395   6.161   4.943   5.323
15385WAT      O46396   6.866   4.617   5.937
15385WAT     H146397   6.924   4.697   5.955
15385WAT     H246398   6.818   4.631   5.850
15386WAT      O46399   5.268   5.748   7.803
15386WAT     H146400   5.285   5.836   7.847
15386WAT     H246401   5.191   5.703   7.848
15387WAT      O46402   9.439   3.854   8.982
15387WAT     H146403   9.538   3.863   8.970
15387WAT     H246404   9.417   3.759   9.005
15388WAT      O46405   4.688   4.081   8.033
15388WAT     H146406   4.735   4.099   8.120
15388WAT     H246407   4.628   4.158   8.012
15389WAT      O46408   7.104   3.778   3.790
15389WAT     H146409   7.045   3.697   3.791
15389WAT     H246410   7.151   3.786   3.878
15390WAT      O46411   1.323   6.231   6.246
15390WAT     H146412   1.302   6.327   6.269
15390WAT     H246413   1.267   6.203   6.168
15391WAT      O46414   7.934   2.739   2.575
15391WAT     H146415   7.941   2.741   2.475
15391WAT     H246416   7.921   2.832   2.609
15392WAT      O46417   9.017   7.649   7.945
15392WAT     H146418   9.084   7.597   7.998
15392WAT     H246419   8.934   7.595   7.933
15393WAT      O46420   5.695   6.220   7.873
15393WAT     H146421   5.689   6.207   7.774
15393WAT     H246422   5.647   6.145   7.920
15394WAT      O46423   2.864   9.274   9.057
15394WAT     H146424   2.958   9.308   9.064
15394WAT     H246425   2.859   9.179   9.088
15395WAT      O46426   4.177   1.322   8.059
15395WAT     H146427   4.160   1.385   7.983
15395WAT     H246428   4.112   1.341   8.133
15396WAT      O46429   2.405   5.093   2.838
15396WAT     H146430   2.442   5.044   2.918
15396WAT     H246431   2.383   5.027   2.766
15397WAT      O46432   6.452   3.063   6.660
15397WAT     H146433   6.367   3.028   6.620
15397WAT     H246434   6.476   3.150   6.617
15398WAT      O46435   8.328   4.907   6.658
15398WAT     H146436   8.293   4.885   6.749
15398WAT     H246437   8.427   4.898   6.656
15399WAT      O46438   1.660   9.004   8.358
15399WAT     H146439   1.749   9.027   8.397
15399WAT     H246440   1.594   9.075   8.382
15400WAT      O46441   3.916   9.218   3.769
15400WAT     H146442   3.832   9.271   3.779
15400WAT     H246443   3.992   9.279   3.746
15401WAT      O46444   8.909   7.196   3.238
15401WAT     H146445   8.904   7.099   3.211
15401WAT     H246446   8.866   7.252   3.167
15402WAT      O46447   7.906   5.586   0.493
15402WAT     H146448   7.928   5.675   0.534
15402WAT     H246449   7.860   5.529   0.561
15403WAT      O46450   3.171   4.817   3.030
15403WAT     H146451   3.258   4.853   2.998
15403WAT     H246452   3.124   4.771   2.954
15404WAT      O46453   7.509   8.175   9.632
15404WAT     H146454   7.422   8.130   9.653
15404WAT     H246455   7.494   8.272   9.617
15405WAT      O46456   8.673   4.494   8.905
15405WAT     H146457   8.654   4.492   8.807
15405WAT     H246458   8.636   4.411   8.948
15406WAT      O46459   0.659   1.448   5.465
15406WAT     H146460   0.681   1.477   5.558
15406WAT     H246461   0.579   1.498   5.432
15407WAT      O46462   5.163   7.556   8.756
15407WAT     H146463   5.198   7.632   8.811
15407WAT     H246464   5.105   7.591   8.683
15408WAT      O46465   3.420   9.297   3.937
15408WAT     H146466   3.443   9.373   3.999
15408WAT     H246467   3.335   9.319   3.889
15409WAT      O46468   7.917   7.404   3.265
15409WAT     H146469   7.899   7.307   3.248
15409WAT     H246470   7.862   7.435   3.343
15410WAT      O46471   0.133   4.087   2.428
15410WAT     H146472   0.144   4.147   2.348
15410WAT     H246473   0.162   3.994   2.404
15411WAT      O46474   5.537   0.707   0.675
15411WAT     H146475   5.487   0.678   0.594
15411WAT     H246476   5.636   0.705   0.657
15412WAT      O46477   3.512   4.555   7.181
15412WAT     H146478   3.543   4.460   7.175
15412WAT     H246479   3.415   4.558   7.206
15413WAT      O46480   0.233   6.050   4.623
15413WAT     H146481   0.208   5.969   4.570
15413WAT     H246482   0.194   6.043   4.715
15414WAT      O46483   7.995   2.358   5.181
15414WAT     H146484   8.067   2.418   5.215
15414WAT     H246485   7.913   2.368   5.238
15415WAT      O46486   7.803   5.023   9.621
15415WAT     H146487   7.859   4.941   9.615
15415WAT     H246488   7.735   5.012   9.694
15416WAT      O46489   5.305   3.907   8.116
15416WAT     H146490   5.274   3.981   8.175
15416WAT     H246491   5.405   3.906   8.112
15417WAT      O46492   6.931   2.663   7.768
15417WAT     H146493   6.846   2.665   7.821
15417WAT     H246494   7.007   2.688   7.828
15418WAT      O46495   9.186   6.291   2.116
15418WAT     H146496   9.153   6.229   2.187
15418WAT     H246497   9.119   6.365   2.103
15419WAT      O46498   9.196   5.211   3.267
15419WAT     H146499   9.142   5.140   3.312
15419WAT     H246500   9.193   5.295   3.321
15420WAT      O46501   1.536   1.130   4.774
15420WAT     H146502   1.558   1.221   4.809
15420WAT     H246503   1.467   1.088   4.833
15421WAT      O46504   5.306   6.229   2.149
15421WAT     H146505   5.327   6.290   2.225
15421WAT     H246506   5.383   6.224   2.086
15422WAT      O46507   1.412   6.044   3.344
15422WAT     H146508   1.463   6.059   3.429
15422WAT     H246509   1.407   6.129   3.292
15423WAT      O46510   5.805   3.050   5.970
15423WAT     H146511   5.816   3.091   6.061
15423WAT     H246512   5.889   3.002   5.945
15424WAT      O46513   8.215   7.523   4.671
15424WAT     H146514   8.313   7.515   4.653
15424WAT     H246515   8.195   7.615   4.705
15425WAT      O46516   6.859   3.730   4.174
15425WAT     H146517   6.776   3.767   4.132
15425WAT     H246518   6.931   3.722   4.105
15426WAT      O46519   8.794   3.581   6.866
15426WAT     H146520   8.835   3.544   6.949
15426WAT     H246521   8.866   3.623   6.809
15427WAT      O46522   2.306   7.454   0.140
15427WAT     H146523   2.262   7.403   0.066
15427WAT     H246524   2.331   7.391   0.213
15428WAT      O46525   0.108   1.248   1.758
15428WAT     H146526   0.125   1.250   1.660
15428WAT     H246527   0.106   1.153   1.789
15429WAT      O46528   6.043   4.748   7.411
15429WAT     H146529   6.087   4.665   7.378
15429WAT     H246530   5.969   4.774   7.349
15430WAT      O46531   2.044   3.498   2.434
15430WAT     H146532   2.018   3.420   2.491
15430WAT     H246533   1.964   3.534   2.387
15431WAT      O46534   0.120   6.831   5.951
15431WAT     H146535   0.157   6.922   5.930
15431WAT     H246536   0.050   6.839   6.022
15432WAT      O46537   4.523   6.201   3.772
15432WAT     H146538   4.512   6.301   3.775
15432WAT     H246539   4.529   6.172   3.676
15433WAT      O46540   4.429   2.136   8.201
15433WAT     H146541   4.488   2.147   8.282
15433WAT     H246542   4.382   2.222   8.182
15434WAT      O46543   1.890   5.524   3.884
15434WAT     H146544   1.933   5.554   3.969
15434WAT     H246545   1.939   5.564   3.806
15435WAT      O46546   1.347   4.361   6.422
15435WAT     H146547   1.366   4.437   6.484
15435WAT     H246548   1.426   4.345   6.363
15436WAT      O46549   8.558   9.438   5.948
15436WAT     H146550   8.476   9.390   5.919
15436WAT     H246551   8.550   9.464   6.044
15437WAT      O46552   8.992   8.522   6.984
15437WAT     H146553   8.922   8.571   7.036
15437WAT     H246554   9.067   8.585   6.964
15438WAT      O46555   6.218   5.973   4.688
15438WAT     H146556   6.254   6.051   4.738
15438WAT     H246557   6.288   5.937   4.627
15439WAT      O46558   7.627   5.142   8.381
15439WAT     H146559   7.604   5.102   8.291
15439WAT     H246560   7.660   5.069   8.441
15440WAT      O46561   6.458   3.475   7.707
15440WAT     H146562   6.512   3.459   7.790
15440WAT     H246563   6.364   3.445   7.723
15441WAT      O46564   4.675   3.361   7.900
15441WAT     H146565   4.706   3.375   7.806
15441WAT     H246566   4.738   3.298   7.946
15442WAT      O46567   8.801   0.582   8.072
15442WAT     H146568   8.891   0.571   8.031
15442WAT     H246569   8.762   0.669   8.044
15443WAT      O46570   1.426   1.578   6.875
15443WAT     H146571   1.424   1.623   6.785
15443WAT     H246572   1.513   1.597   6.919
15444WAT      O46573   8.335   2.436   3.110
15444WAT     H146574   8.271   2.363   3.131
15444WAT     H246575   8.428   2.407   3.135
15445WAT      O46576   8.948   5.976   4.176
15445WAT     H146577   8.923   5.939   4.265
15445WAT     H246578   8.879   5.951   4.109
15446WAT      O46579   4.188   2.432   6.173
15446WAT     H146580   4.185   2.532   6.168
15446WAT     H246581   4.194   2.394   6.080
15447WAT      O46582   4.040   5.749   1.040
15447WAT     H146583   4.104   5.826   1.040
15447WAT     H246584   3.949   5.781   1.013
15448WAT      O46585   7.939   2.715   5.323
15448WAT     H146586   7.907   2.693   5.415
15448WAT     H246587   8.038   2.730   5.325
15449WAT      O46588   9.339   3.649   1.118
15449WAT     H146589   9.364   3.739   1.151
15449WAT     H246590   9.242   3.632   1.137
15450WAT      O46591   9.506   7.911   3.902
15450WAT     H146592   9.512   7.970   3.983
15450WAT     H246593   9.542   7.959   3.823
15451WAT      O46594   9.341   6.848   6.276
15451WAT     H146595   9.278   6.866   6.351
15451WAT     H246596   9.290   6.816   6.196
15452WAT      O46597   7.365   2.057   7.192
15452WAT     H146598   7.445   2.110   7.221
15452WAT     H246599   7.282   2.111   7.208
15453WAT      O46600   2.616   2.991   7.009
15453WAT     H146601   2.686   3.063   7.020
15453WAT     H246602   2.553   2.994   7.086
15454WAT      O46603   9.064   1.363   4.817
15454WAT     H146604   9.136   1.354   4.748
15454WAT     H246605   9.105   1.366   4.908
15455WAT      O46606   6.900   7.257   9.160
15455WAT     H146607   6.974   7.323   9.147
15455WAT     H246608   6.923   7.172   9.113
15456WAT      O46609   0.457   0.953   3.809
15456WAT     H146610   0.528   1.022   3.800
15456WAT     H246611   0.465   0.908   3.898
15457WAT      O46612   8.685   4.274   4.566
15457WAT     H146613   8.772   4.322   4.557
15457WAT     H246614   8.690   4.209   4.642
15458WAT      O46615   9.751   7.817   5.946
15458WAT     H146616   9.783   7.733   5.903
15458WAT     H246617   9.673   7.854   5.895
15459WAT      O46618   7.430   1.377   2.924
15459WAT     H146619   7.359   1.426   2.974
15459WAT     H246620   7.425   1.280   2.945
15460WAT      O46621   6.707   3.904   0.993
15460WAT     H146622   6.734   3.931   1.085
15460WAT     H246623   6.687   3.985   0.939
15461WAT      O46624   8.968   2.923   1.558
15461WAT     H146625   9.049   2.874   1.526
15461WAT     H246626   8.971   2.931   1.658
15462WAT      O46627   6.266   2.858   2.513
15462WAT     H146628   6.168   2.876   2.502
15462WAT     H246629   6.313   2.943   2.537
15463WAT      O46630   4.942   0.065   1.169
15463WAT     H146631   5.007   0.126   1.124
15463WAT     H246632   4.958   0.064   1.268
15464WAT      O46633   1.854   0.067   9.016
15464WAT     H146634   1.791   0.084   8.940
15464WAT     H246635   1.878   0.153   9.059
15465WAT      O46636   1.019   8.654   4.340
15465WAT     H146637   1.086   8.690   4.405
15465WAT     H246638   1.059   8.652   4.248
15466WAT      O46639   8.941   0.725   5.718
15466WAT     H146640   8.926   0.746   5.814
15466WAT     H246641   8.926   0.807   5.663
15467WAT      O46642   3.988   7.720   3.378
15467WAT     H146643   4.062   7.723   3.311
15467WAT     H246644   3.998   7.638   3.435
15468WAT      O46645   6.545   0.020   7.736
15468WAT     H146646   6.600   0.102   7.726
15468WAT     H246647   6.453   0.045   7.768
15469WAT      O46648   0.794   7.174   8.792
15469WAT     H146649   0.695   7.179   8.783
15469WAT     H246650   0.832   7.267   8.795
15470WAT      O46651   9.601   4.326   3.238
15470WAT     H146652   9.637   4.253   3.296
15470WAT     H246653   9.651   4.328   3.152
15471WAT      O46654   2.128   9.824   1.577
15471WAT     H146655   2.093   9.916   1.559
15471WAT     H246656   2.058   9.757   1.554
15472WAT      O46657   3.143   0.381   5.034
15472WAT     H146658   3.055   0.336   5.050
15472WAT     H246659   3.136   0.441   4.954
15473WAT      O46660   6.074   7.649   8.532
15473WAT     H146661   6.070   7.632   8.630
15473WAT     H246662   6.165   7.680   8.507
15474WAT      O46663   2.054   3.781   9.683
15474WAT     H146664   2.111   3.794   9.764
15474WAT     H246665   2.091   3.834   9.607
15475WAT      O46666   7.332   7.332   2.189
15475WAT     H146667   7.238   7.354   2.160
15475WAT     H246668   7.333   7.242   2.232
15476WAT      O46669   5.743   7.260   9.846
15476WAT     H146670   5.766   7.189   9.780
15476WAT     H246671   5.785   7.239   9.934
15477WAT      O46672   2.013   6.564   6.148
15477WAT     H146673   2.056   6.491   6.201
15477WAT     H246674   1.953   6.524   6.078
15478WAT      O46675   3.604   6.557   4.972
15478WAT     H146676   3.668   6.495   4.926
15478WAT     H246677   3.518   6.561   4.921
15479WAT      O46678   4.478   2.710   2.287
15479WAT     H146679   4.469   2.809   2.297
15479WAT     H246680   4.403   2.665   2.337
15480WAT      O46681   0.400   8.386   9.585
15480WAT     H146682   0.385   8.473   9.631
15480WAT     H246683   0.456   8.327   9.643
15481WAT      O46684   8.342   1.076   8.154
15481WAT     H146685   8.327   1.052   8.059
15481WAT     H246686   8.276   1.146   8.182
15482WAT      O46687   7.242   5.702   7.127
15482WAT     H146688   7.288   5.791   7.118
15482WAT     H246689   7.146   5.712   7.103
15483WAT      O46690   4.117   6.922   1.360
15483WAT     H146691   4.128   6.997   1.425
15483WAT     H246692   4.182   6.933   1.284
15484WAT      O46693   4.417   9.080   5.462
15484WAT     H146694   4.380   9.063   5.553
15484WAT     H246695   4.347   9.123   5.405
15485WAT      O46696   9.199   9.621   5.804
15485WAT     H146697   9.173   9.646   5.711
15485WAT     H246698   9.299   9.618   5.811
15486WAT      O46699   3.662   0.984   3.550
15486WAT     H146700   3.624   0.971   3.641
15486WAT     H246701   3.601   1.040   3.495
15487WAT      O46702   1.852   6.689   4.140
15487WAT     H146703   1.867   6.756   4.212
15487WAT     H246704   1.773   6.632   4.164
15488WAT      O46705   9.112   7.502   5.434
15488WAT     H146706   9.110   7.524   5.337
15488WAT     H246707   9.130   7.585   5.487
15489WAT      O46708   9.721   9.246   0.407
15489WAT     H146709   9.642   9.188   0.427
15489WAT     H246710   9.722   9.324   0.470
15490WAT      O46711   6.802   5.391   9.139
15490WAT     H146712   6.738   5.352   9.073
15490WAT     H246713   6.766   5.479   9.172
15491WAT      O46714   5.728   9.795   7.978
15491WAT     H146715   5.631   9.788   8.002
15491WAT     H246716   5.758   9.890   7.986
15492WAT      O46717   7.115   1.727   6.344
15492WAT     H146718   7.115   1.637   6.388
15492WAT     H246719   7.084   1.796   6.409
15493WAT      O46720   4.177   3.052   6.828
15493WAT     H146721   4.082   3.080   6.822
15493WAT     H246722   4.228   3.092   6.752
15494WAT      O46723   1.001   4.774   0.681
15494WAT     H146724   0.912   4.764   0.636
15494WAT     H246725   1.004   4.862   0.728
15495WAT      O46726   9.428   5.243   8.607
15495WAT     H146727   9.523   5.271   8.620
15495WAT     H246728   9.386   5.221   8.695
15496WAT      O46729   1.038   5.895   7.928
15496WAT     H146730   1.045   5.839   8.010
15496WAT     H246731   1.129   5.907   7.887
15497WAT      O46732   3.805   9.569   3.179
15497WAT     H146733   3.783   9.488   3.233
15497WAT     H246734   3.751   9.569   3.094
15498WAT      O46735   2.006   8.163   9.012
15498WAT     H146736   1.976   8.084   9.065
15498WAT     H246737   1.928   8.224   8.995
15499WAT      O46738   9.186   1.275   7.343
15499WAT     H146739   9.135   1.353   7.380
15499WAT     H246740   9.280   1.277   7.377
15500WAT      O46741   1.554   9.050   9.271
15500WAT     H146742   1.482   9.117   9.281
15500WAT     H246743   1.566   9.000   9.357
15501WAT      O46744   8.745   4.740   7.476
15501WAT     H146745   8.699   4.823   7.507
15501WAT     H246746   8.780   4.754   7.383
15502WAT      O46747   4.765   1.031   5.997
15502WAT     H146748   4.725   0.998   6.083
15502WAT     H246749   4.778   1.130   6.003
15503WAT      O46750   1.902   0.686   5.679
15503WAT     H146751   1.996   0.662   5.655
15503WAT     H246752   1.881   0.777   5.642
15504WAT      O46753   1.739   3.867   5.192
15504WAT     H146754   1.667   3.807   5.157
15504WAT     H246755   1.748   3.946   5.132
15505WAT      O46756   9.004   4.631   1.334
15505WAT     H146757   9.103   4.638   1.350
15505WAT     H246758   8.964   4.572   1.404
15506WAT      O46759   3.865   3.712   0.905
15506WAT     H146760   3.768   3.737   0.901
15506WAT     H246761   3.916   3.784   0.953
15507WAT      O46762   2.988   9.092   3.569
15507WAT     H146763   2.992   9.057   3.662
15507WAT     H246764   3.024   9.185   3.566
15508WAT      O46765   8.102   4.317   8.574
15508WAT     H146766   8.091   4.332   8.672
15508WAT     H246767   8.154   4.392   8.534
15509WAT      O46768   1.541   1.366   0.509
15509WAT     H146769   1.549   1.397   0.414
15509WAT     H246770   1.505   1.272   0.510
15510WAT      O46771   6.882   6.645   2.640
15510WAT     H146772   6.899   6.654   2.738
15510WAT     H246773   6.910   6.554   2.609
15511WAT      O46774   2.976   6.922   0.299
15511WAT     H146775   3.007   6.839   0.346
15511WAT     H246776   3.020   7.002   0.339
15512WAT      O46777   4.272   5.307   8.281
15512WAT     H146778   4.190   5.330   8.228
15512WAT     H246779   4.244   5.276   8.372
15513WAT      O46780   2.435   1.441   3.243
15513WAT     H146781   2.495   1.362   3.231
15513WAT     H246782   2.342   1.409   3.260
15514WAT      O46783   2.327   8.108   0.709
15514WAT     H146784   2.409   8.134   0.657
15514WAT     H246785   2.271   8.189   0.725
15515WAT      O46786   4.664   1.936   5.668
15515WAT     H146787   4.671   1.977   5.577
15515WAT     H246788   4.579   1.882   5.673
15516WAT      O46789   1.176   3.823   8.317
15516WAT     H146790   1.202   3.760   8.390
15516WAT     H246791   1.212   3.789   8.230
15517WAT      O46792   9.862   7.191   6.924
15517WAT     H146793   9.931   7.252   6.883
15517WAT     H246794   9.779   7.193   6.869
15518WAT      O46795   8.794   9.150   6.957
15518WAT     H146796   8.848   9.065   6.954
15518WAT     H246797   8.721   9.140   7.025
15519WAT      O46798   4.801   2.963   5.907
15519WAT     H146799   4.747   2.963   5.824
15519WAT     H246800   4.760   3.026   5.974
15520WAT      O46801   6.420   9.135   0.919
15520WAT     H146802   6.500   9.122   0.976
15520WAT     H246803   6.409   9.232   0.897
15521WAT      O46804   6.704   4.947   6.842
15521WAT     H146805   6.731   5.030   6.793
15521WAT     H246806   6.775   4.878   6.832
15522WAT      O46807   3.289   7.167   4.841
15522WAT     H146808   3.312   7.188   4.937
15522WAT     H246809   3.210   7.221   4.813
15523WAT      O46810   2.682   6.824   2.835
15523WAT     H146811   2.729   6.749   2.788
15523WAT     H246812   2.591   6.793   2.863
15524WAT      O46813   8.242   6.556   1.074
15524WAT     H146814   8.214   6.562   1.170
15524WAT     H246815   8.175   6.503   1.023
15525WAT      O46816   1.521   2.229   0.550
15525WAT     H146817   1.534   2.161   0.622
15525WAT     H246818   1.455   2.194   0.483
15526WAT      O46819   6.040   1.825   1.776
15526WAT     H146820   6.097   1.883   1.719
15526WAT     H246821   5.988   1.762   1.719
15527WAT      O46822   8.301   0.251   1.997
15527WAT     H146823   8.303   0.153   2.014
15527WAT     H246824   8.237   0.295   2.060
15528WAT      O46825   9.169   0.624   5.559
15528WAT     H146826   9.199   0.573   5.640
15528WAT     H246827   9.082   0.668   5.578
15529WAT      O46828   3.626   4.932   8.714
15529WAT     H146829   3.555   4.935   8.785
15529WAT     H246830   3.588   4.890   8.632
15530WAT      O46831   1.718   8.632   0.078
15530WAT     H146832   1.622   8.622   0.107
15530WAT     H246833   1.752   8.722   0.107
15531WAT      O46834   9.525   6.303   3.506
15531WAT     H146835   9.465   6.291   3.427
15531WAT     H246836   9.535   6.215   3.554
15532WAT      O46837   6.427   3.055   5.303
15532WAT     H146838   6.340   3.019   5.338
15532WAT     H246839   6.410   3.115   5.225
15533WAT      O46840   3.680   9.542   9.377
15533WAT     H146841   3.778   9.531   9.361
15533WAT     H246842   3.650   9.474   9.444
15534WAT      O46843   0.365   1.528   8.484
15534WAT     H146844   0.267   1.519   8.502
15534WAT     H246845   0.380   1.549   8.387
15535WAT      O46846   7.737   3.771   5.767
15535WAT     H146847   7.824   3.787   5.721
15535WAT     H246848   7.738   3.819   5.855
15536WAT      O46849   0.599   6.349   8.733
15536WAT     H146850   0.516   6.397   8.761
15536WAT     H246851   0.577   6.254   8.711
15537WAT      O46852   0.447   8.295   1.540
15537WAT     H146853   0.490   8.204   1.546
15537WAT     H246854   0.370   8.299   1.604
15538WAT      O46855   7.210   6.418   8.714
15538WAT     H146856   7.155   6.368   8.648
15538WAT     H246857   7.264   6.488   8.668
15539WAT      O46858   8.743   8.548   6.765
15539WAT     H146859   8.750   8.584   6.672
15539WAT     H246860   8.684   8.607   6.820
15540WAT      O46861   5.268   8.799   3.223
15540WAT     H146862   5.272   8.841   3.314
15540WAT     H246863   5.352   8.747   3.208
15541WAT      O46864   8.193   2.140   0.095
15541WAT     H146865   8.107   2.090   0.107
15541WAT     H246866   8.221   2.135  -0.001
15542WAT      O46867   6.188   2.843   2.975
15542WAT     H146868   6.134   2.860   2.893
15542WAT     H246869   6.285   2.852   2.954
15543WAT      O46870   3.008   3.487   3.585
15543WAT     H146871   2.964   3.414   3.533
15543WAT     H246872   3.056   3.548   3.523
15544WAT      O46873   5.616   2.308   6.963
15544WAT     H146874   5.680   2.335   6.892
15544WAT     H246875   5.569   2.388   6.999
15545WAT      O46876   7.328   6.012   0.191
15545WAT     H146877   7.252   6.064   0.232
15545WAT     H246878   7.408   6.072   0.183
15546WAT      O46879   9.641   1.849   8.211
15546WAT     H146880   9.704   1.865   8.135
15546WAT     H246881   9.622   1.935   8.258
15547WAT      O46882   8.780   0.915   9.232
15547WAT     H146883   8.769   0.958   9.143
15547WAT     H246884   8.861   0.856   9.231
15548WAT      O46885   3.466   0.154   9.582
15548WAT     H146886   3.373   0.177   9.554
15548WAT     H246887   3.474   0.161   9.681
15549WAT      O46888   6.862   4.284   0.787
15549WAT     H146889   6.906   4.310   0.702
15549WAT     H246890   6.900   4.338   0.862
15550WAT      O46891   8.300   7.898   6.663
15550WAT     H146892   8.203   7.877   6.648
15550WAT     H246893   8.333   7.845   6.741
15551WAT      O46894   4.610   5.441   2.616
15551WAT     H146895   4.526   5.488   2.640
15551WAT     H246896   4.642   5.387   2.695
15552WAT      O46897   3.792   3.654   1.463
15552WAT     H146898   3.869   3.628   1.404
15552WAT     H246899   3.723   3.581   1.463
15553WAT      O46900   0.155   0.956   4.082
15553WAT     H146901   0.069   0.984   4.124
15553WAT     H246902   0.139   0.876   4.024
15554WAT      O46903   4.231   7.532   6.170
15554WAT     H146904   4.318   7.564   6.132
15554WAT     H246905   4.240   7.436   6.197
15555WAT      O46906   6.803   5.849   5.982
15555WAT     H146907   6.854   5.869   5.898
15555WAT     H246908   6.777   5.752   5.982
15556WAT      O46909   4.921   5.804   9.092
15556WAT     H146910   4.840   5.806   9.150
15556WAT     H246911   4.937   5.710   9.061
15557WAT      O46912   1.778   1.761   7.670
15557WAT     H146913   1.715   1.812   7.729
15557WAT     H246914   1.868   1.805   7.671
15558WAT      O46915   4.909   5.545   3.372
15558WAT     H146916   4.932   5.472   3.438
15558WAT     H246917   4.856   5.616   3.418
15559WAT      O46918   8.315   3.103   6.892
15559WAT     H146919   8.240   3.170   6.893
15559WAT     H246920   8.340   3.078   6.985
15560WAT      O46921   8.678   3.038   6.607
15560WAT     H146922   8.649   3.024   6.701
15560WAT     H246923   8.603   3.076   6.553
15561WAT      O46924   7.096   8.095   6.176
15561WAT     H146925   7.173   8.037   6.203
15561WAT     H246926   7.129   8.169   6.116
15562WAT      O46927   6.610   9.126   1.245
15562WAT     H146928   6.603   9.140   1.343
15562WAT     H246929   6.669   9.047   1.226
15563WAT      O46930   4.096   0.642   3.114
15563WAT     H146931   4.079   0.740   3.123
15563WAT     H246932   4.046   0.606   3.035
15564WAT      O46933   1.644   8.927   9.814
15564WAT     H146934   1.724   8.923   9.755
15564WAT     H246935   1.670   8.904   9.908
15565WAT      O46936   0.081   4.820   4.024
15565WAT     H146937   0.049   4.815   3.929
15565WAT     H246938   0.002   4.824   4.085
15566WAT      O46939   7.955   4.333   7.706
15566WAT     H146940   7.952   4.413   7.766
15566WAT     H246941   7.996   4.357   7.619
15567WAT      O46942   3.937   6.136   6.048
15567WAT     H146943   3.862   6.138   6.114
15567WAT     H246944   3.901   6.156   5.956
15568WAT      O46945   7.240   2.905   6.759
15568WAT     H146946   7.263   2.900   6.856
15568WAT     H246947   7.151   2.950   6.749
15569WAT      O46948   4.113   4.306   2.111
15569WAT     H146949   4.190   4.317   2.174
15569WAT     H246950   4.060   4.391   2.109
15570WAT      O46951   7.203   2.984   2.168
15570WAT     H146952   7.285   3.036   2.194
15570WAT     H246953   7.212   2.890   2.201
15571WAT      O46954   7.659   7.272   4.984
15571WAT     H146955   7.714   7.265   4.901
15571WAT     H246956   7.708   7.231   5.061
15572WAT      O46957   4.037   6.625   9.786
15572WAT     H146958   4.074   6.592   9.699
15572WAT     H246959   3.956   6.572   9.810
15573WAT      O46960   7.438   0.342   6.651
15573WAT     H146961   7.482   0.319   6.738
15573WAT     H246962   7.343   0.308   6.652
15574WAT      O46963   6.022   7.743   3.265
15574WAT     H146964   6.122   7.753   3.262
15574WAT     H246965   5.993   7.677   3.195
15575WAT      O46966   6.264   5.913   9.756
15575WAT     H146967   6.172   5.875   9.763
15575WAT     H246968   6.301   5.927   9.848
15576WAT      O46969   3.364   1.262   8.494
15576WAT     H146970   3.323   1.337   8.443
15576WAT     H246971   3.445   1.295   8.543
15577WAT      O46972   1.493   9.610   6.976
15577WAT     H146973   1.563   9.599   7.047
15577WAT     H246974   1.422   9.540   6.988
15578WAT      O46975   3.303   3.805   9.539
15578WAT     H146976   3.223   3.759   9.500
15578WAT     H246977   3.317   3.892   9.492
15579WAT      O46978   1.903   7.637   7.242
15579WAT     H146979   1.829   7.630   7.175
15579WAT     H246980   1.986   7.670   7.197
15580WAT      O46981   5.950   9.786   1.571
15580WAT     H146982   5.954   9.687   1.584
15580WAT     H246983   6.041   9.826   1.583
15581WAT      O46984   0.520   0.557   0.768
15581WAT     H146985   0.520   0.460   0.794
15581WAT     H246986   0.479   0.566   0.677
15582WAT      O46987   1.855   3.944   2.037
15582WAT     H146988   1.806   3.943   2.124
15582WAT     H246989   1.914   4.024   2.033
15583WAT      O46990   4.185   3.558   0.345
15583WAT     H146991   4.170   3.639   0.288
15583WAT     H246992   4.262   3.575   0.407
15584WAT      O46993   2.610   7.475   0.383
15584WAT     H146994   2.690   7.523   0.347
15584WAT     H246995   2.568   7.529   0.455
15585WAT      O46996   3.339   5.498   1.369
15585WAT     H146997   3.256   5.449   1.396
15585WAT     H246998   3.331   5.528   1.274
15586WAT      O46999   6.730   9.213   1.994
15586WAT     H147000   6.769   9.128   2.028
15586WAT     H247001   6.795   9.288   2.007
15587WAT      O47002   5.546   8.883   2.201
15587WAT     H147003   5.499   8.876   2.113
15587WAT     H247004   5.556   8.792   2.241
15588WAT      O47005   5.135   0.668   0.735
15588WAT     H147006   5.083   0.736   0.787
15588WAT     H247007   5.187   0.715   0.663
15589WAT      O47008   1.745   6.749   9.076
15589WAT     H147009   1.662   6.800   9.054
15589WAT     H247010   1.753   6.741   9.176
15590WAT      O47011   0.986   7.491   5.784
15590WAT     H147012   1.055   7.420   5.774
15590WAT     H247013   1.014   7.555   5.856
15591WAT      O47014   0.426   0.552   8.147
15591WAT     H147015   0.433   0.514   8.239
15591WAT     H247016   0.477   0.638   8.142
15592WAT      O47017   0.330   7.662   9.832
15592WAT     H147018   0.403   7.604   9.868
15592WAT     H247019   0.258   7.604   9.791
15593WAT      O47020   3.155   7.101   2.518
15593WAT     H147021   3.077   7.106   2.580
15593WAT     H247022   3.131   7.047   2.437
15594WAT      O47023   0.208   3.770   0.255
15594WAT     H147024   0.211   3.814   0.165
15594WAT     H247025   0.123   3.717   0.262
15595WAT      O47026   3.563   2.572   6.160
15595WAT     H147027   3.640   2.523   6.201
15595WAT     H247028   3.593   2.664   6.133
15596WAT      O47029   3.095   0.278   9.251
15596WAT     H147030   3.134   0.366   9.224
15596WAT     H247031   3.041   0.241   9.175
15597WAT      O47032   3.106   4.445   6.142
15597WAT     H147033   3.192   4.441   6.194
15597WAT     H247034   3.090   4.538   6.111
15598WAT      O47035   3.403   3.233   3.586
15598WAT     H147036   3.495   3.214   3.620
15598WAT     H247037   3.360   3.304   3.641
15599WAT      O47038   5.861   4.255   5.511
15599WAT     H147039   5.769   4.229   5.540
15599WAT     H247040   5.893   4.191   5.441
15600WAT      O47041   7.708   0.344   3.139
15600WAT     H147042   7.744   0.273   3.200
15600WAT     H247043   7.629   0.308   3.089
15601WAT      O47044   7.608   8.488   3.085
15601WAT     H147045   7.524   8.460   3.039
15601WAT     H247046   7.600   8.583   3.115
15602WAT      O47047   8.211   8.569   4.351
15602WAT     H147048   8.114   8.544   4.349
15602WAT     H247049   8.265   8.492   4.317
15603WAT      O47050   8.739   2.955   3.032
15603WAT     H147051   8.711   2.994   2.944
15603WAT     H247052   8.662   2.906   3.072
15604WAT      O47053   2.240   3.835   2.198
15604WAT     H147054   2.294   3.891   2.135
15604WAT     H247055   2.159   3.799   2.151
15605WAT      O47056   5.016   7.689   4.483
15605WAT     H147057   4.987   7.666   4.390
15605WAT     H247058   4.979   7.622   4.548
15606WAT      O47059   6.926   3.620   5.342
15606WAT     H147060   6.848   3.572   5.300
15606WAT     H247061   7.006   3.560   5.342
15607WAT      O47062   6.860   2.997   4.993
15607WAT     H147063   6.773   3.045   4.989
15607WAT     H247064   6.917   3.024   4.916
15608WAT      O47065   2.318   4.874   9.508
15608WAT     H147066   2.412   4.906   9.517
15608WAT     H247067   2.266   4.898   9.590
15609WAT      O47068   4.180   2.339   5.929
15609WAT     H147069   4.194   2.416   5.867
15609WAT     H247070   4.104   2.283   5.896
15610WAT      O47071   7.115   7.980   8.222
15610WAT     H147072   7.081   7.918   8.293
15610WAT     H247073   7.204   8.016   8.248
15611WAT      O47074   6.068   1.342   1.415
15611WAT     H147075   6.064   1.390   1.503
15611WAT     H247076   5.975   1.317   1.387
15612WAT      O47077   7.277   0.405   6.190
15612WAT     H147078   7.208   0.409   6.262
15612WAT     H247079   7.260   0.477   6.123
15613WAT      O47080   0.790   7.887   6.643
15613WAT     H147081   0.854   7.875   6.568
15613WAT     H247082   0.836   7.870   6.730
15614WAT      O47083   2.622   6.966   7.719
15614WAT     H147084   2.595   7.055   7.682
15614WAT     H247085   2.604   6.964   7.817
15615WAT      O47086   9.035   7.777   3.053
15615WAT     H147087   8.999   7.784   3.146
15615WAT     H247088   9.047   7.868   3.014
15616WAT      O47089   6.184   0.349   1.312
15616WAT     H147090   6.273   0.395   1.310
15616WAT     H247091   6.127   0.391   1.382
15617WAT      O47092   6.341   1.743   9.016
15617WAT     H147093   6.315   1.814   9.082
15617WAT     H247094   6.259   1.713   8.966
15618WAT      O47095   8.827   6.842   5.004
15618WAT     H147096   8.803   6.887   4.918
15618WAT     H247097   8.748   6.792   5.038
15619WAT      O47098   7.807   2.025   2.843
15619WAT     H147099   7.799   2.016   2.942
15619WAT     H247100   7.722   1.993   2.800
15620WAT      O47101   2.452   6.435   8.558
15620WAT     H147102   2.395   6.502   8.605
15620WAT     H247103   2.464   6.355   8.616
15621WAT      O47104   6.111   3.100   0.113
15621WAT     H147105   6.093   3.168   0.184
15621WAT     H247106   6.208   3.073   0.117
15622WAT      O47107   1.161   9.770   8.597
15622WAT     H147108   1.222   9.691   8.600
15622WAT     H247109   1.180   9.830   8.675
15623WAT      O47110   6.877   4.469   5.207
15623WAT     H147111   6.848   4.492   5.114
15623WAT     H247112   6.935   4.388   5.204
15624WAT      O47113   7.469   7.102   1.496
15624WAT     H147114   7.442   7.153   1.415
15624WAT     H247115   7.434   7.149   1.578
15625WAT      O47116   5.712   0.635   9.808
15625WAT     H147117   5.774   0.634   9.886
15625WAT     H247118   5.733   0.715   9.751
15626WAT      O47119   9.161   0.352   3.552
15626WAT     H147120   9.100   0.289   3.504
15626WAT     H247121   9.247   0.305   3.574
15627WAT      O47122   8.160   2.752   0.255
15627WAT     H147123   8.145   2.654   0.242
15627WAT     H247124   8.144   2.776   0.351
15628WAT      O47125   6.809   6.317   3.633
15628WAT     H147126   6.754   6.395   3.663
15628WAT     H247127   6.903   6.329   3.665
15629WAT      O47128   3.523   8.727   9.695
15629WAT     H147129   3.569   8.642   9.669
15629WAT     H247130   3.480   8.768   9.614
15630WAT      O47131   1.189   4.159   3.173
15630WAT     H147132   1.178   4.117   3.263
15630WAT     H247133   1.277   4.132   3.134
15631WAT      O47134   2.163   9.719   0.347
15631WAT     H147135   2.182   9.732   0.249
15631WAT     H247136   2.073   9.756   0.368
15632WAT      O47137   2.674   0.697   8.535
15632WAT     H147138   2.705   0.604   8.557
15632WAT     H247139   2.629   0.737   8.614
15633WAT      O47140   7.002   2.786   8.582
15633WAT     H147141   6.973   2.871   8.538
15633WAT     H247142   7.011   2.801   8.681
15634WAT      O47143   2.606   7.290   4.319
15634WAT     H147144   2.591   7.384   4.351
15634WAT     H247145   2.703   7.278   4.296
15635WAT      O47146   5.529   3.783   3.951
15635WAT     H147147   5.540   3.705   3.888
15635WAT     H247148   5.537   3.868   3.899
15636WAT      O47149   2.776   9.250   1.030
15636WAT     H147150   2.830   9.170   1.057
15636WAT     H247151   2.834   9.312   0.976
15637WAT      O47152   9.424   1.556   5.414
15637WAT     H147153   9.336   1.512   5.428
15637WAT     H247154   9.496   1.504   5.460
15638WAT      O47155   7.663   3.773   7.609
15638WAT     H147156   7.616   3.835   7.545
15638WAT     H247157   7.610   3.688   7.618
15639WAT      O47158   3.912   4.194   3.611
15639WAT     H147159   3.938   4.251   3.533
15639WAT     H247160   3.964   4.109   3.608
15640WAT      O47161   6.180   5.321   7.413
15640WAT     H147162   6.197   5.230   7.375
15640WAT     H247163   6.168   5.313   7.512
15641WAT      O47164   4.042   7.680   6.327
15641WAT     H147165   4.118   7.639   6.277
15641WAT     H247166   3.976   7.609   6.352
15642WAT      O47167   5.189   3.457   7.024
15642WAT     H147168   5.282   3.494   7.028
15642WAT     H247169   5.192   3.364   6.988
15643WAT      O47170   7.204   4.923   5.536
15643WAT     H147171   7.193   4.999   5.600
15643WAT     H247172   7.248   4.954   5.452
15644WAT      O47173   6.980   0.296   2.659
15644WAT     H147174   6.924   0.315   2.578
15644WAT     H247175   6.922   0.295   2.740
15645WAT      O47176   0.492   1.478   4.777
15645WAT     H147177   0.398   1.454   4.804
15645WAT     H247178   0.544   1.505   4.858
15646WAT      O47179   2.768   5.169   7.218
15646WAT     H147180   2.799   5.211   7.132
15646WAT     H247181   2.732   5.078   7.199
15647WAT      O47182   3.843   9.401   0.419
15647WAT     H147183   3.903   9.452   0.481
15647WAT     H247184   3.755   9.448   0.413
15648WAT      O47185   6.926   7.093   3.233
15648WAT     H147186   6.837   7.138   3.228
15648WAT     H247187   6.966   7.088   3.142
15649WAT      O47188   5.209   0.520   1.660
15649WAT     H147189   5.290   0.551   1.609
15649WAT     H247190   5.222   0.424   1.685
15650WAT      O47191   1.627   2.916   5.833
15650WAT     H147192   1.706   2.871   5.792
15650WAT     H247193   1.643   3.015   5.837
15651WAT      O47194   5.562   0.007   8.261
15651WAT     H147195   5.552  -0.067   8.329
15651WAT     H247196   5.617   0.080   8.300
15652WAT      O47197   1.632   1.822   0.874
15652WAT     H147198   1.576   1.741   0.861
15652WAT     H247199   1.610   1.864   0.962
15653WAT      O47200   7.758   4.514   5.915
15653WAT     H147201   7.837   4.462   5.883
15653WAT     H247202   7.699   4.537   5.838
15654WAT      O47203   7.258   1.744   6.803
15654WAT     H147204   7.171   1.787   6.779
15654WAT     H247205   7.308   1.802   6.867
15655WAT      O47206   0.255   5.604   6.343
15655WAT     H147207   0.320   5.677   6.360
15655WAT     H247208   0.219   5.613   6.250
15656WAT      O47209   6.391   1.631   3.664
15656WAT     H147210   6.331   1.575   3.721
15656WAT     H247211   6.441   1.695   3.723
15657WAT      O47212   2.239   0.250   9.792
15657WAT     H147213   2.139   0.256   9.801
15657WAT     H247214   2.267   0.155   9.798
15658WAT      O47215   0.428   4.164   3.135
15658WAT     H147216   0.409   4.081   3.085
15658WAT     H247217   0.467   4.141   3.225
15659WAT      O47218   1.383   4.087   4.234
15659WAT     H147219   1.481   4.069   4.229
15659WAT     H247220   1.368   4.179   4.272
15660WAT      O47221   1.990   2.689   4.464
15660WAT     H147222   2.018   2.684   4.560
15660WAT     H247223   2.001   2.599   4.421
15661WAT      O47224   8.613   7.692   9.292
15661WAT     H147225   8.622   7.720   9.197
15661WAT     H247226   8.530   7.638   9.304
15662WAT      O47227   9.330   6.846   4.962
15662WAT     H147228   9.246   6.795   4.941
15662WAT     H247229   9.325   6.937   4.922
15663WAT      O47230   0.735   2.413   1.562
15663WAT     H147231   0.679   2.478   1.511
15663WAT     H247232   0.680   2.369   1.632
15664WAT      O47233   7.974   5.253   2.474
15664WAT     H147234   8.027   5.323   2.523
15664WAT     H247235   7.893   5.295   2.434
15665WAT      O47236   8.037   9.528   2.947
15665WAT     H147237   8.104   9.577   2.890
15665WAT     H247238   7.971   9.593   2.984
15666WAT      O47239   9.382   4.466   5.690
15666WAT     H147240   9.415   4.408   5.615
15666WAT     H247241   9.407   4.425   5.777
15667WAT      O47242   1.686   3.332   7.445
15667WAT     H147243   1.710   3.330   7.348
15667WAT     H247244   1.748   3.395   7.493
15668WAT      O47245   5.292   9.271   9.104
15668WAT     H147246   5.369   9.334   9.096
15668WAT     H247247   5.265   9.261   9.200
15669WAT      O47248   7.423   4.620   4.198
15669WAT     H147249   7.432   4.611   4.297
15669WAT     H247250   7.490   4.561   4.153
15670WAT      O47251   0.668   5.247   8.112
15670WAT     H147252   0.632   5.303   8.038
15670WAT     H247253   0.750   5.200   8.082
15671WAT      O47254   5.783   6.583   1.202
15671WAT     H147255   5.831   6.529   1.133
15671WAT     H247256   5.686   6.590   1.177
15672WAT      O47257   3.771   2.962   8.434
15672WAT     H147258   3.727   2.953   8.523
15672WAT     H247259   3.703   2.994   8.367
15673WAT      O47260   5.826   3.632   4.627
15673WAT     H147261   5.923   3.619   4.645
15673WAT     H247262   5.812   3.718   4.578
15674WAT      O47263   1.175   0.709   1.823
15674WAT     H147264   1.096   0.742   1.772
15674WAT     H247265   1.240   0.785   1.835
15675WAT      O47266   6.957   7.934   0.289
15675WAT     H147267   7.047   7.895   0.271
15675WAT     H247268   6.958   8.032   0.269
15676WAT      O47269   7.626   6.160   5.155
15676WAT     H147270   7.582   6.249   5.142
15676WAT     H247271   7.576   6.090   5.104
15677WAT      O47272   9.562   3.596   2.847
15677WAT     H147273   9.508   3.541   2.783
15677WAT     H247274   9.507   3.675   2.876
15678WAT      O47275   9.418   0.733   2.728
15678WAT     H147276   9.455   0.651   2.686
15678WAT     H247277   9.407   0.805   2.659
15679WAT      O47278   7.120   0.539   8.773
15679WAT     H147279   7.207   0.493   8.755
15679WAT     H247280   7.045   0.477   8.753
15680WAT      O47281   1.719   7.517   5.809
15680WAT     H147282   1.705   7.521   5.710
15680WAT     H247283   1.728   7.422   5.838
15681WAT      O47284   6.603   3.166   4.196
15681WAT     H147285   6.579   3.108   4.119
15681WAT     H247286   6.694   3.204   4.182
15682WAT      O47287   8.316   3.362   5.298
15682WAT     H147288   8.351   3.349   5.205
15682WAT     H247289   8.317   3.459   5.320
15683WAT      O47290   3.326   7.751   0.888
15683WAT     H147291   3.378   7.837   0.888
15683WAT     H247292   3.325   7.713   0.795
15684WAT      O47293   7.287   3.234   5.919
15684WAT     H147294   7.349   3.177   5.865
15684WAT     H247295   7.296   3.329   5.891
15685WAT      O47296   6.113   6.570   2.629
15685WAT     H147297   6.018   6.542   2.616
15685WAT     H247298   6.117   6.660   2.670
15686WAT      O47299   2.738   5.134   3.749
15686WAT     H147300   2.646   5.159   3.781
15686WAT     H247301   2.801   5.209   3.765
15687WAT      O47302   1.149   0.497   2.628
15687WAT     H147303   1.088   0.576   2.632
15687WAT     H247304   1.097   0.417   2.597
15688WAT      O47305   2.706   5.528   8.951
15688WAT     H147306   2.747   5.444   8.915
15688WAT     H247307   2.608   5.515   8.962
15689WAT      O47308   5.266   8.094   5.358
15689WAT     H147309   5.196   8.162   5.335
15689WAT     H247310   5.234   8.039   5.435
15690WAT      O47311   3.108   9.702   5.829
15690WAT     H147312   3.129   9.798   5.847
15690WAT     H247313   3.190   9.647   5.842
15691WAT      O47314   2.033   9.823   6.398
15691WAT     H147315   2.051   9.740   6.452
15691WAT     H247316   1.983   9.889   6.454
15692WAT      O47317   5.747   2.754   6.492
15692WAT     H147318   5.785   2.838   6.455
15692WAT     H247319   5.738   2.762   6.591
15693WAT      O47320   5.219   8.835   8.292
15693WAT     H147321   5.280   8.755   8.299
15693WAT     H247322   5.265   8.915   8.332
15694WAT      O47323   8.107   3.947   4.127
15694WAT     H147324   8.048   3.929   4.049
15694WAT     H247325   8.156   4.033   4.111
15695WAT      O47326   0.246   7.334   1.267
15695WAT     H147327   0.257   7.432   1.251
15695WAT     H247328   0.333   7.287   1.247
15696WAT      O47329   5.193   9.221   8.127
15696WAT     H147330   5.151   9.185   8.210
15696WAT     H247331   5.129   9.213   8.051
15697WAT      O47332   6.815   9.516   1.204
15697WAT     H147333   6.739   9.572   1.237
15697WAT     H247334   6.888   9.577   1.171
15698WAT      O47335   6.313   7.739   9.483
15698WAT     H147336   6.358   7.659   9.445
15698WAT     H247337   6.288   7.721   9.579
15699WAT      O47338   2.423   6.883   3.462
15699WAT     H147339   2.465   6.800   3.500
15699WAT     H247340   2.419   6.954   3.533
15700WAT      O47341   3.129   1.592   2.758
15700WAT     H147342   3.141   1.593   2.858
15700WAT     H247343   3.068   1.516   2.734
15701WAT      O47344   1.052   3.494   1.136
15701WAT     H147345   1.051   3.410   1.190
15701WAT     H247346   0.974   3.494   1.073
15702WAT      O47347   4.135   7.804   8.215
15702WAT     H147348   4.174   7.713   8.224
15702WAT     H247349   4.073   7.806   8.136
15703WAT      O47350   9.515   8.830   5.284
15703WAT     H147351   9.593   8.889   5.266
15703WAT     H247352   9.451   8.836   5.207
15704WAT      O47353   6.705   6.475   5.292
15704WAT     H147354   6.675   6.380   5.289
15704WAT     H247355   6.675   6.517   5.377
15705WAT      O47356   4.312   0.333   0.459
15705WAT     H147357   4.235   0.272   0.438
15705WAT     H247358   4.305   0.362   0.555
15706WAT      O47359   3.118   4.813   8.208
15706WAT     H147360   3.160   4.860   8.131
15706WAT     H247361   3.134   4.866   8.292
15707WAT      O47362   4.718   3.715   0.323
15707WAT     H147363   4.722   3.744   0.227
15707WAT     H247364   4.639   3.759   0.367
15708WAT      O47365   5.703   0.882   1.832
15708WAT     H147366   5.770   0.946   1.869
15708WAT     H247367   5.747   0.824   1.764
15709WAT      O47368   0.378   5.834   8.485
15709WAT     H147369   0.348   5.882   8.567
15709WAT     H247370   0.402   5.900   8.414
15710WAT      O47371   9.858   0.601   9.826
15710WAT     H147372   9.814   0.579   9.913
15710WAT     H247373   9.892   0.517   9.783
15711WAT      O47374   6.642   7.762   7.719
15711WAT     H147375   6.576   7.742   7.647
15711WAT     H247376   6.611   7.842   7.771
15712WAT      O47377   1.559   8.524   0.620
15712WAT     H147378   1.643   8.478   0.591
15712WAT     H247379   1.496   8.458   0.660
15713WAT      O47380   4.523   4.852   7.078
15713WAT     H147381   4.443   4.833   7.136
15713WAT     H247382   4.492   4.891   6.991
15714WAT      O47383   5.244   4.725   4.338
15714WAT     H147384   5.190   4.660   4.283
15714WAT     H247385   5.182   4.790   4.383
15715WAT      O47386   6.475   8.188   0.628
15715WAT     H147387   6.425   8.115   0.583
15715WAT     H247388   6.573   8.176   0.614
15716WAT      O47389   5.799   3.315   7.777
15716WAT     H147390   5.829   3.409   7.764
15716WAT     H247391   5.759   3.280   7.692
15717WAT      O47392   8.454   3.659   1.372
15717WAT     H147393   8.459   3.689   1.277
15717WAT     H247394   8.539   3.611   1.396
15718WAT      O47395   7.201   4.561   5.256
15718WAT     H147396   7.106   4.585   5.277
15718WAT     H247397   7.259   4.642   5.268
15719WAT      O47398   0.931   8.290   5.141
15719WAT     H147399   0.950   8.269   5.045
15719WAT     H247400   0.991   8.364   5.171
15720WAT      O47401   0.913   5.224   2.313
15720WAT     H147402   0.848   5.299   2.311
15720WAT     H247403   0.968   5.225   2.229
15721WAT      O47404   7.119   0.449   4.749
15721WAT     H147405   7.080   0.410   4.832
15721WAT     H247406   7.176   0.380   4.704
15722WAT      O47407   0.247   8.205   2.916
15722WAT     H147408   0.222   8.203   2.819
15722WAT     H247409   0.338   8.245   2.925
15723WAT      O47410   4.674   9.800   3.963
15723WAT     H147411   4.687   9.863   4.040
15723WAT     H247412   4.590   9.748   3.976
15724WAT      O47413   9.590   1.981   2.317
15724WAT     H147414   9.495   1.956   2.296
15724WAT     H247415   9.618   1.938   2.403
15725WAT      O47416   5.562   5.635   2.922
15725WAT     H147417   5.599   5.727   2.916
15725WAT     H247418   5.505   5.617   2.841
15726WAT      O47419   8.293   9.021   8.748
15726WAT     H147420   8.242   8.973   8.677
15726WAT     H247421   8.331   8.954   8.812
15727WAT      O47422   1.739   5.397   6.016
15727WAT     H147423   1.748   5.303   6.050
15727WAT     H247424   1.657   5.438   6.055
15728WAT      O47425   1.468   8.575   2.487
15728WAT     H147426   1.539   8.627   2.536
15728WAT     H247427   1.496   8.560   2.393
15729WAT      O47428   3.824   6.673   2.566
15729WAT     H147429   3.871   6.650   2.480
15729WAT     H247430   3.730   6.641   2.561
15730WAT      O47431   7.030   7.500   4.192
15730WAT     H147432   7.020   7.454   4.103
15730WAT     H247433   6.974   7.453   4.260
15731WAT      O47434   6.262   9.006   3.035
15731WAT     H147435   6.293   8.919   2.997
15731WAT     H247436   6.315   9.081   2.995
15732WAT      O47437   6.681   0.694   5.630
15732WAT     H147438   6.645   0.773   5.680
15732WAT     H247439   6.605   0.640   5.594
15733WAT      O47440   4.195   3.232   3.497
15733WAT     H147441   4.172   3.326   3.523
15733WAT     H247442   4.111   3.181   3.478
15734WAT      O47443   3.230   9.688   6.891
15734WAT     H147444   3.214   9.783   6.865
15734WAT     H247445   3.254   9.684   6.988
15735WAT      O47446   9.184   2.931   0.907
15735WAT     H147447   9.097   2.886   0.927
15735WAT     H247448   9.250   2.863   0.876
15736WAT      O47449   0.480   5.096   5.807
15736WAT     H147450   0.433   5.165   5.752
15736WAT     H247451   0.443   5.095   5.899
15737WAT      O47452   2.457   9.627   1.235
15737WAT     H147453   2.526   9.699   1.224
15737WAT     H247454   2.427   9.596   1.145
15738WAT      O47455   3.236   6.048   0.148
15738WAT     H147456   3.173   6.122   0.123
15738WAT     H247457   3.285   6.072   0.231
15739WAT      O47458   5.035   0.714   2.649
15739WAT     H147459   5.067   0.620   2.659
15739WAT     H247460   4.983   0.740   2.731
15740WAT      O47461   6.410   7.457   6.031
15740WAT     H147462   6.449   7.434   6.121
15740WAT     H247463   6.331   7.398   6.013
15741WAT      O47464   5.471   3.946   1.205
15741WAT     H147465   5.545   3.965   1.140
15741WAT     H247466   5.386   3.931   1.155
15742WAT      O47467   8.404   6.737   3.344
15742WAT     H147468   8.440   6.721   3.436
15742WAT     H247469   8.357   6.654   3.312
15743WAT      O47470   7.488   7.426   1.124
15743WAT     H147471   7.510   7.463   1.214
15743WAT     H247472   7.539   7.475   1.054
15744WAT      O47473   0.730   7.659   7.283
15744WAT     H147474   0.788   7.604   7.224
15744WAT     H247475   0.642   7.674   7.238
15745WAT      O47476   5.218   9.353   7.819
15745WAT     H147477   5.136   9.397   7.781
15745WAT     H247478   5.250   9.404   7.898
15746WAT      O47479   6.599   5.496   4.337
15746WAT     H147480   6.587   5.398   4.351
15746WAT     H247481   6.569   5.521   4.245
15747WAT      O47482   4.814   8.720   7.834
15747WAT     H147483   4.718   8.720   7.807
15747WAT     H247484   4.833   8.639   7.890
15748WAT      O47485   5.037   0.412   5.708
15748WAT     H147486   5.009   0.507   5.695
15748WAT     H247487   4.956   0.353   5.709
15749WAT      O47488   6.875   7.117   2.594
15749WAT     H147489   6.948   7.184   2.600
15749WAT     H247490   6.913   7.025   2.584
15750WAT      O47491   8.873   7.727   3.901
15750WAT     H147492   8.909   7.657   3.839
15750WAT     H247493   8.799   7.687   3.956
15751WAT      O47494   9.654   4.147   5.621
15751WAT     H147495   9.591   4.070   5.618
15751WAT     H247496   9.741   4.122   5.578
15752WAT      O47497   3.560   2.285   8.058
15752WAT     H147498   3.523   2.225   7.987
15752WAT     H247499   3.485   2.326   8.110
15753WAT      O47500   6.682   0.197   5.208
15753WAT     H147501   6.735   0.273   5.247
15753WAT     H247502   6.635   0.149   5.281
15754WAT      O47503   7.756   8.851   3.569
15754WAT     H147504   7.754   8.936   3.516
15754WAT     H247505   7.663   8.827   3.596
15755WAT      O47506   3.004   9.315   5.478
15755WAT     H147507   3.006   9.217   5.497
15755WAT     H247508   3.006   9.366   5.564
15756WAT      O47509   6.385   1.857   8.152
15756WAT     H147510   6.303   1.867   8.209
15756WAT     H247511   6.373   1.780   8.089
15757WAT      O47512   6.451   4.068   4.610
15757WAT     H147513   6.537   4.049   4.563
15757WAT     H247514   6.377   4.017   4.565
15758WAT      O47515   7.123   8.728   3.855
15758WAT     H147516   7.211   8.707   3.896
15758WAT     H247517   7.135   8.796   3.783
15759WAT      O47518   7.429   5.930   7.068
15759WAT     H147519   7.413   6.009   7.008
15759WAT     H247520   7.523   5.898   7.057
15760WAT      O47521   3.495   3.999   6.218
15760WAT     H147522   3.567   4.069   6.215
15760WAT     H247523   3.408   4.042   6.244
15761WAT      O47524   3.747   0.482   5.476
15761WAT     H147525   3.648   0.471   5.466
15761WAT     H247526   3.773   0.464   5.570
15762WAT      O47527   9.286   2.375   0.406
15762WAT     H147528   9.214   2.394   0.340
15762WAT     H247529   9.271   2.285   0.447
15763WAT      O47530   8.551   1.955   6.371
15763WAT     H147531   8.452   1.950   6.364
15763WAT     H247532   8.584   2.037   6.323
15764WAT      O47533   4.455   9.297   6.098
15764WAT     H147534   4.441   9.258   6.189
15764WAT     H247535   4.369   9.337   6.066
15765WAT      O47536   8.007   8.655   6.034
15765WAT     H147537   7.959   8.739   6.010
15765WAT     H247538   7.968   8.617   6.118
15766WAT      O47539   1.583   1.064   6.927
15766WAT     H147540   1.493   1.108   6.917
15766WAT     H247541   1.639   1.118   6.989
15767WAT      O47542   0.929   3.357   2.952
15767WAT     H147543   0.831   3.336   2.947
15767WAT     H247544   0.975   3.292   3.011
15768WAT      O47545   3.542   6.383   4.172
15768WAT     H147546   3.543   6.407   4.269
15768WAT     H247547   3.616   6.431   4.125
15769WAT      O47548   3.648   4.316   7.075
15769WAT     H147549   3.645   4.234   7.132
15769WAT     H247550   3.731   4.368   7.097
15770WAT      O47551   8.778   7.053   0.543
15770WAT     H147552   8.840   7.109   0.488
15770WAT     H247553   8.713   7.007   0.482
15771WAT      O47554   3.525   5.579   5.665
15771WAT     H147555   3.532   5.679   5.665
15771WAT     H247556   3.430   5.553   5.648
15772WAT      O47557   5.746   5.934   2.663
15772WAT     H147558   5.750   5.855   2.602
15772WAT     H247559   5.767   5.905   2.757
15773WAT      O47560   4.138   6.849   0.902
15773WAT     H147561   4.108   6.781   0.835
15773WAT     H247562   4.220   6.894   0.869
15774WAT      O47563   4.252   7.649   8.913
15774WAT     H147564   4.153   7.649   8.895
15774WAT     H247565   4.298   7.592   8.845
15775WAT      O47566   5.985   3.531   7.227
15775WAT     H147567   6.008   3.609   7.170
15775WAT     H247568   5.968   3.562   7.321
15776WAT      O47569   3.513   4.928   5.514
15776WAT     H147570   3.597   4.928   5.569
15776WAT     H247571   3.537   4.921   5.417
15777WAT      O47572   8.337   4.731   4.493
15777WAT     H147573   8.289   4.765   4.574
15777WAT     H247574   8.435   4.725   4.513
15778WAT      O47575   8.179   6.979   6.920
15778WAT     H147576   8.087   6.941   6.912
15778WAT     H247577   8.205   6.983   7.017
15779WAT      O47578   4.493   2.399   9.693
15779WAT     H147579   4.518   2.321   9.635
15779WAT     H247580   4.518   2.380   9.788
15780WAT      O47581   8.657   9.432   6.513
15780WAT     H147582   8.649   9.367   6.589
15780WAT     H247583   8.605   9.514   6.534
15781WAT      O47584   9.278   9.285   8.637
15781WAT     H147585   9.277   9.278   8.737
15781WAT     H247586   9.364   9.326   8.607
15782WAT      O47587   5.889   6.479   6.608
15782WAT     H147588   5.899   6.380   6.598
15782WAT     H247589   5.806   6.509   6.561
15783WAT      O47590   6.173   6.546   6.773
15783WAT     H147591   6.170   6.454   6.733
15783WAT     H247592   6.222   6.607   6.711
15784WAT      O47593   9.181   5.224   3.919
15784WAT     H147594   9.276   5.226   3.950
15784WAT     H247595   9.154   5.129   3.900
15785WAT      O47596   9.756   8.399   1.129
15785WAT     H147597   9.711   8.461   1.193
15785WAT     H247598   9.829   8.350   1.177
15786WAT      O47599   0.733   6.248   1.578
15786WAT     H147600   0.758   6.231   1.483
15786WAT     H247601   0.680   6.333   1.584
15787WAT      O47602   1.364   7.706   9.379
15787WAT     H147603   1.388   7.625   9.326
15787WAT     H247604   1.446   7.745   9.419
15788WAT      O47605   6.232   0.556   4.807
15788WAT     H147606   6.166   0.607   4.752
15788WAT     H247607   6.205   0.459   4.809
15789WAT      O47608   2.098   9.776   5.812
15789WAT     H147609   2.028   9.744   5.875
15789WAT     H247610   2.188   9.751   5.848
15790WAT      O47611   8.748   4.944   1.137
15790WAT     H147612   8.676   4.923   1.070
15790WAT     H247613   8.828   4.887   1.119
15791WAT      O47614   1.168   0.161   8.865
15791WAT     H147615   1.235   0.097   8.901
15791WAT     H247616   1.106   0.190   8.937
15792WAT      O47617   2.839   0.723   3.586
15792WAT     H147618   2.883   0.743   3.673
15792WAT     H247619   2.896   0.661   3.532
15793WAT      O47620   9.330   4.232   1.777
15793WAT     H147621   9.422   4.265   1.755
15793WAT     H247622   9.326   4.206   1.873
15794WAT      O47623   4.860   4.814   7.903
15794WAT     H147624   4.797   4.745   7.867
15794WAT     H247625   4.944   4.814   7.849
15795WAT      O47626   2.088   7.590   5.652
15795WAT     H147627   2.068   7.646   5.732
15795WAT     H247628   2.158   7.636   5.596
15796WAT      O47629   4.716   1.293   6.047
15796WAT     H147630   4.768   1.366   6.091
15796WAT     H247631   4.621   1.322   6.036
15797WAT      O47632   4.611   2.998   0.454
15797WAT     H147633   4.570   3.085   0.482
15797WAT     H247634   4.599   2.930   0.527
15798WAT      O47635   5.433   2.649   7.236
15798WAT     H147636   5.393   2.741   7.240
15798WAT     H247637   5.374   2.589   7.182
15799WAT      O47638   3.453   0.103   0.334
15799WAT     H147639   3.454   0.108   0.434
15799WAT     H247640   3.359   0.101   0.302
15800WAT      O47641   1.720   5.648   7.029
15800WAT     H147642   1.781   5.716   6.989
15800WAT     H247643   1.739   5.558   6.989
15801WAT      O47644   5.552   1.824   3.341
15801WAT     H147645   5.502   1.857   3.421
15801WAT     H247646   5.582   1.901   3.286
15802WAT      O47647   2.790   2.307   0.949
15802WAT     H147648   2.874   2.281   0.998
15802WAT     H247649   2.812   2.327   0.854
15803WAT      O47650   5.412   2.154   6.022
15803WAT     H147651   5.433   2.237   5.970
15803WAT     H247652   5.471   2.079   5.991
15804WAT      O47653   4.225   6.728   3.957
15804WAT     H147654   4.243   6.797   3.888
15804WAT     H247655   4.303   6.666   3.964
15805WAT      O47656   1.223   7.356   5.054
15805WAT     H147657   1.298   7.331   4.993
15805WAT     H247658   1.209   7.284   5.121
15806WAT      O47659   6.079   9.617   0.774
15806WAT     H147660   5.987   9.656   0.764
15806WAT     H247661   6.073   9.517   0.781
15807WAT      O47662   6.765   5.221   7.442
15807WAT     H147663   6.686   5.280   7.458
15807WAT     H247664   6.811   5.202   7.529
15808WAT      O47665   0.583   5.051   4.404
15808WAT     H147666   0.496   5.080   4.364
15808WAT     H247667   0.633   4.995   4.337
15809WAT      O47668   6.137   4.081   6.094
15809WAT     H147669   6.120   4.084   5.996
15809WAT     H247670   6.050   4.070   6.142
15810WAT      O47671   2.603   6.916   6.620
15810WAT     H147672   2.548   6.937   6.701
15810WAT     H247673   2.666   6.842   6.641
15811WAT      O47674   5.457   2.385   4.147
15811WAT     H147675   5.516   2.359   4.070
15811WAT     H247676   5.507   2.447   4.208
15812WAT      O47677   1.072   8.244   2.152
15812WAT     H147678   1.025   8.330   2.174
15812WAT     H247679   1.117   8.209   2.234
15813WAT      O47680   5.056   6.046  -0.003
15813WAT     H147681   4.982   6.105   0.028
15813WAT     H247682   5.109   6.014   0.076
15814WAT      O47683   7.346   5.025   2.031
15814WAT     H147684   7.413   5.093   2.002
15814WAT     H247685   7.326   5.037   2.128
15815WAT      O47686   3.749   7.522   0.719
15815WAT     H147687   3.713   7.506   0.627
15815WAT     H247688   3.738   7.618   0.742
15816WAT      O47689   1.864   0.566   5.941
15816WAT     H147690   1.901   0.607   5.858
15816WAT     H247691   1.939   0.527   5.995
15817WAT      O47692   7.861   4.132   4.463
15817WAT     H147693   7.781   4.155   4.408
15817WAT     H247694   7.832   4.109   4.556
15818WAT      O47695   9.280   3.059   7.853
15818WAT     H147696   9.276   3.151   7.892
15818WAT     H247697   9.200   3.045   7.795
15819WAT      O47698   8.578   6.805   9.605
15819WAT     H147699   8.597   6.818   9.702
15819WAT     H247700   8.483   6.775   9.593
15820WAT      O47701   2.229   3.524   1.247
15820WAT     H147702   2.183   3.610   1.270
15820WAT     H247703   2.212   3.456   1.318
15821WAT      O47704   2.800   5.173   0.357
15821WAT     H147705   2.798   5.259   0.407
15821WAT     H247706   2.772   5.189   0.262
15822WAT      O47707   6.851   2.003   3.623
15822WAT     H147708   6.754   1.980   3.621
15822WAT     H247709   6.876   2.050   3.538
15823WAT      O47710   4.838   6.596   8.418
15823WAT     H147711   4.860   6.513   8.368
15823WAT     H247712   4.801   6.573   8.508
15824WAT      O47713   8.911   2.618   5.647
15824WAT     H147714   8.973   2.569   5.708
15824WAT     H247715   8.880   2.556   5.575
15825WAT      O47716   9.350   3.601   2.040
15825WAT     H147717   9.264   3.651   2.052
15825WAT     H247718   9.344   3.512   2.085
15826WAT      O47719   4.808   9.022   2.433
15826WAT     H147720   4.796   9.121   2.421
15826WAT     H247721   4.719   8.978   2.437
15827WAT      O47722   8.875   7.739   3.559
15827WAT     H147723   8.819   7.661   3.533
15827WAT     H247724   8.817   7.820   3.571
15828WAT      O47725   3.846   3.043   5.698
15828WAT     H147726   3.836   3.099   5.616
15828WAT     H247727   3.887   3.097   5.771
15829WAT      O47728   2.336   8.599   9.424
15829WAT     H147729   2.361   8.536   9.351
15829WAT     H247730   2.245   8.577   9.458
15830WAT      O47731   7.765   8.686   7.397
15830WAT     H147732   7.813   8.627   7.331
15830WAT     H247733   7.727   8.765   7.349
15831WAT      O47734   3.346   7.725   0.619
15831WAT     H147735   3.318   7.643   0.569
15831WAT     H247736   3.310   7.806   0.573
15832WAT      O47737   0.376   6.716   6.808
15832WAT     H147738   0.403   6.739   6.714
15832WAT     H247739   0.337   6.797   6.852
15833WAT      O47740   1.585   3.733   4.248
15833WAT     H147741   1.547   3.646   4.281
15833WAT     H247742   1.545   3.754   4.159
15834WAT      O47743   7.061   5.810   2.391
15834WAT     H147744   6.975   5.759   2.399
15834WAT     H247745   7.124   5.781   2.463
15835WAT      O47746   0.315   3.356   3.951
15835WAT     H147747   0.394   3.318   3.999
15835WAT     H247748   0.263   3.414   4.014
15836WAT      O47749   8.303   2.968   3.504
15836WAT     H147750   8.282   3.035   3.432
15836WAT     H247751   8.260   2.997   3.590
15837WAT      O47752   9.358   4.330   6.636
15837WAT     H147753   9.399   4.387   6.708
15837WAT     H247754   9.262   4.356   6.624
15838WAT      O47755   7.562   8.961   7.487
15838WAT     H147756   7.551   8.862   7.493
15838WAT     H247757   7.473   9.003   7.473
15839WAT      O47758   4.106   5.666   2.243
15839WAT     H147759   4.056   5.590   2.283
15839WAT     H247760   4.158   5.713   2.314
15840WAT      O47761   6.362   4.037   0.018
15840WAT     H147762   6.282   3.991  -0.021
15840WAT     H247763   6.407   3.975   0.083
15841WAT      O47764   1.320   2.977   7.860
15841WAT     H147765   1.249   2.911   7.835
15841WAT     H247766   1.290   3.069   7.838
15842WAT      O47767   2.935   2.234   2.785
15842WAT     H147768   2.836   2.225   2.796
15842WAT     H247769   2.971   2.155   2.736
15843WAT      O47770   6.761   6.461   3.272
15843WAT     H147771   6.725   6.415   3.352
15843WAT     H247772   6.714   6.429   3.190
15844WAT      O47773   6.566   1.088   2.102
15844WAT     H147774   6.649   1.075   2.048
15844WAT     H247775   6.507   1.155   2.056
15845WAT      O47776   0.915   4.508   3.406
15845WAT     H147777   1.012   4.484   3.414
15845WAT     H247778   0.860   4.424   3.413
15846WAT      O47779   5.284   1.956   2.624
15846WAT     H147780   5.320   1.925   2.536
15846WAT     H247781   5.329   1.906   2.698
15847WAT      O47782   7.478   0.875   9.562
15847WAT     H147783   7.556   0.887   9.623
15847WAT     H247784   7.397   0.848   9.615
15848WAT      O47785   1.555   9.511   1.533
15848WAT     H147786   1.541   9.610   1.540
15848WAT     H247787   1.482   9.463   1.582
15849WAT      O47788   5.973   7.096   2.923
15849WAT     H147789   6.033   7.095   2.844
15849WAT     H247790   6.009   7.034   2.993
15850WAT      O47791   6.761   8.103   0.628
15850WAT     H147792   6.818   8.023   0.606
15850WAT     H247793   6.794   8.146   0.712
15851WAT      O47794   3.426   0.187   9.841
15851WAT     H147795   3.481   0.204   9.923
15851WAT     H247796   3.331   0.214   9.858
15852WAT      O47797   5.498   8.313   0.041
15852WAT     H147798   5.511   8.411   0.022
15852WAT     H247799   5.549   8.259  -0.025
15853WAT      O47800   7.797   4.774   4.796
15853WAT     H147801   7.819   4.833   4.718
15853WAT     H247802   7.732   4.820   4.856
15854WAT      O47803   0.545   0.892   9.474
15854WAT     H147804   0.525   0.905   9.377
15854WAT     H247805   0.462   0.907   9.527
15855WAT      O47806   4.167   6.623   8.002
15855WAT     H147807   4.213   6.558   8.063
15855WAT     H247808   4.068   6.614   8.012
15856WAT      O47809   7.187   6.569   2.206
15856WAT     H147810   7.243   6.495   2.244
15856WAT     H247811   7.096   6.534   2.184
15857WAT      O47812   6.725   3.696   7.980
15857WAT     H147813   6.687   3.731   8.065
15857WAT     H247814   6.677   3.737   7.903
15858WAT      O47815   2.626   2.636   6.707
15858WAT     H147816   2.659   2.551   6.748
15858WAT     H247817   2.679   2.713   6.743
15859WAT      O47818   2.805   8.783   7.921
15859WAT     H147819   2.819   8.881   7.932
15859WAT     H247820   2.817   8.758   7.825
15860WAT      O47821   4.398   5.951   7.806
15860WAT     H147822   4.438   5.960   7.715
15860WAT     H247823   4.348   5.865   7.812
15861WAT      O47824   6.582   4.308   3.165
15861WAT     H147825   6.546   4.240   3.102
15861WAT     H247826   6.505   4.357   3.208
15862WAT      O47827   3.209   8.895   2.288
15862WAT     H147828   3.242   8.925   2.199
15862WAT     H247829   3.109   8.903   2.291
15863WAT      O47830   6.992   5.508   4.905
15863WAT     H147831   7.016   5.598   4.940
15863WAT     H247832   7.000   5.507   4.805
15864WAT      O47833   8.377   0.547   3.331
15864WAT     H147834   8.337   0.599   3.255
15864WAT     H247835   8.437   0.607   3.383
15865WAT      O47836   0.107   4.246   7.437
15865WAT     H147837   0.072   4.312   7.504
15865WAT     H247838   0.164   4.179   7.483
15866WAT      O47839   7.344   1.584   7.063
15866WAT     H147840   7.433   1.564   7.022
15866WAT     H247841   7.323   1.681   7.050
15867WAT      O47842   8.806   0.524   2.886
15867WAT     H147843   8.882   0.521   2.821
15867WAT     H247844   8.837   0.566   2.972
15868WAT      O47845   6.221   1.311   0.315
15868WAT     H147846   6.170   1.242   0.263
15868WAT     H247847   6.286   1.356   0.254
15869WAT      O47848   6.248   6.379   5.427
15869WAT     H147849   6.273   6.456   5.487
15869WAT     H247850   6.322   6.311   5.429
15870WAT      O47851   3.986   9.249   1.029
15870WAT     H147852   4.003   9.275   0.934
15870WAT     H247853   3.899   9.289   1.059
15871WAT      O47854   6.192   9.073   7.714
15871WAT     H147855   6.209   8.982   7.676
15871WAT     H247856   6.279   9.121   7.727
15872WAT      O47857   9.789   7.670   8.316
15872WAT     H147858   9.839   7.608   8.255
15872WAT     H247859   9.826   7.665   8.408
15873WAT      O47860   5.214   6.403   0.920
15873WAT     H147861   5.237   6.354   1.004
15873WAT     H247862   5.261   6.359   0.843
15874WAT      O47863   6.533   4.806   3.258
15874WAT     H147864   6.484   4.719   3.263
15874WAT     H247865   6.490   4.873   3.318
15875WAT      O47866   1.717   2.041   5.495
15875WAT     H147867   1.630   2.090   5.502
15875WAT     H247868   1.779   2.075   5.566
15876WAT      O47869   0.678   2.878   4.948
15876WAT     H147870   0.700   2.799   5.006
15876WAT     H247871   0.583   2.871   4.917
15877WAT      O47872   3.689   9.100   5.683
15877WAT     H147873   3.691   9.063   5.776
15877WAT     H247874   3.671   9.027   5.618
15878WAT      O47875   3.553   8.979   6.829
15878WAT     H147876   3.600   9.067   6.832
15878WAT     H247877   3.619   8.906   6.813
15879WAT      O47878   3.693   6.941   2.798
15879WAT     H147879   3.644   6.906   2.718
15879WAT     H247880   3.789   6.953   2.775
15880WAT      O47881   5.356   2.453   8.085
15880WAT     H147882   5.269   2.488   8.120
15880WAT     H247883   5.338   2.392   8.008
15881WAT      O47884   6.778   6.029   3.712
15881WAT     H147885   6.851   5.971   3.678
15881WAT     H247886   6.774   6.114   3.659
15882WAT      O47887   0.543   6.054   7.073
15882WAT     H147888   0.565   6.053   6.976
15882WAT     H247889   0.450   6.021   7.087
15883WAT      O47890   7.479   8.137   1.882
15883WAT     H147891   7.563   8.109   1.928
15883WAT     H247892   7.430   8.203   1.940
15884WAT      O47893   3.893   5.534   2.870
15884WAT     H147894   3.922   5.456   2.814
15884WAT     H247895   3.951   5.613   2.851
15885WAT      O47896   0.311   3.911   9.203
15885WAT     H147897   0.408   3.926   9.220
15885WAT     H247898   0.257   3.973   9.259
15886WAT      O47899   5.422   9.732   6.811
15886WAT     H147900   5.383   9.806   6.755
15886WAT     H247901   5.452   9.769   6.898
15887WAT      O47902   6.289   1.514   5.473
15887WAT     H147903   6.375   1.522   5.423
15887WAT     H247904   6.213   1.510   5.409
15888WAT      O47905   8.608   5.263   3.912
15888WAT     H147906   8.530   5.322   3.937
15888WAT     H247907   8.688   5.320   3.896
15889WAT      O47908   3.407   3.730   6.653
15889WAT     H147909   3.430   3.672   6.576
15889WAT     H247910   3.346   3.803   6.623
15890WAT      O47911   0.602   6.322   6.188
15890WAT     H147912   0.552   6.235   6.196
15890WAT     H247913   0.696   6.303   6.161
15891WAT      O47914   6.088   9.417   2.460
15891WAT     H147915   6.163   9.405   2.525
15891WAT     H247916   6.055   9.512   2.464
15892WAT      O47917   1.859   2.563   6.481
15892WAT     H147918   1.929   2.524   6.422
15892WAT     H247919   1.836   2.655   6.448
15893WAT      O47920   2.838   5.119   7.643
15893WAT     H147921   2.903   5.044   7.633
15893WAT     H247922   2.841   5.153   7.737
15894WAT      O47923   3.707   4.696   7.065
15894WAT     H147924   3.626   4.648   7.101
15894WAT     H247925   3.699   4.794   7.083
15895WAT      O47926   6.298   9.396   3.238
15895WAT     H147927   6.314   9.470   3.174
15895WAT     H247928   6.364   9.402   3.313
15896WAT      O47929   5.539   1.906   3.641
15896WAT     H147930   5.527   1.950   3.730
15896WAT     H247931   5.572   1.974   3.575
15897WAT      O47932   1.751   4.678   5.841
15897WAT     H147933   1.785   4.764   5.805
15897WAT     H247934   1.681   4.697   5.911
15898WAT      O47935   7.691   3.127   9.292
15898WAT     H147936   7.625   3.201   9.304
15898WAT     H247937   7.680   3.088   9.201
15899WAT      O47938   3.996   3.333   6.784
15899WAT     H147939   4.036   3.281   6.709
15899WAT     H247940   3.897   3.335   6.774
15900WAT      O47941   1.416   7.786   4.013
15900WAT     H147942   1.396   7.840   4.095
15900WAT     H247943   1.514   7.763   4.012
15901WAT      O47944   1.579   8.873   9.482
15901WAT     H147945   1.662   8.818   9.485
15901WAT     H247946   1.542   8.882   9.574
15902WAT      O47947   5.762   2.496   6.764
15902WAT     H147948   5.851   2.468   6.729
15902WAT     H247949   5.775   2.558   6.842
15903WAT      O47950   5.632   2.916   6.158
15903WAT     H147951   5.677   2.975   6.091
15903WAT     H247952   5.605   2.830   6.113
15904WAT      O47953   5.935   4.505   0.397
15904WAT     H147954   5.866   4.557   0.447
15904WAT     H247955   5.956   4.421   0.446
15905WAT      O47956   9.110   7.456   6.816
15905WAT     H147957   9.102   7.363   6.780
15905WAT     H247958   9.019   7.496   6.824
15906WAT      O47959   3.172   3.300   7.338
15906WAT     H147960   3.171   3.400   7.343
15906WAT     H247961   3.091   3.263   7.382
15907WAT      O47962   5.175   3.200   9.653
15907WAT     H147963   5.226   3.119   9.626
15907WAT     H247964   5.173   3.207   9.753
15908WAT      O47965   5.754   6.433   9.362
15908WAT     H147966   5.789   6.340   9.366
15908WAT     H247967   5.758   6.467   9.268
15909WAT      O47968   6.885   0.203   4.307
15909WAT     H147969   6.806   0.240   4.257
15909WAT     H247970   6.859   0.118   4.353
15910WAT      O47971   4.302   8.572   3.974
15910WAT     H147972   4.260   8.536   4.058
15910WAT     H247973   4.363   8.647   3.997
15911WAT      O47974   6.795   7.348   5.044
15911WAT     H147975   6.811   7.331   5.141
15911WAT     H247976   6.714   7.406   5.034
15912WAT      O47977   9.284   4.498   0.799
15912WAT     H147978   9.218   4.459   0.862
15912WAT     H247979   9.277   4.598   0.800
15913WAT      O47980   9.341   9.432   0.035
15913WAT     H147981   9.309   9.337   0.028
15913WAT     H247982   9.420   9.444  -0.024
15914WAT      O47983   5.064   3.445   3.680
15914WAT     H147984   4.992   3.449   3.611
15914WAT     H247985   5.151   3.472   3.639
15915WAT      O47986   5.925   9.739   0.257
15915WAT     H147987   5.965   9.729   0.166
15915WAT     H247988   5.991   9.785   0.317
15916WAT      O47989   2.118   1.979   5.757
15916WAT     H147990   2.070   2.050   5.706
15916WAT     H247991   2.180   2.021   5.823
15917WAT      O47992   6.695   4.977   8.560
15917WAT     H147993   6.679   4.953   8.464
15917WAT     H247994   6.792   4.996   8.574
15918WAT      O47995   8.308   0.659   9.095
15918WAT     H147996   8.235   0.594   9.073
15918WAT     H247997   8.396   0.622   9.065
15919WAT      O47998   5.337   2.246   6.537
15919WAT     H147999   5.319   2.209   6.446
15919WAT     H248000   5.402   2.322   6.530
15920WAT      O48001   5.985   0.414   9.101
15920WAT     H148002   5.929   0.496   9.086
15920WAT     H248003   6.038   0.395   9.019
15921WAT      O48004   0.055   3.718   7.549
15921WAT     H148005  -0.036   3.684   7.522
15921WAT     H248006   0.050   3.816   7.566
15922WAT      O48007   8.944   6.177   4.542
15922WAT     H148008   9.017   6.171   4.474
15922WAT     H248009   8.984   6.187   4.633
15923WAT      O48010   8.483   5.713   8.282
15923WAT     H148011   8.390   5.742   8.305
15923WAT     H248012   8.546   5.746   8.352
15924WAT      O48013   4.756   0.792   7.974
15924WAT     H148014   4.678   0.772   8.033
15924WAT     H248015   4.739   0.756   7.883
15925WAT      O48016   8.599   7.939   1.340
15925WAT     H148017   8.599   8.032   1.375
15925WAT     H248018   8.635   7.877   1.409
15926WAT      O48019   7.202   7.861   5.319
15926WAT     H148020   7.131   7.929   5.339
15926WAT     H248021   7.235   7.821   5.405
15927WAT      O48022   7.910   0.950   3.802
15927WAT     H148023   7.891   0.997   3.888
15927WAT     H248024   7.997   0.901   3.809
15928WAT      O48025   7.422   2.430   3.683
15928WAT     H148026   7.375   2.482   3.612
15928WAT     H248027   7.386   2.336   3.685
15929WAT      O48028   2.197   0.360   6.300
15929WAT     H148029   2.210   0.264   6.275
15929WAT     H248030   2.107   0.372   6.342
15930WAT      O48031   8.089   5.307   4.614
15930WAT     H148032   8.165   5.274   4.670
15930WAT     H248033   8.122   5.378   4.551
15931WAT      O48034   5.985   3.487   3.243
15931WAT     H148035   5.964   3.558   3.310
15931WAT     H248036   5.994   3.399   3.289
15932WAT      O48037   3.838   7.378   7.086
15932WAT     H148038   3.752   7.391   7.035
15932WAT     H248039   3.860   7.281   7.090
15933WAT      O48040   0.115   2.538   4.995
15933WAT     H148041   0.023   2.576   5.010
15933WAT     H248042   0.175   2.566   5.070
15934WAT      O48043   6.871   4.321   1.260
15934WAT     H148044   6.830   4.230   1.250
15934WAT     H248045   6.837   4.364   1.344
15935WAT      O48046   5.749   5.094   7.776
15935WAT     H148047   5.788   5.026   7.838
15935WAT     H248048   5.661   5.061   7.743
15936WAT      O48049   0.918   8.394   5.705
15936WAT     H148050   1.001   8.340   5.692
15936WAT     H248051   0.864   8.394   5.620
15937WAT      O48052   2.473   5.918   9.290
15937WAT     H148053   2.506   5.863   9.213
15937WAT     H248054   2.499   6.013   9.276
15938WAT      O48055   1.207   9.063   4.581
15938WAT     H148056   1.210   8.969   4.616
15938WAT     H248057   1.136   9.069   4.510
15939WAT      O48058   4.520   5.655   9.741
15939WAT     H148059   4.617   5.633   9.736
15939WAT     H248060   4.507   5.754   9.735
15940WAT      O48061   8.226   0.343   7.888
15940WAT     H148062   8.178   0.310   7.807
15940WAT     H248063   8.310   0.390   7.862
15941WAT      O48064   6.458   0.290   4.540
15941WAT     H148065   6.397   0.291   4.619
15941WAT     H248066   6.458   0.379   4.496
15942WAT      O48067   1.335   4.658   7.598
15942WAT     H148068   1.366   4.662   7.693
15942WAT     H248069   1.276   4.578   7.586
15943WAT      O48070   2.169   9.343   3.238
15943WAT     H148071   2.208   9.346   3.146
15943WAT     H248072   2.236   9.379   3.303
15944WAT      O48073   5.206   6.352   1.762
15944WAT     H148074   5.186   6.408   1.681
15944WAT     H248075   5.148   6.381   1.838
15945WAT      O48076   8.992   7.416   2.606
15945WAT     H148077   9.077   7.467   2.614
15945WAT     H248078   8.943   7.418   2.694
15946WAT      O48079   1.842   1.310   3.715
15946WAT     H148080   1.775   1.295   3.642
15946WAT     H248081   1.798   1.296   3.804
15947WAT      O48082   8.561   3.013   6.832
15947WAT     H148083   8.599   3.007   6.924
15947WAT     H248084   8.464   3.038   6.838
15948WAT      O48085   7.182   3.025   8.188
15948WAT     H148086   7.253   3.085   8.226
15948WAT     H248087   7.170   3.045   8.091
15949WAT      O48088   9.352   7.499   3.848
15949WAT     H148089   9.270   7.496   3.905
15949WAT     H248090   9.364   7.592   3.811
15950WAT      O48091   2.637   6.418   5.214
15950WAT     H148092   2.733   6.438   5.195
15950WAT     H248093   2.625   6.319   5.226
15951WAT      O48094   7.678   6.606   3.902
15951WAT     H148095   7.756   6.641   3.952
15951WAT     H248096   7.652   6.516   3.937
15952WAT      O48097   3.490   5.761   3.018
15952WAT     H148098   3.493   5.861   3.021
15952WAT     H248099   3.561   5.728   2.956
15953WAT      O48100   9.665   6.808   5.924
15953WAT     H148101   9.631   6.740   5.859
15953WAT     H248102   9.663   6.898   5.880
15954WAT      O48103   2.240   7.079   2.561
15954WAT     H148104   2.288   7.161   2.531
15954WAT     H248105   2.218   7.022   2.482
15955WAT      O48106   0.785   7.224   9.383
15955WAT     H148107   0.781   7.287   9.460
15955WAT     H248108   0.722   7.148   9.398
15956WAT      O48109   3.183   5.109   4.024
15956WAT     H148110   3.125   5.139   4.099
15956WAT     H248111   3.128   5.058   3.958
15957WAT      O48112   1.181   4.222   7.106
15957WAT     H148113   1.202   4.212   7.009
15957WAT     H248114   1.213   4.311   7.139
15958WAT      O48115   3.305   2.259   4.792
15958WAT     H148116   3.238   2.312   4.741
15958WAT     H248117   3.394   2.306   4.790
15959WAT      O48118   2.025   7.789   8.505
15959WAT     H148119   2.017   7.817   8.410
15959WAT     H248120   2.094   7.718   8.514
15960WAT      O48121   9.734   9.807   4.964
15960WAT     H148122   9.775   9.865   5.035
15960WAT     H248123   9.780   9.823   4.877
15961WAT      O48124   4.247   5.087   4.794
15961WAT     H148125   4.283   5.045   4.711
15961WAT     H248126   4.275   5.182   4.799
15962WAT      O48127   8.855   2.191   7.646
15962WAT     H148128   8.939   2.239   7.623
15962WAT     H248129   8.781   2.257   7.660
15963WAT      O48130   3.201   3.507   1.731
15963WAT     H148131   3.178   3.602   1.710
15963WAT     H248132   3.146   3.446   1.675
15964WAT      O48133   1.970   3.042   5.479
15964WAT     H148134   2.050   2.996   5.441
15964WAT     H248135   1.890   3.021   5.424
15965WAT      O48136   7.224   4.070   5.892
15965WAT     H148137   7.217   4.163   5.929
15965WAT     H248138   7.291   4.018   5.946
15966WAT      O48139   6.495   8.301   6.726
15966WAT     H148140   6.485   8.250   6.640
15966WAT     H248141   6.571   8.365   6.718
15967WAT      O48142   7.930   3.754   4.784
15967WAT     H148143   7.964   3.747   4.877
15967WAT     H248144   7.979   3.826   4.735
15968WAT      O48145   3.043   4.404   2.716
15968WAT     H148146   3.103   4.331   2.750
15968WAT     H248147   2.953   4.367   2.696
15969WAT      O48148   7.291   0.822   7.054
15969WAT     H148149   7.303   0.773   7.140
15969WAT     H248150   7.369   0.803   6.994
15970WAT      O48151   1.099   4.919   2.784
15970WAT     H148152   1.020   4.897   2.727
15970WAT     H248153   1.084   5.005   2.832
15971WAT      O48154   6.177   4.369   8.806
15971WAT     H148155   6.096   4.420   8.777
15971WAT     H248156   6.259   4.411   8.767
15972WAT      O48157   4.662   6.195   4.610
15972WAT     H148158   4.660   6.126   4.683
15972WAT     H248159   4.628   6.282   4.645
15973WAT      O48160   9.137   6.006   1.359
15973WAT     H148161   9.040   6.006   1.333
15973WAT     H248162   9.157   6.088   1.412
15974WAT      O48163   0.859   1.429   6.027
15974WAT     H148164   0.836   1.411   5.932
15974WAT     H248165   0.955   1.406   6.044
15975WAT      O48166   7.841   5.769   7.893
15975WAT     H148167   7.807   5.781   7.986
15975WAT     H248168   7.803   5.840   7.834
15976WAT      O48169   9.035   5.123   4.968
15976WAT     H148170   9.109   5.112   5.035
15976WAT     H248171   9.038   5.047   4.903
15977WAT      O48172   3.038   0.249   3.650
15977WAT     H148173   3.001   0.299   3.728
15977WAT     H248174   3.038   0.308   3.569
15978WAT      O48175   8.835   6.742   2.045
15978WAT     H148176   8.889   6.804   1.989
15978WAT     H248177   8.744   6.782   2.061
15979WAT      O48178   4.626   8.657   8.847
15979WAT     H148179   4.575   8.653   8.933
15979WAT     H248180   4.591   8.587   8.785
15980WAT      O48181   9.517   1.246   3.370
15980WAT     H148182   9.454   1.193   3.427
15980WAT     H248183   9.605   1.253   3.416
15981WAT      O48184   7.057   0.007   5.089
15981WAT     H148185   7.041  -0.031   5.180
15981WAT     H248186   6.974  -0.000   5.035
15982WAT      O48187   6.022   0.275   8.620
15982WAT     H148188   5.974   0.358   8.648
15982WAT     H248189   6.103   0.300   8.566
15983WAT      O48190   3.269   8.645   2.063
15983WAT     H148191   3.177   8.631   2.100
15983WAT     H248192   3.285   8.743   2.050
15984WAT      O48193   2.154   0.509   5.022
15984WAT     H148194   2.201   0.427   4.990
15984WAT     H248195   2.161   0.581   4.954
15985WAT      O48196   3.854   9.552   2.382
15985WAT     H148197   3.857   9.452   2.382
15985WAT     H248198   3.794   9.584   2.455
15986WAT      O48199   0.026   1.491   3.873
15986WAT     H148200   0.094   1.426   3.838
15986WAT     H248201   0.008   1.473   3.969
15987WAT      O48202   1.382   6.247   2.497
15987WAT     H148203   1.338   6.168   2.455
15987WAT     H248204   1.460   6.275   2.441
15988WAT      O48205   5.642   0.019   0.860
15988WAT     H148206   5.697   0.098   0.836
15988WAT     H248207   5.558   0.018   0.805
15989WAT      O48208   6.729   2.686   7.326
15989WAT     H148209   6.757   2.614   7.263
15989WAT     H248210   6.712   2.647   7.416
15990WAT      O48211   7.337   3.166   6.211
15990WAT     H148212   7.255   3.110   6.222
15990WAT     H248213   7.320   3.236   6.142
15991WAT      O48214   5.879   6.701   4.685
15991WAT     H148215   5.865   6.786   4.735
15991WAT     H248216   5.846   6.624   4.739
15992WAT      O48217   9.639   9.835   6.083
15992WAT     H148218   9.663   9.831   5.986
15992WAT     H248219   9.594   9.750   6.110
15993WAT      O48220   4.017   7.761   3.734
15993WAT     H148221   4.078   7.840   3.724
15993WAT     H248222   4.025   7.703   3.653
15994WAT      O48223   4.142   3.731   4.594
15994WAT     H148224   4.132   3.731   4.495
15994WAT     H248225   4.233   3.695   4.618
15995WAT      O48226   3.524   7.601   3.572
15995WAT     H148227   3.442   7.544   3.577
15995WAT     H248228   3.514   7.666   3.496
15996WAT      O48229   1.087   9.166   8.632
15996WAT     H148230   1.147   9.134   8.559
15996WAT     H248231   1.140   9.220   8.698
15997WAT      O48232   5.961   3.694   9.795
15997WAT     H148233   6.025   3.758   9.838
15997WAT     H248234   5.967   3.702   9.696
15998WAT      O48235   5.194   0.773   4.050
15998WAT     H148236   5.213   0.797   4.145
15998WAT     H248237   5.114   0.713   4.046
15999WAT      O48238   9.858   0.800   2.391
15999WAT     H148239   9.769   0.760   2.373
15999WAT     H248240   9.925   0.765   2.325
16000WAT      O48241   4.438   8.943   7.777
16000WAT     H148242   4.441   8.922   7.874
16000WAT     H248243   4.351   8.913   7.738
16001WAT      O48244   8.910   4.263   3.768
16001WAT     H148245   8.956   4.220   3.690
16001WAT     H248246   8.952   4.351   3.787
16002WAT      O48247   0.188   1.656   5.033
16002WAT     H148248   0.227   1.564   5.023
16002WAT     H248249   0.111   1.667   4.971
16003WAT      O48250   1.841   9.741   0.105
16003WAT     H148251   1.855   9.749   0.204
16003WAT     H248252   1.880   9.820   0.059
16004WAT      O48253   1.287   2.747   8.618
16004WAT     H148254   1.194   2.714   8.638
16004WAT     H248255   1.336   2.677   8.566
16005WAT      O48256   8.655   5.204   2.420
16005WAT     H148257   8.677   5.127   2.480
16005WAT     H248258   8.575   5.182   2.365
16006WAT      O48259   1.002   1.117   6.821
16006WAT     H148260   0.904   1.118   6.798
16006WAT     H248261   1.048   1.049   6.764
16007WAT      O48262   7.616   1.665   5.817
16007WAT     H148263   7.543   1.711   5.867
16007WAT     H248264   7.659   1.729   5.754
16008WAT      O48265   6.987   9.344   7.831
16008WAT     H148266   7.008   9.390   7.745
16008WAT     H248267   6.996   9.408   7.906
16009WAT      O48268   4.789   8.853   1.782
16009WAT     H148269   4.730   8.861   1.702
16009WAT     H248270   4.884   8.872   1.756
16010WAT      O48271   3.724   0.740   1.634
16010WAT     H148272   3.669   0.667   1.593
16010WAT     H248273   3.752   0.713   1.727
16011WAT      O48274   3.672   0.397   2.359
16011WAT     H148275   3.589   0.447   2.384
16011WAT     H248276   3.647   0.306   2.327
16012WAT      O48277   4.010   4.457   7.373
16012WAT     H148278   3.963   4.533   7.417
16012WAT     H248279   4.101   4.486   7.343
16013WAT      O48280   0.672   7.258   2.141
16013WAT     H148281   0.756   7.251   2.087
16013WAT     H248282   0.651   7.355   2.158
16014WAT      O48283   2.311   0.503   7.564
16014WAT     H148284   2.336   0.576   7.500
16014WAT     H248285   2.354   0.520   7.652
16015WAT      O48286   0.136   2.357   5.568
16015WAT     H148287   0.223   2.322   5.533
16015WAT     H248288   0.152   2.414   5.648
16016WAT      O48289   4.548   1.661   8.094
16016WAT     H148290   4.555   1.761   8.089
16016WAT     H248291   4.456   1.635   8.124
16017WAT      O48292   9.351   5.806   1.044
16017WAT     H148293   9.313   5.767   0.961
16017WAT     H248294   9.311   5.760   1.124
16018WAT      O48295   2.702   2.630   5.876
16018WAT     H148296   2.723   2.721   5.840
16018WAT     H248297   2.783   2.572   5.868
16019WAT      O48298   1.096   6.241   6.534
16019WAT     H148299   1.024   6.310   6.550
16019WAT     H248300   1.185   6.281   6.556
16020WAT      O48301   0.854   7.811   5.439
16020WAT     H148302   0.789   7.858   5.499
16020WAT     H248303   0.916   7.879   5.399
16021WAT      O48304   3.796   2.012   7.702
16021WAT     H148305   3.734   2.018   7.780
16021WAT     H248306   3.888   1.990   7.734
16022WAT      O48307   1.876   7.202   3.673
16022WAT     H148308   1.945   7.132   3.657
16022WAT     H248309   1.920   7.292   3.677
16023WAT      O48310   0.810   0.261   0.208
16023WAT     H148311   0.745   0.217   0.147
16023WAT     H248312   0.897   0.212   0.205
16024WAT      O48313   2.330   1.678   2.232
16024WAT     H148314   2.322   1.685   2.331
16024WAT     H248315   2.408   1.620   2.209
16025WAT      O48316   1.028   8.185   7.179
16025WAT     H148317   1.072   8.096   7.166
16025WAT     H248318   1.050   8.244   7.101
16026WAT      O48319   3.604   2.496   4.210
16026WAT     H148320   3.573   2.401   4.201
16026WAT     H248321   3.529   2.553   4.245
16027WAT      O48322   0.329   5.021   7.834
16027WAT     H148323   0.291   5.075   7.759
16027WAT     H248324   0.428   5.027   7.834
16028WAT      O48325   8.683   7.140   2.748
16028WAT     H148326   8.656   7.236   2.752
16028WAT     H248327   8.602   7.083   2.735
16029WAT      O48328   6.990   6.390   5.569
16029WAT     H148329   6.945   6.312   5.526
16029WAT     H248330   7.080   6.404   5.529
16030WAT      O48331   2.313   0.240   2.695
16030WAT     H148332   2.233   0.208   2.645
16030WAT     H248333   2.287   0.263   2.789
16031WAT      O48334   4.182   0.822   4.411
16031WAT     H148335   4.167   0.811   4.509
16031WAT     H248336   4.179   0.733   4.366
16032WAT      O48337   6.220   3.978   9.609
16032WAT     H148338   6.274   3.911   9.558
16032WAT     H248339   6.273   4.062   9.622
16033WAT      O48340   2.493   7.801   7.346
16033WAT     H148341   2.532   7.712   7.373
16033WAT     H248342   2.567   7.869   7.343
16034WAT      O48343   2.602   0.972   1.207
16034WAT     H148344   2.590   0.874   1.188
16034WAT     H248345   2.583   1.024   1.124
16035WAT      O48346   6.299   4.347   5.564
16035WAT     H148347   6.351   4.413   5.618
16035WAT     H248348   6.350   4.261   5.559
16036WAT      O48349   7.452   0.532   8.237
16036WAT     H148350   7.469   0.485   8.324
16036WAT     H248351   7.444   0.630   8.253
16037WAT      O48352   1.768   4.462   2.100
16037WAT     H148353   1.752   4.461   2.001
16037WAT     H248354   1.863   4.489   2.117
16038WAT      O48355   0.295   1.968   7.906
16038WAT     H148356   0.225   2.030   7.870
16038WAT     H248357   0.339   1.920   7.831
16039WAT      O48358   6.173   6.355   4.281
16039WAT     H148359   6.149   6.405   4.364
16039WAT     H248360   6.220   6.417   4.217
16040WAT      O48361   3.992   7.257   5.708
16040WAT     H148362   3.956   7.172   5.669
16040WAT     H248363   3.930   7.333   5.687
16041WAT      O48364   2.654   8.711   8.661
16041WAT     H148365   2.625   8.717   8.756
16041WAT     H248366   2.668   8.803   8.624
16042WAT      O48367   1.840   2.594   7.526
16042WAT     H148368   1.791   2.637   7.602
16042WAT     H248369   1.869   2.664   7.461
16043WAT      O48370   0.527   5.301   3.754
16043WAT     H148371   0.534   5.328   3.658
16043WAT     H248372   0.616   5.268   3.785
16044WAT      O48373   3.488   8.714   8.325
16044WAT     H148374   3.449   8.773   8.395
16044WAT     H248375   3.415   8.663   8.280
16045WAT      O48376   9.439   7.047   8.260
16045WAT     H148377   9.445   7.103   8.343
16045WAT     H248378   9.348   7.004   8.255
16046WAT      O48379   7.705   0.474   3.729
16046WAT     H148380   7.615   0.433   3.738
16046WAT     H248381   7.707   0.532   3.647
16047WAT      O48382   1.530   6.803   4.569
16047WAT     H148383   1.502   6.812   4.473
16047WAT     H248384   1.518   6.891   4.615
16048WAT      O48385   1.786   5.376   8.235
16048WAT     H148386   1.885   5.385   8.232
16048WAT     H248387   1.744   5.464   8.214
16049WAT      O48388   0.444   6.443   5.147
16049WAT     H148389   0.500   6.451   5.229
16049WAT     H248390   0.476   6.365   5.092
16050WAT      O48391   3.567   9.369   2.657
16050WAT     H148392   3.477   9.410   2.638
16050WAT     H248393   3.587   9.300   2.588
16051WAT      O48394   7.327   5.301   7.642
16051WAT     H148395   7.358   5.234   7.710
16051WAT     H248396   7.364   5.278   7.553
16052WAT      O48397   0.708   2.250   8.447
16052WAT     H148398   0.681   2.284   8.537
16052WAT     H248399   0.726   2.151   8.453
16053WAT      O48400   4.222   6.606   4.351
16053WAT     H148401   4.143   6.585   4.293
16053WAT     H248402   4.284   6.529   4.353
16054WAT      O48403   8.770   9.816   5.606
16054WAT     H148404   8.706   9.758   5.658
16054WAT     H248405   8.863   9.797   5.635
16055WAT      O48406   8.968   3.304   0.849
16055WAT     H148407   9.057   3.276   0.885
16055WAT     H248408   8.954   3.401   0.867
16056WAT      O48409   4.351   5.264   5.339
16056WAT     H148410   4.253   5.261   5.358
16056WAT     H248411   4.393   5.336   5.394
16057WAT      O48412   6.253   7.668   5.514
16057WAT     H148413   6.263   7.767   5.503
16057WAT     H248414   6.180   7.635   5.454
16058WAT      O48415   6.287   1.953   2.664
16058WAT     H148416   6.210   1.931   2.723
16058WAT     H248417   6.269   1.920   2.572
16059WAT      O48418   3.248   0.143   3.962
16059WAT     H148419   3.186   0.185   4.028
16059WAT     H248420   3.206   0.147   3.871
16060WAT      O48421   0.731   6.335   0.722
16060WAT     H148422   0.638   6.368   0.707
16060WAT     H248423   0.733   6.235   0.713
16061WAT      O48424   7.345   9.045   1.760
16061WAT     H148425   7.423   8.992   1.729
16061WAT     H248426   7.275   9.047   1.688
16062WAT      O48427   9.262   7.088   2.558
16062WAT     H148428   9.179   7.122   2.604
16062WAT     H248429   9.292   7.156   2.491
16063WAT      O48430   4.087   3.773   3.374
16063WAT     H148431   4.021   3.827   3.425
16063WAT     H248432   4.171   3.764   3.428
16064WAT      O48433   4.426   1.987   2.531
16064WAT     H148434   4.495   1.927   2.489
16064WAT     H248435   4.396   2.055   2.465
16065WAT      O48436   6.554   8.514   3.759
16065WAT     H148437   6.581   8.552   3.848
16065WAT     H248438   6.584   8.419   3.753
16066WAT      O48439   4.285   9.450   5.599
16066WAT     H148440   4.198   9.417   5.563
16066WAT     H248441   4.328   9.510   5.533
16067WAT      O48442   0.361   6.712   1.175
16067WAT     H148443   0.387   6.751   1.086
16067WAT     H248444   0.362   6.785   1.244
16068WAT      O48445   6.479   4.913   4.902
16068WAT     H148446   6.506   5.004   4.871
16068WAT     H248447   6.381   4.902   4.893
16069WAT      O48448   5.226   5.650   2.883
16069WAT     H148449   5.212   5.749   2.875
16069WAT     H248450   5.309   5.625   2.833
16070WAT      O48451   0.494   5.120   2.005
16070WAT     H148452   0.435   5.194   1.972
16070WAT     H248453   0.582   5.124   1.958
16071WAT      O48454   1.160   1.172   5.001
16071WAT     H148455   1.160   1.247   4.935
16071WAT     H248456   1.104   1.097   4.967
16072WAT      O48457   7.752   9.665   4.311
16072WAT     H148458   7.763   9.723   4.391
16072WAT     H248459   7.709   9.578   4.338
16073WAT      O48460   9.454   8.442   2.839
16073WAT     H148461   9.514   8.428   2.759
16073WAT     H248462   9.428   8.538   2.845
16074WAT      O48463   1.101   1.165   8.013
16074WAT     H148464   1.061   1.251   8.046
16074WAT     H248465   1.134   1.178   7.920
16075WAT      O48466   4.173   4.013   5.410
16075WAT     H148467   4.263   3.975   5.389
16075WAT     H248468   4.154   4.089   5.348
16076WAT      O48469   4.380   4.410   1.648
16076WAT     H148470   4.456   4.464   1.610
16076WAT     H248471   4.296   4.430   1.597
16077WAT      O48472   9.146   1.791   1.494
16077WAT     H148473   9.217   1.838   1.546
16077WAT     H248474   9.128   1.702   1.535
16078WAT      O48475   8.298   4.948   5.816
16078WAT     H148476   8.372   4.882   5.832
16078WAT     H248477   8.330   5.020   5.754
16079WAT      O48478   0.137   2.760   1.473
16079WAT     H148479   0.186   2.678   1.444
16079WAT     H248480   0.051   2.767   1.424
16080WAT      O48481   5.065   2.732   1.934
16080WAT     H148482   5.087   2.792   2.011
16080WAT     H248483   4.985   2.677   1.957
16081WAT      O48484   6.860   9.673   7.734
16081WAT     H148485   6.798   9.596   7.717
16081WAT     H248486   6.821   9.733   7.803
16082WAT      O48487   9.315   2.375   1.645
16082WAT     H148488   9.383   2.347   1.713
16082WAT     H248489   9.248   2.302   1.634
16083WAT      O48490   5.723   8.294   5.897
16083WAT     H148491   5.678   8.240   5.970
16083WAT     H248492   5.669   8.287   5.813
16084WAT      O48493   1.810   6.864   4.606
16084WAT     H148494   1.716   6.831   4.609
16084WAT     H248495   1.835   6.882   4.510
16085WAT      O48496   7.892   7.061   5.965
16085WAT     H148497   7.810   7.068   6.023
16085WAT     H248498   7.966   7.018   6.017
16086WAT      O48499   6.118   9.291   0.472
16086WAT     H148500   6.049   9.221   0.494
16086WAT     H248501   6.074   9.366   0.423
16087WAT      O48502   6.258   0.076   4.261
16087WAT     H148503   6.198   0.019   4.206
16087WAT     H248504   6.267   0.166   4.219
16088WAT      O48505   0.238   0.049   6.538
16088WAT     H148506   0.245   0.148   6.556
16088WAT     H248507   0.278  -0.001   6.615
16089WAT      O48508   1.816   7.403   6.119
16089WAT     H148509   1.907   7.361   6.119
16089WAT     H248510   1.824   7.498   6.149
16090WAT      O48511   2.772   1.679   7.104
16090WAT     H148512   2.787   1.580   7.112
16090WAT     H248513   2.795   1.723   7.190
16091WAT      O48514   5.681   9.155   2.885
16091WAT     H148515   5.590   9.169   2.925
16091WAT     H248516   5.694   9.218   2.809
16092WAT      O48517   0.169   6.540   6.740
16092WAT     H148518   0.081   6.544   6.786
16092WAT     H248519   0.237   6.590   6.794
16093WAT      O48520   0.344   6.536   1.392
16093WAT     H148521   0.435   6.507   1.362
16093WAT     H248522   0.298   6.584   1.317
16094WAT      O48523   8.835   3.584   4.028
16094WAT     H148524   8.931   3.558   4.043
16094WAT     H248525   8.821   3.677   4.063
16095WAT      O48526   5.485   6.453   3.458
16095WAT     H148527   5.422   6.524   3.426
16095WAT     H248528   5.549   6.429   3.384
16096WAT      O48529   6.523   0.307   7.816
16096WAT     H148530   6.559   0.328   7.907
16096WAT     H248531   6.430   0.271   7.823
16097WAT      O48532   0.232   9.442   8.786
16097WAT     H148533   0.172   9.436   8.706
16097WAT     H248534   0.301   9.513   8.772
16098WAT      O48535   9.198   1.218   7.936
16098WAT     H148536   9.284   1.181   7.971
16098WAT     H248537   9.126   1.148   7.943
16099WAT      O48538   3.936   1.905   4.566
16099WAT     H148539   3.876   1.828   4.546
16099WAT     H248540   4.030   1.872   4.577
16100WAT      O48541   0.628   2.937   2.232
16100WAT     H148542   0.718   2.896   2.216
16100WAT     H248543   0.568   2.869   2.273
16101WAT      O48544   7.171   7.421   6.926
16101WAT     H148545   7.254   7.417   6.983
16101WAT     H248546   7.131   7.512   6.932
16102WAT      O48547   4.575   7.804   5.863
16102WAT     H148548   4.478   7.825   5.875
16102WAT     H248549   4.584   7.721   5.808
16103WAT      O48550   9.731   7.590   2.117
16103WAT     H148551   9.735   7.610   2.019
16103WAT     H248552   9.802   7.525   2.142
16104WAT      O48553   5.449   7.561   7.334
16104WAT     H148554   5.390   7.595   7.260
16104WAT     H248555   5.395   7.550   7.417
16105WAT      O48556   7.400   7.414   7.803
16105WAT     H148557   7.312   7.430   7.759
16105WAT     H248558   7.415   7.483   7.874
16106WAT      O48559   9.353   7.651   9.498
16106WAT     H148560   9.308   7.584   9.557
16106WAT     H248561   9.390   7.725   9.554
16107WAT      O48562   4.797   8.218   7.630
16107WAT     H148563   4.765   8.308   7.597
16107WAT     H248564   4.886   8.198   7.590
16108WAT      O48565   1.016   4.330   0.667
16108WAT     H148566   1.101   4.332   0.614
16108WAT     H248567   1.005   4.416   0.716
16109WAT      O48568   2.725   6.662   6.212
16109WAT     H148569   2.802   6.706   6.257
16109WAT     H248570   2.740   6.563   6.211
16110WAT      O48571   5.598   0.742   9.065
16110WAT     H148572   5.539   0.669   9.100
16110WAT     H248573   5.573   0.829   9.108
16111WAT      O48574   8.214   6.008   9.154
16111WAT     H148575   8.166   6.072   9.214
16111WAT     H248576   8.313   6.013   9.171
16112WAT      O48577   7.016   1.709   7.091
16112WAT     H148578   6.951   1.670   7.156
16112WAT     H248579   7.064   1.635   7.044
16113WAT      O48580   8.029   1.127   5.616
16113WAT     H148581   8.000   1.218   5.646
16113WAT     H248582   8.018   1.120   5.517
16114WAT      O48583   3.293   1.833   7.282
16114WAT     H148584   3.312   1.824   7.184
16114WAT     H248585   3.249   1.750   7.316
16115WAT      O48586   3.360   0.602   3.870
16115WAT     H148587   3.428   0.674   3.853
16115WAT     H248588   3.404   0.526   3.918
16116WAT      O48589   2.012   1.312   9.158
16116WAT     H148590   2.072   1.232   9.158
16116WAT     H248591   2.053   1.384   9.103
16117WAT      O48592   3.198   1.761   9.645
16117WAT     H148593   3.280   1.811   9.617
16117WAT     H248594   3.224   1.668   9.671
16118WAT      O48595   0.358   2.563   0.574
16118WAT     H148596   0.274   2.615   0.586
16118WAT     H248597   0.426   2.594   0.641
16119WAT      O48598   8.003   2.838   6.813
16119WAT     H148599   7.967   2.879   6.730
16119WAT     H248600   7.971   2.890   6.893
16120WAT      O48601   3.060   3.978   1.096
16120WAT     H148602   3.142   3.983   1.039
16120WAT     H248603   2.985   3.941   1.041
16121WAT      O48604   5.616   4.248   5.707
16121WAT     H148605   5.564   4.164   5.721
16121WAT     H248606   5.658   4.276   5.793
16122WAT      O48607   8.924   2.487   9.415
16122WAT     H148608   8.838   2.480   9.466
16122WAT     H248609   8.965   2.577   9.430
16123WAT      O48610   4.319   0.523   3.486
16123WAT     H148611   4.332   0.481   3.575
16123WAT     H248612   4.302   0.621   3.497
16124WAT      O48613   3.411   0.359   5.909
16124WAT     H148614   3.361   0.360   5.995
16124WAT     H248615   3.353   0.393   5.835
16125WAT      O48616   3.733   4.969   9.460
16125WAT     H148617   3.742   4.964   9.360
16125WAT     H248618   3.812   4.925   9.503
16126WAT      O48619   1.189   4.576   4.288
16126WAT     H148620   1.148   4.538   4.205
16126WAT     H248621   1.206   4.674   4.275
16127WAT      O48622   1.823   6.837   8.671
16127WAT     H148623   1.821   6.907   8.599
16127WAT     H248624   1.738   6.841   8.723
16128WAT      O48625   9.607   8.184   1.024
16128WAT     H148626   9.603   8.114   1.096
16128WAT     H248627   9.656   8.264   1.060
16129WAT      O48628   2.053   0.998   2.963
16129WAT     H148629   1.974   0.960   3.010
16129WAT     H248630   2.114   1.041   3.030
16130WAT      O48631   9.310   2.503   5.972
16130WAT     H148632   9.342   2.462   6.058
16130WAT     H248633   9.384   2.557   5.931
16131WAT      O48634   8.680   5.368   6.671
16131WAT     H148635   8.721   5.365   6.763
16131WAT     H248636   8.647   5.278   6.647
16132WAT      O48637   7.977   1.352   6.201
16132WAT     H148638   7.969   1.340   6.102
16132WAT     H248639   7.947   1.269   6.247
16133WAT      O48640   9.097   4.405   6.667
16133WAT     H148641   9.020   4.465   6.687
16133WAT     H248642   9.074   4.312   6.695
16134WAT      O48643   8.101   5.036   4.480
16134WAT     H148644   8.074   5.122   4.523
16134WAT     H248645   8.198   5.040   4.456
16135WAT      O48646   4.345   8.721   9.500
16135WAT     H148647   4.425   8.718   9.440
16135WAT     H248648   4.266   8.683   9.453
16136WAT      O48649   1.392   2.823   6.224
16136WAT     H148650   1.402   2.769   6.308
16136WAT     H248651   1.473   2.810   6.166
16137WAT      O48652   4.975   7.664   6.555
16137WAT     H148653   5.037   7.699   6.483
16137WAT     H248654   4.881   7.673   6.524
16138WAT      O48655   3.724   6.111   6.234
16138WAT     H148656   3.727   6.092   6.332
16138WAT     H248657   3.733   6.209   6.219
16139WAT      O48658   4.062   9.369   8.588
16139WAT     H148659   4.034   9.410   8.501
16139WAT     H248660   4.161   9.378   8.598
16140WAT      O48661   8.739   6.735   3.006
16140WAT     H148662   8.652   6.783   3.009
16140WAT     H248663   8.749   6.680   3.089
16141WAT      O48664   0.567   6.681   4.415
16141WAT     H148665   0.530   6.715   4.328
16141WAT     H248666   0.570   6.581   4.413
16142WAT      O48667   1.401   8.626   1.769
16142WAT     H148668   1.414   8.725   1.767
16142WAT     H248669   1.405   8.590   1.676
16143WAT      O48670   9.527   9.070   9.889
16143WAT     H148671   9.506   9.075   9.791
16143WAT     H248672   9.508   8.977   9.922
16144WAT      O48673   0.835   6.396   7.293
16144WAT     H148674   0.899   6.373   7.219
16144WAT     H248675   0.825   6.317   7.353
16145WAT      O48676   2.741   3.930   4.543
16145WAT     H148677   2.809   3.873   4.589
16145WAT     H248678   2.672   3.959   4.609
16146WAT      O48679   6.940   6.489   9.359
16146WAT     H148680   6.846   6.524   9.358
16146WAT     H248681   7.002   6.559   9.324
16147WAT      O48682   7.541   8.131   3.192
16147WAT     H148683   7.501   8.070   3.260
16147WAT     H248684   7.482   8.135   3.112
16148WAT      O48685   0.191   6.436   5.450
16148WAT     H148686   0.239   6.515   5.411
16148WAT     H248687   0.256   6.383   5.505
16149WAT      O48688   2.539   6.153   9.835
16149WAT     H148689   2.635   6.173   9.856
16149WAT     H248690   2.530   6.132   9.737
16150WAT      O48691   2.893   8.360   3.070
16150WAT     H148692   2.992   8.349   3.057
16150WAT     H248693   2.845   8.303   3.003
16151WAT      O48694   8.036   9.821   9.403
16151WAT     H148695   7.954   9.784   9.359
16151WAT     H248696   8.101   9.747   9.419
16152WAT      O48697   2.270   6.671   8.919
16152WAT     H148698   2.171   6.677   8.929
16152WAT     H248699   2.296   6.703   8.828
16153WAT      O48700   6.258   8.616   3.806
16153WAT     H148701   6.194   8.607   3.883
16153WAT     H248702   6.303   8.529   3.790
16154WAT      O48703   5.766   5.800   6.179
16154WAT     H148704   5.744   5.895   6.158
16154WAT     H248705   5.776   5.788   6.278
16155WAT      O48706   1.270   3.271   8.714
16155WAT     H148707   1.174   3.295   8.732
16155WAT     H248708   1.274   3.182   8.668
16156WAT      O48709   8.542   4.151   4.249
16156WAT     H148710   8.467   4.216   4.262
16156WAT     H248711   8.593   4.176   4.167
16157WAT      O48712   3.320   3.696   3.915
16157WAT     H148713   3.241   3.676   3.973
16157WAT     H248714   3.288   3.728   3.826
16158WAT      O48715   9.661   6.022   7.513
16158WAT     H148716   9.563   6.039   7.522
16158WAT     H248717   9.707   6.105   7.480
16159WAT      O48718   9.854   7.232   4.367
16159WAT     H148719   9.789   7.158   4.386
16159WAT     H248720   9.808   7.304   4.315
16160WAT      O48721   1.248   9.638   3.995
16160WAT     H148722   1.258   9.638   3.895
16160WAT     H248723   1.243   9.543   4.028
16161WAT      O48724   2.385   7.310   2.579
16161WAT     H148725   2.366   7.408   2.583
16161WAT     H248726   2.447   7.285   2.654
16162WAT      O48727   9.602   8.882   3.438
16162WAT     H148728   9.693   8.894   3.478
16162WAT     H248729   9.534   8.927   3.497
16163WAT      O48730   8.779   9.394   0.330
16163WAT     H148731   8.756   9.472   0.272
16163WAT     H248732   8.865   9.412   0.377
16164WAT      O48733   3.615   8.470   1.555
16164WAT     H148734   3.528   8.419   1.555
16164WAT     H248735   3.604   8.554   1.607
16165WAT      O48736   3.362   6.111   0.387
16165WAT     H148737   3.356   6.023   0.433
16165WAT     H248738   3.457   6.142   0.386
16166WAT      O48739   2.659   2.124   2.525
16166WAT     H148740   2.745   2.138   2.477
16166WAT     H248741   2.636   2.026   2.524
16167WAT      O48742   8.269   9.732   8.784
16167WAT     H148743   8.261   9.737   8.883
16167WAT     H248744   8.236   9.817   8.744
16168WAT      O48745   1.783   0.015   1.445
16168WAT     H148746   1.793   0.034   1.542
16168WAT     H248747   1.827  -0.072   1.423
16169WAT      O48748   9.085   1.407   2.561
16169WAT     H148749   9.026   1.331   2.535
16169WAT     H248750   9.151   1.424   2.488
16170WAT      O48751   0.276   0.047   5.132
16170WAT     H148752   0.352   0.098   5.092
16170WAT     H248753   0.308  -0.044   5.158
16171WAT      O48754   9.092   4.268   7.930
16171WAT     H148755   9.098   4.202   8.005
16171WAT     H248756   9.182   4.277   7.887
16172WAT      O48757   0.804   8.540   4.451
16172WAT     H148758   0.715   8.584   4.438
16172WAT     H248759   0.875   8.597   4.409
16173WAT      O48760   1.860   2.081   9.795
16173WAT     H148761   1.775   2.131   9.812
16173WAT     H248762   1.848   1.985   9.821
16174WAT      O48763   9.262   1.004   0.905
16174WAT     H148764   9.353   0.980   0.939
16174WAT     H248765   9.257   1.103   0.891
16175WAT      O48766   3.553   6.257   9.043
16175WAT     H148767   3.588   6.242   8.950
16175WAT     H248768   3.479   6.192   9.062
16176WAT      O48769   1.493   4.125   9.681
16176WAT     H148770   1.560   4.198   9.671
16176WAT     H248771   1.438   4.118   9.597
16177WAT      O48772   8.693   7.051   2.337
16177WAT     H148773   8.787   7.083   2.347
16177WAT     H248774   8.685   6.992   2.257
16178WAT      O48775   8.735   0.544   5.478
16178WAT     H148776   8.775   0.630   5.450
16178WAT     H248777   8.687   0.556   5.565
16179WAT      O48778   6.085   5.350   5.557
16179WAT     H148779   6.061   5.284   5.628
16179WAT     H248780   6.182   5.370   5.562
16180WAT      O48781   4.152   1.905   1.686
16180WAT     H148782   4.079   1.972   1.674
16180WAT     H248783   4.241   1.951   1.681
16181WAT      O48784   7.185   3.803   9.228
16181WAT     H148785   7.113   3.750   9.184
16181WAT     H248786   7.274   3.777   9.191
16182WAT      O48787   7.055   8.340   7.531
16182WAT     H148788   7.018   8.340   7.623
16182WAT     H248789   6.983   8.367   7.466
16183WAT      O48790   9.149   1.498   1.393
16183WAT     H148791   9.181   1.406   1.372
16183WAT     H248792   9.068   1.518   1.338
16184WAT      O48793   6.727   2.404   1.450
16184WAT     H148794   6.764   2.322   1.407
16184WAT     H248795   6.800   2.472   1.459
16185WAT      O48796   4.531   2.463   7.270
16185WAT     H148797   4.545   2.414   7.184
16185WAT     H248798   4.600   2.534   7.280
16186WAT      O48799   8.306   5.846   3.177
16186WAT     H148800   8.291   5.945   3.169
16186WAT     H248801   8.281   5.801   3.091
16187WAT      O48802   8.911   6.002   2.199
16187WAT     H148803   8.911   6.001   2.100
16187WAT     H248804   8.818   6.017   2.233
16188WAT      O48805   1.477   3.870   7.741
16188WAT     H148806   1.474   3.942   7.672
16188WAT     H248807   1.397   3.811   7.733
16189WAT      O48808   1.595   2.021   8.494
16189WAT     H148809   1.564   1.977   8.409
16189WAT     H248810   1.515   2.049   8.547
16190WAT      O48811   8.835   3.927   7.918
16190WAT     H148812   8.861   3.831   7.920
16190WAT     H248813   8.810   3.958   8.010
16191WAT      O48814   9.391   6.652   9.737
16191WAT     H148815   9.337   6.621   9.659
16191WAT     H248816   9.431   6.741   9.717
16192WAT      O48817   8.829   2.588   7.126
16192WAT     H148818   8.837   2.537   7.040
16192WAT     H248819   8.913   2.578   7.179
16193WAT      O48820   1.089   2.933   3.392
16193WAT     H148821   1.034   3.016   3.399
16193WAT     H248822   1.127   2.911   3.482
16194WAT      O48823   6.853   7.977   6.044
16194WAT     H148824   6.917   8.022   6.106
16194WAT     H248825   6.901   7.909   5.989
16195WAT      O48826   8.534   4.821   1.325
16195WAT     H148827   8.632   4.812   1.341
16195WAT     H248828   8.503   4.746   1.266
16196WAT      O48829   5.478   6.946   5.553
16196WAT     H148830   5.470   6.965   5.651
16196WAT     H248831   5.392   6.909   5.519
16197WAT      O48832   8.068   0.328   5.422
16197WAT     H148833   8.049   0.365   5.512
16197WAT     H248834   7.983   0.305   5.376
16198WAT      O48835   9.876   8.774   4.900
16198WAT     H148836   9.823   8.772   4.815
16198WAT     H248837   9.918   8.684   4.915
16199WAT      O48838   3.820   8.414   1.975
16199WAT     H148839   3.847   8.390   2.069
16199WAT     H248840   3.824   8.332   1.918
16200WAT      O48841   4.779   3.540   5.079
16200WAT     H148842   4.772   3.548   4.979
16200WAT     H248843   4.699   3.582   5.121
16201WAT      O48844   4.720   3.833   0.076
16201WAT     H148845   4.784   3.905   0.104
16201WAT     H248846   4.714   3.832  -0.024
16202WAT      O48847   7.024   1.370   5.631
16202WAT     H148848   7.021   1.281   5.677
16202WAT     H248849   6.968   1.366   5.548
16203WAT      O48850   3.261   2.320   1.394
16203WAT     H148851   3.344   2.340   1.446
16203WAT     H248852   3.247   2.391   1.325
16204WAT      O48853   8.613   9.627   4.536
16204WAT     H148854   8.606   9.581   4.448
16204WAT     H248855   8.598   9.725   4.524
16205WAT      O48856   2.059   1.590   7.377
16205WAT     H148857   2.047   1.596   7.476
16205WAT     H248858   1.978   1.628   7.332
16206WAT      O48859   7.975   4.083   6.250
16206WAT     H148860   8.065   4.041   6.235
16206WAT     H248861   7.906   4.012   6.260
16207WAT      O48862   6.789   9.711   6.370
16207WAT     H148863   6.763   9.616   6.389
16207WAT     H248864   6.882   9.728   6.403
16208WAT      O48865   4.025   6.099   2.166
16208WAT     H148866   3.990   6.013   2.129
16208WAT     H248867   4.096   6.134   2.105
16209WAT      O48868   0.579   9.655   3.290
16209WAT     H148869   0.634   9.637   3.208
16209WAT     H248870   0.626   9.722   3.347
16210WAT      O48871   8.060   0.464   2.624
16210WAT     H148872   8.154   0.457   2.657
16210WAT     H248873   8.007   0.522   2.685
16211WAT      O48874   4.413   4.066   7.805
16211WAT     H148875   4.412   4.085   7.706
16211WAT     H248876   4.452   4.145   7.853
16212WAT      O48877   5.743   0.622   3.363
16212WAT     H148878   5.646   0.630   3.341
16212WAT     H248879   5.752   0.591   3.458
16213WAT      O48880   4.238   0.606   4.846
16213WAT     H148881   4.191   0.628   4.931
16213WAT     H248882   4.333   0.580   4.867
16214WAT      O48883   5.768   4.856   9.201
16214WAT     H148884   5.756   4.914   9.282
16214WAT     H248885   5.736   4.764   9.220
16215WAT      O48886   0.952   7.239   1.725
16215WAT     H148887   1.051   7.228   1.719
16215WAT     H248888   0.924   7.236   1.821
16216WAT      O48889   0.952   4.296   5.232
16216WAT     H148890   0.915   4.275   5.322
16216WAT     H248891   0.999   4.384   5.235
16217WAT      O48892   7.480   7.665   4.390
16217WAT     H148893   7.420   7.593   4.357
16217WAT     H248894   7.553   7.625   4.445
16218WAT      O48895   5.857   7.621   4.273
16218WAT     H148896   5.783   7.613   4.207
16218WAT     H248897   5.861   7.538   4.329
16219WAT      O48898   7.154   0.943   1.106
16219WAT     H148899   7.206   0.991   1.035
16219WAT     H248900   7.161   0.845   1.091
16220WAT      O48901   4.121   0.167   5.588
16220WAT     H148902   4.029   0.132   5.606
16220WAT     H248903   4.180   0.092   5.558
16221WAT      O48904   9.328   0.816   3.626
16221WAT     H148905   9.383   0.759   3.564
16221WAT     H248906   9.358   0.800   3.720
16222WAT      O48907   1.595   6.197   8.098
16222WAT     H148908   1.672   6.138   8.073
16222WAT     H248909   1.618   6.249   8.180
16223WAT      O48910   2.297   0.638   8.533
16223WAT     H148911   2.331   0.563   8.590
16223WAT     H248912   2.367   0.665   8.467
16224WAT      O48913   7.265   1.785   4.973
16224WAT     H148914   7.183   1.749   4.929
16224WAT     H248915   7.261   1.766   5.071
16225WAT      O48916   9.357   3.794   9.399
16225WAT     H148917   9.334   3.773   9.494
16225WAT     H248918   9.350   3.893   9.384
16226WAT      O48919   3.408   8.943   5.766
16226WAT     H148920   3.481   8.988   5.818
16226WAT     H248921   3.380   8.860   5.813
16227WAT      O48922   1.885   2.020   4.015
16227WAT     H148923   1.789   2.048   4.003
16227WAT     H248924   1.893   1.921   4.006
16228WAT      O48925   7.476   6.307   7.677
16228WAT     H148926   7.441   6.362   7.601
16228WAT     H248927   7.576   6.315   7.681
16229WAT      O48928   1.010   2.747   6.522
16229WAT     H148929   0.958   2.828   6.549
16229WAT     H248930   1.102   2.751   6.563
16230WAT      O48931   8.433   4.287   5.841
16230WAT     H148932   8.501   4.214   5.850
16230WAT     H248933   8.440   4.328   5.750
16231WAT      O48934   7.832   2.439   6.663
16231WAT     H148935   7.834   2.407   6.568
16231WAT     H248936   7.781   2.374   6.718
16232WAT      O48937   2.471   5.121   5.798
16232WAT     H148938   2.416   5.177   5.737
16232WAT     H248939   2.546   5.175   5.835
16233WAT      O48940   2.884   9.268   6.819
16233WAT     H148941   2.909   9.356   6.858
16233WAT     H248942   2.796   9.275   6.772
16234WAT      O48943   8.558   6.170   8.999
16234WAT     H148944   8.625   6.191   8.927
16234WAT     H248945   8.507   6.253   9.022
16235WAT      O48946   0.579   8.382   4.642
16235WAT     H148947   0.670   8.341   4.634
16235WAT     H248948   0.513   8.311   4.665
16236WAT      O48949   2.208   0.073   8.791
16236WAT     H148950   2.256   0.045   8.875
16236WAT     H248951   2.150   0.152   8.811
16237WAT      O48952   3.765   3.784   3.217
16237WAT     H148953   3.771   3.880   3.245
16237WAT     H248954   3.854   3.740   3.232
16238WAT      O48955   9.860   8.446   5.733
16238WAT     H148956   9.942   8.486   5.693
16238WAT     H248957   9.841   8.358   5.689
16239WAT      O48958   5.797   3.102   0.768
16239WAT     H148959   5.760   3.014   0.738
16239WAT     H248960   5.828   3.095   0.862
16240WAT      O48961   4.450   3.134   8.783
16240WAT     H148962   4.410   3.045   8.803
16240WAT     H248963   4.434   3.196   8.860
16241WAT      O48964   4.222   2.946   2.635
16241WAT     H148965   4.150   2.882   2.606
16241WAT     H248966   4.185   3.039   2.635
16242WAT      O48967   8.552   9.571   9.678
16242WAT     H148968   8.523   9.487   9.724
16242WAT     H248969   8.632   9.551   9.620
16243WAT      O48970   8.619   1.938   7.727
16243WAT     H148971   8.629   1.863   7.793
16243WAT     H248972   8.685   1.927   7.653
16244WAT      O48973   2.613   9.317   6.777
16244WAT     H148974   2.618   9.392   6.844
16244WAT     H248975   2.519   9.284   6.772
16245WAT      O48976   5.863   6.923   4.858
16245WAT     H148977   5.769   6.954   4.873
16245WAT     H248978   5.925   7.000   4.871
16246WAT      O48979   6.638   4.568   6.145
16246WAT     H148980   6.579   4.640   6.108
16246WAT     H248981   6.734   4.596   6.137
16247WAT      O48982   1.075   4.322   2.956
16247WAT     H148983   1.146   4.306   2.888
16247WAT     H248984   1.098   4.274   3.041
16248WAT      O48985   1.000   3.776   3.795
16248WAT     H148986   0.903   3.767   3.818
16248WAT     H248987   1.019   3.869   3.765
16249WAT      O48988   7.300   1.318   7.367
16249WAT     H148989   7.396   1.336   7.344
16249WAT     H248990   7.257   1.269   7.292
16250WAT      O48991   9.078   8.778   8.418
16250WAT     H148992   9.018   8.755   8.341
16250WAT     H248993   9.022   8.803   8.497
16251WAT      O48994   4.078   2.209   5.250
16251WAT     H148995   4.000   2.263   5.281
16251WAT     H248996   4.113   2.154   5.327
16252WAT      O48997   0.338   5.637   3.562
16252WAT     H148998   0.418   5.652   3.620
16252WAT     H248999   0.322   5.539   3.552
16253WAT      O49000   9.460   1.154   5.675
16253WAT     H149001   9.544   1.115   5.711
16253WAT     H249002   9.443   1.243   5.717
16254WAT      O49003   6.911   0.039   4.632
16254WAT     H149004   7.011   0.038   4.639
16254WAT     H249005   6.882  -0.019   4.556
16255WAT      O49006   8.355   7.234   8.760
16255WAT     H149007   8.392   7.141   8.752
16255WAT     H249008   8.298   7.240   8.843
16256WAT      O49009   0.675   8.234   5.330
16256WAT     H149010   0.633   8.316   5.368
16256WAT     H249011   0.764   8.257   5.291
16257WAT      O49012   9.342   4.590   0.054
16257WAT     H149013   9.441   4.577   0.045
16257WAT     H249014   9.303   4.612  -0.035
16258WAT      O49015   2.093   3.662   4.194
16258WAT     H149016   2.120   3.638   4.101
16258WAT     H249017   2.129   3.753   4.217
16259WAT      O49018   5.122   1.049   0.516
16259WAT     H149019   5.046   1.062   0.453
16259WAT     H249020   5.190   1.121   0.502
16260WAT      O49021   3.922   0.300   1.188
16260WAT     H149022   3.955   0.339   1.274
16260WAT     H249023   3.911   0.374   1.121
16261WAT      O49024   6.978   5.913   3.928
16261WAT     H149025   6.909   5.842   3.940
16261WAT     H249026   7.011   5.913   3.834
16262WAT      O49027   9.442   3.013   0.483
16262WAT     H149028   9.507   3.084   0.509
16262WAT     H249029   9.353   3.034   0.523
16263WAT      O49030   8.361   6.118   6.877
16263WAT     H149031   8.394   6.102   6.784
16263WAT     H249032   8.420   6.185   6.922
16264WAT      O49033   4.117   6.367   2.554
16264WAT     H149034   4.202   6.334   2.595
16264WAT     H249035   4.138   6.423   2.473
16265WAT      O49036   5.894   3.272   1.803
16265WAT     H149037   5.947   3.321   1.872
16265WAT     H249038   5.861   3.337   1.734
16266WAT      O49039   1.397   2.798   8.329
16266WAT     H149040   1.466   2.847   8.382
16266WAT     H249041   1.406   2.700   8.345
16267WAT      O49042   6.865   2.866   1.637
16267WAT     H149043   6.841   2.928   1.711
16267WAT     H249044   6.786   2.850   1.579
16268WAT      O49045   4.562   4.233   3.497
16268WAT     H149046   4.485   4.170   3.501
16268WAT     H249047   4.546   4.299   3.423
16269WAT      O49048   8.684   2.067   2.716
16269WAT     H149049   8.717   1.999   2.650
16269WAT     H249050   8.738   2.060   2.800
16270WAT      O49051   6.083   1.143   2.096
16270WAT     H149052   6.111   1.171   2.004
16270WAT     H249053   6.130   1.200   2.164
16271WAT      O49054   4.658   7.927   5.348
16271WAT     H149055   4.665   7.944   5.250
16271WAT     H249056   4.577   7.872   5.367
16272WAT      O49057   8.907   8.013   8.435
16272WAT     H149058   8.914   7.918   8.466
16272WAT     H249059   8.886   8.014   8.337
16273WAT      O49060   0.388   1.619   9.566
16273WAT     H149061   0.396   1.679   9.646
16273WAT     H249062   0.318   1.550   9.583
16274WAT      O49063   0.536   5.142   2.509
16274WAT     H149064   0.534   5.202   2.429
16274WAT     H249065   0.469   5.068   2.496
16275WAT      O49066   9.771   6.276   1.072
16275WAT     H149067   9.685   6.316   1.041
16275WAT     H249068   9.786   6.189   1.026
16276WAT      O49069   3.474   1.788   0.900
16276WAT     H149070   3.539   1.769   0.973
16276WAT     H249071   3.524   1.813   0.817
16277WAT      O49072   8.879   5.600   8.965
16277WAT     H149073   8.851   5.672   9.028
16277WAT     H249074   8.960   5.629   8.914
16278WAT      O49075   0.502   4.171   3.642
16278WAT     H149076   0.450   4.212   3.717
16278WAT     H249077   0.595   4.209   3.641
16279WAT      O49078   1.773   7.998   8.827
16279WAT     H149079   1.739   8.052   8.750
16279WAT     H249080   1.863   7.962   8.804
16280WAT      O49081   8.506   4.328   6.705
16280WAT     H149082   8.572   4.334   6.780
16280WAT     H249083   8.554   4.309   6.620
16281WAT      O49084   0.312   4.249   4.557
16281WAT     H149085   0.410   4.229   4.549
16281WAT     H249086   0.263   4.165   4.580
16282WAT      O49087   9.536   5.967   9.252
16282WAT     H149088   9.634   5.959   9.235
16282WAT     H249089   9.501   5.879   9.284
16283WAT      O49090   7.927   6.651   7.363
16283WAT     H149091   7.873   6.575   7.398
16283WAT     H249092   7.986   6.687   7.435
16284WAT      O49093   1.087   0.102   7.575
16284WAT     H149094   1.168   0.124   7.521
16284WAT     H249095   1.025   0.045   7.521
16285WAT      O49096   4.644   2.291   1.859
16285WAT     H149097   4.662   2.193   1.859
16285WAT     H249098   4.546   2.307   1.845
16286WAT      O49099   4.591   3.999   3.177
16286WAT     H149100   4.503   4.036   3.209
16286WAT     H249101   4.576   3.942   3.096
16287WAT      O49102   1.390   3.043   5.658
16287WAT     H149103   1.465   3.030   5.723
16287WAT     H249104   1.400   2.981   5.581
16288WAT      O49105   4.657   0.398   4.714
16288WAT     H149106   4.563   0.367   4.694
16288WAT     H249107   4.716   0.318   4.723
16289WAT      O49108   0.097   6.875   8.022
16289WAT     H149109   0.064   6.852   8.114
16289WAT     H249110   0.162   6.805   7.992
16290WAT      O49111   8.058   7.564   6.068
16290WAT     H149112   8.062   7.594   5.972
16290WAT     H249113   8.045   7.644   6.127
16291WAT      O49114   4.377   0.851   7.502
16291WAT     H149115   4.312   0.847   7.427
16291WAT     H249116   4.469   0.831   7.468
16292WAT      O49117   0.649   8.375   7.813
16292WAT     H149118   0.590   8.306   7.856
16292WAT     H249119   0.621   8.466   7.843
16293WAT      O49120   4.686   5.440   6.944
16293WAT     H149121   4.708   5.447   7.041
16293WAT     H249122   4.755   5.384   6.898
16294WAT      O49123   7.297   5.181   0.225
16294WAT     H149124   7.211   5.202   0.271
16294WAT     H249125   7.369   5.167   0.294
16295WAT      O49126   3.207   0.894   9.393
16295WAT     H149127   3.120   0.871   9.351
16295WAT     H249128   3.238   0.816   9.448
16296WAT      O49129   6.111   9.254   3.769
16296WAT     H149130   6.134   9.289   3.678
16296WAT     H249131   6.084   9.158   3.762
16297WAT      O49132   4.453   2.889   1.395
16297WAT     H149133   4.440   2.917   1.300
16297WAT     H249134   4.399   2.807   1.414
16298WAT      O49135   7.965   2.009   1.195
16298WAT     H149136   7.963   2.091   1.138
16298WAT     H249137   7.932   1.930   1.143
16299WAT      O49138   4.837   1.514   6.182
16299WAT     H149139   4.877   1.499   6.273
16299WAT     H249140   4.890   1.584   6.134
16300WAT      O49141   1.465   4.594   2.276
16300WAT     H149142   1.551   4.595   2.327
16300WAT     H249143   1.401   4.531   2.321
16301WAT      O49144   5.168   0.465   5.171
16301WAT     H149145   5.215   0.416   5.098
16301WAT     H249146   5.201   0.559   5.174
16302WAT      O49147   0.659   1.190   2.301
16302WAT     H149148   0.569   1.212   2.341
16302WAT     H249149   0.647   1.161   2.207
16303WAT      O49150   2.995   6.437   9.281
16303WAT     H149151   3.052   6.409   9.358
16303WAT     H249152   3.050   6.434   9.197
16304WAT      O49153   7.167   6.045   7.333
16304WAT     H149154   7.100   5.978   7.366
16304WAT     H249155   7.120   6.128   7.305
16305WAT      O49156   8.303   1.496   9.510
16305WAT     H149157   8.396   1.521   9.536
16305WAT     H249158   8.264   1.436   9.580
16306WAT      O49159   7.001   3.685   9.098
16306WAT     H149160   7.012   3.657   9.003
16306WAT     H249161   6.956   3.611   9.149
16307WAT      O49162   5.703   9.817   5.888
16307WAT     H149163   5.745   9.750   5.950
16307WAT     H249164   5.722   9.792   5.793
16308WAT      O49165   2.027   7.376   6.711
16308WAT     H149166   1.955   7.445   6.723
16308WAT     H249167   2.054   7.340   6.800
16309WAT      O49168   9.712   9.444   6.316
16309WAT     H149169   9.744   9.363   6.266
16309WAT     H249170   9.649   9.495   6.259
16310WAT      O49171   1.547   3.102   4.257
16310WAT     H149172   1.572   3.011   4.224
16310WAT     H249173   1.628   3.145   4.299
16311WAT      O49174   3.368   9.388   1.109
16311WAT     H149175   3.451   9.378   1.162
16311WAT     H249176   3.364   9.479   1.068
16312WAT      O49177   9.033   6.967   9.785
16312WAT     H149178   9.048   7.003   9.877
16312WAT     H249179   8.949   7.005   9.748
16313WAT      O49180   5.521   2.762   5.628
16313WAT     H149181   5.586   2.686   5.623
16313WAT     H249182   5.464   2.762   5.545
16314WAT      O49183   6.512   1.634   1.194
16314WAT     H149184   6.518   1.716   1.137
16314WAT     H249185   6.419   1.624   1.229
16315WAT      O49186   0.364   2.743   3.651
16315WAT     H149187   0.346   2.729   3.553
16315WAT     H249188   0.327   2.665   3.702
16316WAT      O49189   6.005   4.842   1.269
16316WAT     H149190   6.104   4.828   1.271
16316WAT     H249191   5.960   4.761   1.307
16317WAT      O49192   1.209   8.784   1.240
16317WAT     H149193   1.275   8.791   1.314
16317WAT     H249194   1.258   8.786   1.152
16318WAT      O49195   1.091   3.437   9.189
16318WAT     H149196   1.008   3.405   9.235
16318WAT     H249197   1.137   3.359   9.146
16319WAT      O49198   4.777   3.195   4.428
16319WAT     H149199   4.684   3.183   4.462
16319WAT     H249200   4.793   3.131   4.353
16320WAT      O49201   3.476   8.273   1.342
16320WAT     H149202   3.382   8.258   1.312
16320WAT     H249203   3.498   8.210   1.417
16321WAT      O49204   5.954   8.732   9.165
16321WAT     H149205   5.855   8.719   9.167
16321WAT     H249206   5.991   8.723   9.257
16322WAT      O49207   0.147   4.626   6.037
16322WAT     H149208   0.172   4.597   6.130
16322WAT     H249209   0.050   4.652   6.035
16323WAT      O49210   0.850   0.883   0.051
16323WAT     H149211   0.836   0.786   0.031
16323WAT     H249212   0.763   0.925   0.077
16324WAT      O49213   8.294   3.870   1.388
16324WAT     H149214   8.253   3.862   1.298
16324WAT     H249215   8.372   3.808   1.395
16325WAT      O49216   0.014   1.111   9.629
16325WAT     H149217  -0.007   1.014   9.621
16325WAT     H249218   0.068   1.127   9.711
16326WAT      O49219   9.228   5.764   6.010
16326WAT     H149220   9.297   5.732   5.945
16326WAT     H249221   9.244   5.722   6.100
16327WAT      O49222   5.121   0.812   6.545
16327WAT     H149223   5.055   0.870   6.498
16327WAT     H249224   5.210   0.858   6.549
16328WAT      O49225   0.596   6.288   9.857
16328WAT     H149226   0.537   6.331   9.925
16328WAT     H249227   0.543   6.222   9.804
16329WAT      O49228   8.285   0.830   4.312
16329WAT     H149229   8.353   0.758   4.330
16329WAT     H249230   8.327   0.919   4.326
16330WAT      O49231   0.692   0.680   1.387
16330WAT     H149232   0.683   0.678   1.487
16330WAT     H249233   0.616   0.631   1.345
16331WAT      O49234   3.577   7.761   5.025
16331WAT     H149235   3.529   7.676   5.048
16331WAT     H249236   3.514   7.823   4.978
16332WAT      O49237   1.403   0.648   4.780
16332WAT     H149238   1.472   0.577   4.767
16332WAT     H249239   1.387   0.661   4.878
16333WAT      O49240   0.577   9.224   3.476
16333WAT     H149241   0.583   9.295   3.405
16333WAT     H249242   0.482   9.194   3.484
16334WAT      O49243   5.651   4.495   3.809
16334WAT     H149244   5.731   4.552   3.795
16334WAT     H249245   5.670   4.401   3.779
16335WAT      O49246   0.315   1.245   1.019
16335WAT     H149247   0.342   1.166   1.073
16335WAT     H249248   0.343   1.329   1.065
16336WAT      O49249   7.490   0.730   1.708
16336WAT     H149250   7.486   0.692   1.801
16336WAT     H249251   7.442   0.670   1.645
16337WAT      O49252   6.554   0.419   2.259
16337WAT     H149253   6.534   0.516   2.275
16337WAT     H249254   6.567   0.373   2.347
16338WAT      O49255   4.778   8.466   2.774
16338WAT     H149256   4.814   8.433   2.687
16338WAT     H249257   4.756   8.388   2.833
16339WAT      O49258   6.020   3.381   5.135
16339WAT     H149259   6.108   3.424   5.153
16339WAT     H249260   5.948   3.451   5.136
16340WAT      O49261   9.045   9.145   6.625
16340WAT     H149262   9.110   9.117   6.555
16340WAT     H249263   8.990   9.222   6.592
16341WAT      O49264   2.653   5.570   8.421
16341WAT     H149265   2.629   5.518   8.503
16341WAT     H249266   2.635   5.515   8.339
16342WAT      O49267   6.468   1.948   6.447
16342WAT     H149268   6.481   1.926   6.350
16342WAT     H249269   6.553   1.931   6.497
16343WAT      O49270   3.460   3.722   8.065
16343WAT     H149271   3.547   3.711   8.113
16343WAT     H249272   3.475   3.772   7.980
16344WAT      O49273   0.757   8.702   5.910
16344WAT     H149274   0.841   8.678   5.861
16344WAT     H249275   0.723   8.623   5.960
16345WAT      O49276   6.477   1.501   7.553
16345WAT     H149277   6.433   1.414   7.532
16345WAT     H249278   6.575   1.493   7.534
16346WAT      O49279   8.484   6.981   8.781
16346WAT     H149280   8.476   6.896   8.835
16346WAT     H249281   8.555   6.969   8.712
16347WAT      O49282   6.820   7.387   6.235
16347WAT     H149283   6.831   7.298   6.190
16347WAT     H249284   6.873   7.456   6.187
16348WAT      O49285   9.066   5.192   2.531
16348WAT     H149286   9.039   5.096   2.539
16348WAT     H249287   9.002   5.250   2.581
16349WAT      O49288   3.376   8.365   7.361
16349WAT     H149289   3.313   8.365   7.438
16349WAT     H249290   3.442   8.291   7.371
16350WAT      O49291   0.139   9.401   3.666
16350WAT     H149292   0.092   9.487   3.689
16350WAT     H249293   0.181   9.410   3.576
16351WAT      O49294   1.853   1.666   8.004
16351WAT     H149295   1.825   1.652   7.910
16351WAT     H249296   1.874   1.578   8.047
16352WAT      O49297   8.428   3.096   4.338
16352WAT     H149298   8.492   3.142   4.400
16352WAT     H249299   8.343   3.147   4.335
16353WAT      O49300   0.575   8.900   2.241
16353WAT     H149301   0.492   8.850   2.264
16353WAT     H249302   0.648   8.875   2.305
16354WAT      O49303   7.060   9.413   6.319
16354WAT     H149304   7.090   9.343   6.383
16354WAT     H249305   7.136   9.475   6.299
16355WAT      O49306   9.467   8.432   3.860
16355WAT     H149307   9.478   8.505   3.792
16355WAT     H249308   9.407   8.463   3.933
16356WAT      O49309   6.114   0.725   9.664
16356WAT     H149310   6.163   0.810   9.683
16356WAT     H249311   6.099   0.675   9.750
16357WAT      O49312   8.223   1.651   3.623
16357WAT     H149313   8.311   1.661   3.669
16357WAT     H249314   8.216   1.717   3.548
16358WAT      O49315   1.608   4.555   3.981
16358WAT     H149316   1.632   4.482   3.917
16358WAT     H249317   1.624   4.524   4.075
16359WAT      O49318   2.633   2.744   0.148
16359WAT     H149319   2.656   2.761   0.243
16359WAT     H249320   2.657   2.650   0.124
16360WAT      O49321   6.346   5.857   2.356
16360WAT     H149322   6.276   5.928   2.344
16360WAT     H249323   6.351   5.832   2.453
16361WAT      O49324   0.617   0.368   9.695
16361WAT     H149325   0.569   0.369   9.783
16361WAT     H249326   0.584   0.443   9.638
16362WAT      O49327   6.494   3.581   3.385
16362WAT     H149328   6.451   3.493   3.402
16362WAT     H249329   6.476   3.643   3.462
16363WAT      O49330   0.532   1.694   4.417
16363WAT     H149331   0.468   1.648   4.356
16363WAT     H249332   0.482   1.753   4.480
16364WAT      O49333   9.829   3.477   2.837
16364WAT     H149334   9.740   3.522   2.843
16364WAT     H249335   9.826   3.405   2.768
16365WAT      O49336   7.355   0.014   5.914
16365WAT     H149337   7.369   0.048   6.007
16365WAT     H249338   7.290  -0.062   5.916
16366WAT      O49339   6.158   0.125   4.533
16366WAT     H149340   6.113   0.044   4.570
16366WAT     H249341   6.226   0.097   4.465
16367WAT      O49342   7.728   2.600   1.607
16367WAT     H149343   7.729   2.661   1.686
16367WAT     H249344   7.798   2.630   1.542
16368WAT      O49345   3.961   9.790   6.502
16368WAT     H149346   3.948   9.715   6.567
16368WAT     H249347   3.980   9.874   6.551
16369WAT      O49348   2.654   5.592   7.310
16369WAT     H149349   2.639   5.632   7.219
16369WAT     H249350   2.751   5.600   7.334
16370WAT      O49351   6.102   2.410   8.765
16370WAT     H149352   6.196   2.393   8.794
16370WAT     H249353   6.082   2.356   8.683
16371WAT      O49354   1.300   2.394   6.991
16371WAT     H149355   1.385   2.385   7.042
16371WAT     H249356   1.260   2.484   7.009
16372WAT      O49357   6.532   0.061   5.380
16372WAT     H149358   6.438   0.042   5.352
16372WAT     H249359   6.533   0.093   5.474
16373WAT      O49360   6.130   7.438   4.581
16373WAT     H149361   6.184   7.412   4.661
16373WAT     H249362   6.041   7.474   4.611
16374WAT      O49363   7.168   5.895   4.244
16374WAT     H149364   7.147   5.813   4.192
16374WAT     H249365   7.088   5.955   4.246
16375WAT      O49366   7.511   8.304   6.639
16375WAT     H149367   7.483   8.313   6.734
16375WAT     H249368   7.438   8.261   6.586
16376WAT      O49369   1.109   6.039   7.047
16376WAT     H149370   1.047   5.966   7.019
16376WAT     H249371   1.196   6.000   7.076
16377WAT      O49372   6.826   3.842   0.328
16377WAT     H149373   6.891   3.918   0.322
16377WAT     H249374   6.756   3.863   0.397
16378WAT      O49375   5.794   9.007   7.796
16378WAT     H149376   5.884   8.991   7.838
16378WAT     H249377   5.723   8.985   7.862
16379WAT      O49378   6.927   2.293   8.050
16379WAT     H149379   6.966   2.218   7.996
16379WAT     H249380   6.967   2.380   8.019
16380WAT      O49381   0.142   7.902   5.652
16380WAT     H149382   0.171   7.955   5.572
16380WAT     H249383   0.046   7.923   5.673
16381WAT      O49384   8.875   6.614   7.140
16381WAT     H149385   8.851   6.524   7.175
16381WAT     H249386   8.975   6.622   7.135
16382WAT      O49387   1.755   8.133   9.393
16382WAT     H149388   1.656   8.151   9.394
16382WAT     H249389   1.771   8.035   9.410
16383WAT      O49390   0.236   5.725   4.857
16383WAT     H149391   0.254   5.649   4.919
16383WAT     H249392   0.322   5.764   4.826
16384WAT      O49393   5.737   7.039   3.137
16384WAT     H149394   5.687   6.997   3.061
16384WAT     H249395   5.833   7.013   3.132
16385WAT      O49396   9.613   9.477   7.803
16385WAT     H149397   9.541   9.515   7.745
16385WAT     H249398   9.657   9.552   7.854
16386WAT      O49399   9.197   3.356   4.217
16386WAT     H149400   9.107   3.314   4.208
16386WAT     H249401   9.264   3.304   4.163
16387WAT      O49402   9.609   4.401   4.277
16387WAT     H149403   9.692   4.443   4.240
16387WAT     H249404   9.626   4.372   4.371
16388WAT      O49405   6.944   7.256   5.324
16388WAT     H149406   6.938   7.158   5.341
16388WAT     H249407   7.033   7.290   5.354
16389WAT      O49408   1.213   9.756   9.117
16389WAT     H149409   1.309   9.744   9.092
16389WAT     H249410   1.157   9.690   9.069
16390WAT      O49411   8.262   9.620   6.602
16390WAT     H149412   8.227   9.672   6.680
16390WAT     H249413   8.362   9.617   6.607
16391WAT      O49414   5.535   7.339   9.373
16391WAT     H149415   5.565   7.249   9.405
16391WAT     H249416   5.441   7.355   9.402
16392WAT      O49417   7.091   3.449   2.540
16392WAT     H149418   7.038   3.472   2.622
16392WAT     H249419   7.046   3.487   2.459
16393WAT      O49420   6.162   9.789   4.922
16393WAT     H149421   6.259   9.813   4.922
16393WAT     H249422   6.151   9.696   4.958
16394WAT      O49423   4.003   1.852   5.208
16394WAT     H149424   3.940   1.928   5.192
16394WAT     H249425   4.054   1.833   5.125
16395WAT      O49426   2.286   3.973   0.387
16395WAT     H149427   2.266   3.893   0.330
16395WAT     H249428   2.309   3.943   0.479
16396WAT      O49429   9.233   4.932   8.426
16396WAT     H149430   9.247   4.833   8.428
16396WAT     H249431   9.145   4.952   8.381
16397WAT      O49432   4.337   5.389   1.206
16397WAT     H149433   4.380   5.408   1.294
16397WAT     H249434   4.259   5.450   1.192
16398WAT      O49435   8.696   8.365   9.280
16398WAT     H149436   8.708   8.439   9.214
16398WAT     H249437   8.785   8.324   9.300
16399WAT      O49438   7.448   2.650   7.654
16399WAT     H149439   7.393   2.567   7.650
16399WAT     H249440   7.544   2.626   7.666
16400WAT      O49441   3.568   0.925   4.985
16400WAT     H149442   3.474   0.897   4.964
16400WAT     H249443   3.566   1.005   5.045
16401WAT      O49444   3.636   7.127   5.711
16401WAT     H149445   3.678   7.117   5.801
16401WAT     H249446   3.591   7.041   5.686
16402WAT      O49447   0.477   6.398   0.582
16402WAT     H149448   0.474   6.495   0.556
16402WAT     H249449   0.414   6.347   0.524
16403WAT      O49450   7.270   5.284   7.285
16403WAT     H149451   7.192   5.341   7.259
16403WAT     H249452   7.354   5.337   7.276
16404WAT      O49453   1.550   1.901   7.133
16404WAT     H149454   1.576   1.935   7.223
16404WAT     H249455   1.480   1.960   7.093
16405WAT      O49456   9.866   2.048   1.075
16405WAT     H149457   9.810   2.097   1.008
16405WAT     H249458   9.878   1.953   1.044
16406WAT      O49459   4.075   5.593   0.120
16406WAT     H149460   3.980   5.583   0.089
16406WAT     H249461   4.136   5.550   0.055
16407WAT      O49462   0.936   2.745   1.357
16407WAT     H149463   0.878   2.736   1.438
16407WAT     H249464   0.918   2.833   1.312
16408WAT      O49465   5.383   1.666   1.111
16408WAT     H149466   5.348   1.609   1.037
16408WAT     H249467   5.456   1.618   1.159
16409WAT      O49468   3.688   8.937   9.515
16409WAT     H149469   3.734   8.855   9.547
16409WAT     H249470   3.725   9.017   9.562
16410WAT      O49471   1.941   8.486   0.727
16410WAT     H149472   1.885   8.409   0.698
16410WAT     H249473   1.921   8.566   0.671
16411WAT      O49474   0.861   0.855   1.269
16411WAT     H149475   0.840   0.926   1.335
16411WAT     H249476   0.795   0.780   1.278
16412WAT      O49477   6.677   8.506   5.154
16412WAT     H149478   6.670   8.412   5.120
16412WAT     H249479   6.585   8.542   5.169
16413WAT      O49480   3.686   0.073   7.663
16413WAT     H149481   3.650   0.163   7.685
16413WAT     H249482   3.620   0.003   7.691
16414WAT      O49483   0.472   2.962   0.177
16414WAT     H149484   0.534   3.040   0.167
16414WAT     H249485   0.518   2.888   0.226
16415WAT      O49486   8.071   3.478   4.309
16415WAT     H149487   8.103   3.572   4.304
16415WAT     H249488   7.991   3.472   4.368
16416WAT      O49489   4.727   2.633   9.579
16416WAT     H149490   4.738   2.554   9.639
16416WAT     H249491   4.814   2.654   9.535
16417WAT      O49492   2.997   6.737   7.023
16417WAT     H149493   3.014   6.833   7.002
16417WAT     H249494   3.000   6.724   7.122
16418WAT      O49495   2.998   4.953   0.072
16418WAT     H149496   2.998   4.862   0.032
16418WAT     H249497   3.007   5.021  -0.001
16419WAT      O49498   8.635   2.791   6.280
16419WAT     H149499   8.598   2.701   6.303
16419WAT     H249500   8.598   2.820   6.192
16420WAT      O49501   3.064   4.224   5.400
16420WAT     H149502   3.014   4.254   5.481
16420WAT     H249503   3.054   4.293   5.328
16421WAT      O49504   7.154   0.716   5.132
16421WAT     H149505   7.172   0.812   5.156
16421WAT     H249506   7.152   0.707   5.032
16422WAT      O49507   5.616   7.936   6.337
16422WAT     H149508   5.544   7.962   6.273
16422WAT     H249509   5.673   8.015   6.357
16423WAT      O49510   5.074   0.296   7.512
16423WAT     H149511   5.064   0.202   7.544
16423WAT     H249512   5.060   0.359   7.587
16424WAT      O49513   0.472   5.396   7.412
16424WAT     H149514   0.466   5.331   7.336
16424WAT     H249515   0.529   5.473   7.385
16425WAT      O49516   2.876   6.184   5.430
16425WAT     H149517   2.904   6.274   5.463
16425WAT     H249518   2.923   6.163   5.345
16426WAT      O49519   6.851   7.285   3.534
16426WAT     H149520   6.856   7.188   3.557
16426WAT     H249521   6.768   7.325   3.572
16427WAT      O49522   2.385   8.337   7.972
16427WAT     H149523   2.297   8.379   7.951
16427WAT     H249524   2.372   8.259   8.032
16428WAT      O49525   9.858   9.084   9.102
16428WAT     H149526   9.845   9.127   9.192
16428WAT     H249527   9.882   9.153   9.035
16429WAT      O49528   4.261   2.133   7.304
16429WAT     H149529   4.357   2.157   7.288
16429WAT     H249530   4.227   2.078   7.228
16430WAT      O49531   8.057   4.807   4.631
16430WAT     H149532   8.026   4.744   4.559
16430WAT     H249533   8.074   4.897   4.592
16431WAT      O49534   2.822   1.748   9.100
16431WAT     H149535   2.832   1.795   9.187
16431WAT     H249536   2.726   1.724   9.086
16432WAT      O49537   6.591   7.426   4.564
16432WAT     H149538   6.561   7.521   4.568
16432WAT     H249539   6.568   7.380   4.649
16433WAT      O49540   4.132   3.664   5.993
16433WAT     H149541   4.211   3.712   6.031
16433WAT     H249542   4.106   3.706   5.907
16434WAT      O49543   2.350   2.848   1.271
16434WAT     H149544   2.409   2.882   1.198
16434WAT     H249545   2.401   2.782   1.327
16435WAT      O49546   8.568   6.006   5.821
16435WAT     H149547   8.519   6.029   5.905
16435WAT     H249548   8.519   6.043   5.743
16436WAT      O49549   4.417   7.274   0.393
16436WAT     H149550   4.321   7.289   0.372
16436WAT     H249551   4.463   7.362   0.408
16437WAT      O49552   7.086   0.769   6.887
16437WAT     H149553   7.060   0.853   6.839
16437WAT     H249554   7.137   0.793   6.970
16438WAT      O49555   3.975   0.212   6.695
16438WAT     H149556   3.953   0.200   6.791
16438WAT     H249557   4.073   0.228   6.685
16439WAT      O49558   8.733   6.783   7.722
16439WAT     H149559   8.768   6.847   7.654
16439WAT     H249560   8.751   6.689   7.692
16440WAT      O49561   8.317   6.327   5.917
16440WAT     H149562   8.386   6.390   5.880
16440WAT     H249563   8.265   6.287   5.842
16441WAT      O49564   5.851   7.549   8.839
16441WAT     H149565   5.943   7.577   8.811
16441WAT     H249566   5.856   7.465   8.893
16442WAT      O49567   5.509   7.029   6.490
16442WAT     H149568   5.588   6.982   6.528
16442WAT     H249569   5.538   7.116   6.449
16443WAT      O49570   7.733   3.235   4.936
16443WAT     H149571   7.648   3.225   4.886
16443WAT     H249572   7.806   3.184   4.890
16444WAT      O49573   2.877   2.491   4.125
16444WAT     H149574   2.899   2.394   4.120
16444WAT     H249575   2.888   2.532   4.034
16445WAT      O49576   9.007   6.380   6.791
16445WAT     H149577   9.004   6.470   6.746
16445WAT     H249578   8.926   6.328   6.766
16446WAT      O49579   1.592   5.642   2.762
16446WAT     H149580   1.510   5.588   2.744
16446WAT     H249581   1.578   5.735   2.729
16447WAT      O49582   4.250   2.784   3.165
16447WAT     H149583   4.306   2.752   3.089
16447WAT     H249584   4.177   2.843   3.130
16448WAT      O49585   3.089   0.411   6.531
16448WAT     H149586   3.149   0.366   6.598
16448WAT     H249587   3.009   0.354   6.515
16449WAT      O49588   4.948   5.045   2.273
16449WAT     H149589   4.972   5.090   2.360
16449WAT     H249590   4.849   5.036   2.267
16450WAT      O49591   9.178   7.513   1.958
16450WAT     H149592   9.258   7.454   1.952
16450WAT     H249593   9.185   7.586   1.890
16451WAT      O49594   0.193   7.759   3.184
16451WAT     H149595   0.231   7.748   3.276
16451WAT     H249596   0.227   7.844   3.144
16452WAT      O49597   4.760   6.120   9.719
16452WAT     H149598   4.769   6.208   9.672
16452WAT     H249599   4.776   6.133   9.817
16453WAT      O49600   7.217   1.947   4.558
16453WAT     H149601   7.166   2.032   4.548
16453WAT     H249602   7.291   1.959   4.624
16454WAT      O49603   1.927   1.093   2.186
16454WAT     H149604   1.980   1.159   2.133
16454WAT     H249605   1.975   1.071   2.271
16455WAT      O49606   3.703   2.425   1.170
16455WAT     H149607   3.716   2.446   1.073
16455WAT     H249608   3.606   2.408   1.188
16456WAT      O49609   2.564   9.362   9.891
16456WAT     H149610   2.621   9.444   9.897
16456WAT     H249611   2.467   9.388   9.890
16457WAT      O49612   4.993   8.168   3.009
16457WAT     H149613   5.025   8.080   3.044
16457WAT     H249614   5.019   8.178   2.913
16458WAT      O49615   8.714   5.833   5.679
16458WAT     H149616   8.682   5.901   5.746
16458WAT     H249617   8.647   5.824   5.606
16459WAT      O49618   8.764   6.470   2.009
16459WAT     H149619   8.670   6.447   2.035
16459WAT     H249620   8.780   6.568   2.025
16460WAT      O49621   6.774   3.574   1.299
16460WAT     H149622   6.817   3.614   1.379
16460WAT     H249623   6.724   3.644   1.249
16461WAT      O49624   0.648   5.140   5.461
16461WAT     H149625   0.705   5.140   5.379
16461WAT     H249626   0.687   5.075   5.528
16462WAT      O49627   0.218   3.133   6.181
16462WAT     H149628   0.287   3.093   6.121
16462WAT     H249629   0.202   3.073   6.259
16463WAT      O49630   0.372   0.783   0.144
16463WAT     H149631   0.392   0.826   0.232
16463WAT     H249632   0.416   0.693   0.140
16464WAT      O49633   7.910   0.201   6.795
16464WAT     H149634   7.884   0.113   6.834
16464WAT     H249635   7.872   0.209   6.703
16465WAT      O49636   3.355   1.432   0.691
16465WAT     H149637   3.374   1.427   0.593
16465WAT     H249638   3.328   1.525   0.716
16466WAT      O49639   5.852   7.706   8.187
16466WAT     H149640   5.804   7.671   8.267
16466WAT     H249641   5.912   7.782   8.213
16467WAT      O49642   0.106   0.522   6.616
16467WAT     H149643   0.059   0.544   6.530
16467WAT     H249644   0.139   0.428   6.612
16468WAT      O49645   1.345   0.748   5.036
16468WAT     H149646   1.408   0.687   5.085
16468WAT     H249647   1.275   0.781   5.100
16469WAT      O49648   7.738   0.852   5.756
16469WAT     H149649   7.692   0.827   5.841
16469WAT     H249650   7.672   0.888   5.691
16470WAT      O49651   0.481   9.770   8.247
16470WAT     H149652   0.473   9.684   8.295
16470WAT     H249653   0.420   9.838   8.288
16471WAT      O49654   7.136   9.116   9.086
16471WAT     H149655   7.207   9.062   9.132
16471WAT     H249656   7.179   9.191   9.035
16472WAT      O49657   2.147   3.696   0.391
16472WAT     H149658   2.121   3.634   0.317
16472WAT     H249659   2.073   3.699   0.459
16473WAT      O49660   6.084   1.596   8.320
16473WAT     H149661   5.986   1.589   8.343
16473WAT     H249662   6.098   1.672   8.258
16474WAT      O49663   3.846   0.710   5.965
16474WAT     H149664   3.920   0.777   5.956
16474WAT     H249665   3.778   0.727   5.893
16475WAT      O49666   9.500   3.267   9.864
16475WAT     H149667   9.579   3.259   9.804
16475WAT     H249668   9.513   3.346   9.925
16476WAT      O49669   0.814   4.641   5.734
16476WAT     H149670   0.766   4.700   5.799
16476WAT     H249671   0.906   4.623   5.766
16477WAT      O49672   5.299   4.392   4.402
16477WAT     H149673   5.281   4.395   4.501
16477WAT     H249674   5.213   4.403   4.352
16478WAT      O49675   1.848   6.901   6.318
16478WAT     H149676   1.763   6.952   6.330
16478WAT     H249677   1.880   6.911   6.224
16479WAT      O49678   3.766   8.969   0.147
16479WAT     H149679   3.819   8.991   0.066
16479WAT     H249680   3.818   8.906   0.205
16480WAT      O49681   7.078   5.765   6.207
16480WAT     H149682   6.993   5.791   6.254
16480WAT     H249683   7.081   5.665   6.197
16481WAT      O49684   9.805   4.549   3.347
16481WAT     H149685   9.793   4.455   3.313
16481WAT     H249686   9.720   4.579   3.390
16482WAT      O49687   8.517   0.712   4.443
16482WAT     H149688   8.478   0.762   4.521
16482WAT     H249689   8.599   0.760   4.412
16483WAT      O49690   4.343   0.953   2.232
16483WAT     H149691   4.247   0.982   2.234
16483WAT     H249692   4.348   0.853   2.233
16484WAT      O49693   0.509   0.207   9.375
16484WAT     H149694   0.598   0.201   9.421
16484WAT     H249695   0.510   0.149   9.293
16485WAT      O49696   8.687   8.406   5.936
16485WAT     H149697   8.652   8.330   5.992
16485WAT     H249698   8.611   8.457   5.898
16486WAT      O49699   6.261   5.986   3.079
16486WAT     H149700   6.349   6.019   3.046
16486WAT     H249701   6.275   5.920   3.153
16487WAT      O49702   8.914   5.076   7.277
16487WAT     H149703   8.911   5.074   7.377
16487WAT     H249704   8.836   5.026   7.241
16488WAT      O49705   9.643   0.906   9.362
16488WAT     H149706   9.638   0.809   9.338
16488WAT     H249707   9.581   0.926   9.437
16489WAT      O49708   3.646   0.652   3.826
16489WAT     H149709   3.639   0.704   3.910
16489WAT     H249710   3.714   0.579   3.837
16490WAT      O49711   8.138   5.106   3.146
16490WAT     H149712   8.195   5.031   3.179
16490WAT     H249713   8.065   5.124   3.212
16491WAT      O49714   7.374   3.838   8.175
16491WAT     H149715   7.355   3.740   8.180
16491WAT     H249716   7.468   3.852   8.144
16492WAT      O49717   8.898   4.252   3.259
16492WAT     H149718   8.897   4.272   3.161
16492WAT     H249719   8.966   4.309   3.304
16493WAT      O49720   6.360   8.552   4.971
16493WAT     H149721   6.399   8.536   5.062
16493WAT     H249722   6.427   8.528   4.901
16494WAT      O49723   8.833   1.916   3.693
16494WAT     H149724   8.737   1.943   3.703
16494WAT     H249725   8.868   1.950   3.606
16495WAT      O49726   7.629   1.924   6.843
16495WAT     H149727   7.688   1.985   6.790
16495WAT     H249728   7.648   1.829   6.817
16496WAT      O49729   8.455   5.262   0.116
16496WAT     H149730   8.390   5.309   0.176
16496WAT     H249731   8.489   5.326   0.047
16497WAT      O49732   6.790   0.064   5.002
16497WAT     H149733   6.773   0.113   4.917
16497WAT     H249734   6.750   0.115   5.078
16498WAT      O49735   8.815   0.877   2.192
16498WAT     H149736   8.870   0.804   2.152
16498WAT     H249737   8.842   0.892   2.287
16499WAT      O49738   2.620   9.095   7.049
16499WAT     H149739   2.558   9.130   7.119
16499WAT     H249740   2.583   9.010   7.011
16500WAT      O49741   1.589   0.575   4.208
16500WAT     H149742   1.632   0.639   4.273
16500WAT     H249743   1.552   0.627   4.131
16501WAT      O49744   7.192   5.347   7.989
16501WAT     H149745   7.267   5.413   7.981
16501WAT     H249746   7.125   5.380   8.055
16502WAT      O49747   6.961   9.343   0.691
16502WAT     H149748   6.932   9.297   0.775
16502WAT     H249749   6.908   9.307   0.614
16503WAT      O49750   7.493   7.427   5.151
16503WAT     H149751   7.551   7.380   5.084
16503WAT     H249752   7.416   7.470   5.104
16504WAT      O49753   3.491   6.019   6.119
16504WAT     H149754   3.428   6.094   6.137
16504WAT     H249755   3.583   6.045   6.146
16505WAT      O49756   0.538   6.238   5.004
16505WAT     H149757   0.526   6.241   4.904
16505WAT     H249758   0.564   6.146   5.031
16506WAT      O49759   3.477   4.425   3.695
16506WAT     H149760   3.544   4.404   3.625
16506WAT     H249761   3.415   4.347   3.707
16507WAT      O49762   6.260   5.746   5.891
16507WAT     H149763   6.222   5.658   5.920
16507WAT     H249764   6.322   5.732   5.815
16508WAT      O49765   1.750   7.869   7.423
16508WAT     H149766   1.737   7.817   7.338
16508WAT     H249767   1.704   7.821   7.498
16509WAT      O49768   6.943   6.689   5.553
16509WAT     H149769   7.019   6.750   5.573
16509WAT     H249770   6.975   6.595   5.550
16510WAT      O49771   0.215   9.223   9.848
16510WAT     H149772   0.293   9.212   9.786
16510WAT     H249773   0.224   9.310   9.898
16511WAT      O49774   1.216   8.330   1.010
16511WAT     H149775   1.196   8.340   0.912
16511WAT     H249776   1.148   8.382   1.063
16512WAT      O49777   9.467   0.113   2.810
16512WAT     H149778   9.413   0.068   2.881
16512WAT     H249779   9.562   0.080   2.813
16513WAT      O49780   8.287   3.290   6.181
16513WAT     H149781   8.367   3.320   6.232
16513WAT     H249782   8.316   3.232   6.105
16514WAT      O49783   1.290   2.543   5.408
16514WAT     H149784   1.239   2.472   5.359
16514WAT     H249785   1.343   2.500   5.481
16515WAT      O49786   9.736   6.571   5.261
16515WAT     H149787   9.735   6.643   5.192
16515WAT     H249788   9.797   6.597   5.336
16516WAT      O49789   7.735   9.525   5.272
16516WAT     H149790   7.692   9.478   5.195
16516WAT     H249791   7.676   9.517   5.353
16517WAT      O49792   3.796   2.791   7.877
16517WAT     H149793   3.877   2.738   7.904
16517WAT     H249794   3.798   2.880   7.922
16518WAT      O49795   5.790   6.446   0.181
16518WAT     H149796   5.817   6.512   0.111
16518WAT     H249797   5.755   6.363   0.137
16519WAT      O49798   9.519   1.889   4.022
16519WAT     H149799   9.448   1.959   4.015
16519WAT     H249800   9.550   1.862   3.931
16520WAT      O49801   6.035   0.919   4.719
16520WAT     H149802   6.065   1.005   4.759
16520WAT     H249803   5.978   0.870   4.785
16521WAT      O49804   5.715   0.913   3.409
16521WAT     H149805   5.768   0.829   3.423
16521WAT     H249806   5.757   0.967   3.336
16522WAT      O49807   7.646   3.262   1.832
16522WAT     H149808   7.658   3.289   1.737
16522WAT     H249809   7.589   3.180   1.837
16523WAT      O49810   6.162   0.322   5.342
16523WAT     H149811   6.160   0.225   5.320
16523WAT     H249812   6.245   0.363   5.304
16524WAT      O49813   6.231   1.497   4.846
16524WAT     H149814   6.308   1.555   4.870
16524WAT     H249815   6.172   1.545   4.780
16525WAT      O49816   5.093   5.553   7.536
16525WAT     H149817   5.070   5.502   7.618
16525WAT     H249818   5.191   5.573   7.536
16526WAT      O49819   9.586   8.640   5.020
16526WAT     H149820   9.612   8.680   4.933
16526WAT     H249821   9.486   8.636   5.026
16527WAT      O49822   2.196   0.713   0.053
16527WAT     H149823   2.227   0.724   0.148
16527WAT     H249824   2.100   0.686   0.052
16528WAT      O49825   6.396   3.004   7.839
16528WAT     H149826   6.446   3.035   7.758
16528WAT     H249827   6.347   2.919   7.817
16529WAT      O49828   4.774   2.632   4.545
16529WAT     H149829   4.683   2.634   4.586
16529WAT     H249830   4.841   2.664   4.612
16530WAT      O49831   1.443   3.515   8.756
16530WAT     H149832   1.392   3.430   8.748
16530WAT     H249833   1.383   3.587   8.791
16531WAT      O49834   2.585   0.758   5.628
16531WAT     H149835   2.581   0.662   5.658
16531WAT     H249836   2.643   0.765   5.547
16532WAT      O49837   1.739   3.448   2.917
16532WAT     H149838   1.654   3.402   2.892
16532WAT     H249839   1.721   3.512   2.992
16533WAT      O49840   7.403   6.990   0.739
16533WAT     H149841   7.378   6.956   0.830
16533WAT     H249842   7.503   6.993   0.731
16534WAT      O49843   9.801   6.047   0.031
16534WAT     H149844   9.788   6.019  -0.064
16534WAT     H249845   9.712   6.048   0.078
16535WAT      O49846   1.771   4.470   1.792
16535WAT     H149847   1.820   4.535   1.734
16535WAT     H249848   1.778   4.378   1.752
16536WAT      O49849   3.842   7.956   0.200
16536WAT     H149850   3.795   7.943   0.287
16536WAT     H249851   3.813   7.886   0.135
16537WAT      O49852   8.160   6.118   3.873
16537WAT     H149853   8.160   6.019   3.863
16537WAT     H249854   8.078   6.156   3.832
16538WAT      O49855   9.150   2.117   6.982
16538WAT     H149856   9.234   2.118   7.035
16538WAT     H249857   9.133   2.208   6.944
16539WAT      O49858   1.489   3.385   1.690
16539WAT     H149859   1.394   3.417   1.688
16539WAT     H249860   1.547   3.457   1.729
16540WAT      O49861   0.560   0.808   7.322
16540WAT     H149862   0.502   0.874   7.274
16540WAT     H249863   0.633   0.857   7.369
16541WAT      O49864   4.958   0.384   6.387
16541WAT     H149865   5.007   0.471   6.381
16541WAT     H249866   4.880   0.385   6.325
16542WAT      O49867   8.148   4.134   4.400
16542WAT     H149868   8.054   4.115   4.374
16542WAT     H249869   8.201   4.050   4.396
16543WAT      O49870   3.081   8.138   8.893
16543WAT     H149871   3.124   8.197   8.824
16543WAT     H249872   3.145   8.065   8.919
16544WAT      O49873   5.227   1.899   7.821
16544WAT     H149874   5.261   1.989   7.850
16544WAT     H249875   5.245   1.887   7.723
16545WAT      O49876   7.511   4.804   7.725
16545WAT     H149877   7.496   4.771   7.632
16545WAT     H249878   7.459   4.748   7.789
16546WAT      O49879   1.543   4.249   6.019
16546WAT     H149880   1.502   4.175   6.073
16546WAT     H249881   1.584   4.211   5.936
16547WAT      O49882   5.382   3.422   2.487
16547WAT     H149883   5.462   3.423   2.426
16547WAT     H249884   5.332   3.336   2.475
16548WAT      O49885   2.202   5.327   5.820
16548WAT     H149886   2.105   5.351   5.819
16548WAT     H249887   2.216   5.244   5.874
16549WAT      O49888   4.313   7.068   7.480
16549WAT     H149889   4.362   7.121   7.411
16549WAT     H249890   4.376   7.041   7.553
16550WAT      O49891   8.281   2.248   3.658
16550WAT     H149892   8.236   2.316   3.600
16550WAT     H249893   8.247   2.256   3.752
16551WAT      O49894   4.484   4.206   6.795
16551WAT     H149895   4.475   4.300   6.827
16551WAT     H249896   4.503   4.206   6.697
16552WAT      O49897   1.866   3.485   4.953
16552WAT     H149898   1.870   3.416   5.025
16552WAT     H249899   1.958   3.508   4.923
16553WAT      O49900   3.250   1.473   3.235
16553WAT     H149901   3.165   1.477   3.287
16553WAT     H249902   3.240   1.525   3.151
16554WAT      O49903   7.085   0.482   7.204
16554WAT     H149904   7.007   0.515   7.257
16554WAT     H249905   7.165   0.538   7.224
16555WAT      O49906   9.645   5.761   4.294
16555WAT     H149907   9.581   5.684   4.298
16555WAT     H249908   9.616   5.824   4.223
16556WAT      O49909   7.515   6.445   2.373
16556WAT     H149910   7.517   6.527   2.430
16556WAT     H249911   7.577   6.376   2.411
16557WAT      O49912   3.227   6.297   9.439
16557WAT     H149913   3.229   6.280   9.341
16557WAT     H249914   3.196   6.214   9.486
16558WAT      O49915   5.958   3.631   0.394
16558WAT     H149916   5.910   3.684   0.324
16558WAT     H249917   5.952   3.534   0.371
16559WAT      O49918   2.253   4.962   0.465
16559WAT     H149919   2.204   5.005   0.389
16559WAT     H249920   2.322   4.899   0.429
16560WAT      O49921   2.901   0.854   2.657
16560WAT     H149922   2.966   0.824   2.587
16560WAT     H249923   2.886   0.952   2.649
16561WAT      O49924   5.596   2.206   5.008
16561WAT     H149925   5.656   2.278   4.974
16561WAT     H249926   5.651   2.127   5.036
16562WAT      O49927   2.013   1.758   5.130
16562WAT     H149928   2.010   1.852   5.162
16562WAT     H249929   2.101   1.717   5.154
16563WAT      O49930   7.318   1.379   4.832
16563WAT     H149931   7.266   1.428   4.901
16563WAT     H249932   7.382   1.316   4.876
16564WAT      O49933   2.442   0.346   4.666
16564WAT     H149934   2.530   0.312   4.700
16564WAT     H249935   2.441   0.341   4.566
16565WAT      O49936   8.392   9.200   8.162
16565WAT     H149937   8.454   9.126   8.191
16565WAT     H249938   8.425   9.287   8.199
16566WAT      O49939   9.853   7.845   6.183
16566WAT     H149940   9.819   7.867   6.091
16566WAT     H249941   9.807   7.763   6.217
16567WAT      O49942   8.745   2.762   2.385
16567WAT     H149943   8.838   2.782   2.415
16567WAT     H249944   8.747   2.714   2.298
16568WAT      O49945   0.520   2.675   0.737
16568WAT     H149946   0.445   2.694   0.801
16568WAT     H249947   0.607   2.675   0.787
16569WAT      O49948   4.929   1.138   9.176
16569WAT     H149949   4.851   1.198   9.156
16569WAT     H249950   4.998   1.148   9.105
16570WAT      O49951   9.030   3.595   0.458
16570WAT     H149952   9.005   3.659   0.532
16570WAT     H249953   9.041   3.646   0.373
16571WAT      O49954   2.407   3.693   7.215
16571WAT     H149955   2.447   3.660   7.129
16571WAT     H249956   2.346   3.770   7.197
16572WAT      O49957   0.319   2.520   2.434
16572WAT     H149958   0.234   2.573   2.432
16572WAT     H249959   0.307   2.439   2.491
16573WAT      O49960   0.067   1.005   2.630
16573WAT     H149961   0.026   1.096   2.636
16573WAT     H249962   0.089   0.985   2.535
16574WAT      O49963   4.560   2.854   9.675
16574WAT     H149964   4.612   2.779   9.634
16574WAT     H249965   4.511   2.820   9.756
16575WAT      O49966   1.518   8.331   7.032
16575WAT     H149967   1.518   8.255   7.096
16575WAT     H249968   1.600   8.327   6.975
16576WAT      O49969   0.804   3.508   4.025
16576WAT     H149970   0.727   3.449   4.052
16576WAT     H249971   0.824   3.573   4.099
16577WAT      O49972   7.621   4.187   1.373
16577WAT     H149973   7.522   4.176   1.371
16577WAT     H249974   7.656   4.191   1.280
16578WAT      O49975   7.236   3.909   0.948
16578WAT     H149976   7.166   3.957   0.896
16578WAT     H249977   7.227   3.930   1.045
16579WAT      O49978   7.670   9.833   8.417
16579WAT     H149979   7.652   9.839   8.515
16579WAT     H249980   7.662   9.738   8.387
16580WAT      O49981   9.575   0.555   8.783
16580WAT     H149982   9.596   0.458   8.796
16580WAT     H249983   9.519   0.567   8.701
16581WAT      O49984   4.973   7.919   8.161
16581WAT     H149985   5.022   7.914   8.073
16581WAT     H249986   4.903   7.990   8.155
16582WAT      O49987   5.892   1.765   3.080
16582WAT     H149988   5.985   1.730   3.075
16582WAT     H249989   5.828   1.695   3.048
16583WAT      O49990   3.213   7.730   3.824
16583WAT     H149991   3.126   7.743   3.872
16583WAT     H249992   3.285   7.779   3.874
16584WAT      O49993   1.289   2.474   6.144
16584WAT     H149994   1.243   2.542   6.199
16584WAT     H249995   1.232   2.450   6.065
16585WAT      O49996   0.949   6.469   1.581
16585WAT     H149997   0.991   6.470   1.671
16585WAT     H249998   0.853   6.494   1.589
16586WAT      O49999   7.699   3.737   9.832
16586WAT     H150000   7.601   3.758   9.838
16586WAT     H250001   7.739   3.741   9.924
16587WAT      O50002   4.460   2.615   0.441
16587WAT     H150003   4.498   2.669   0.516
16587WAT     H250004   4.365   2.592   0.462
16588WAT      O50005   2.920   7.211   9.168
16588WAT     H150006   3.004   7.158   9.177
16588WAT     H250007   2.922   7.288   9.232
16589WAT      O50008   1.788   7.498   3.510
16589WAT     H150009   1.832   7.485   3.599
16589WAT     H250010   1.843   7.455   3.439
16590WAT      O50011   3.047   9.587   9.888
16590WAT     H150012   2.992   9.593   9.971
16590WAT     H250013   3.077   9.678   9.860
16591WAT      O50014   4.440   7.640   9.748
16591WAT     H150015   4.511   7.650   9.679
16591WAT     H250016   4.441   7.718   9.810
16592WAT      O50017   5.206   3.281   8.795
16592WAT     H150018   5.264   3.300   8.716
16592WAT     H250019   5.261   3.280   8.879
16593WAT      O50020   6.068   3.285   9.600
16593WAT     H150021   6.042   3.335   9.682
16593WAT     H250022   6.109   3.348   9.534
16594WAT      O50023   1.284   0.432   2.841
16594WAT     H150024   1.248   0.460   2.753
16594WAT     H250025   1.322   0.511   2.889
16595WAT      O50026   0.394   5.833   2.681
16595WAT     H150027   0.388   5.746   2.730
16595WAT     H250028   0.357   5.822   2.589
16596WAT      O50029   4.545   7.359   3.222
16596WAT     H150030   4.482   7.425   3.263
16596WAT     H250031   4.578   7.394   3.134
16597WAT      O50032   3.432   2.179   9.158
16597WAT     H150033   3.474   2.089   9.147
16597WAT     H250034   3.493   2.237   9.213
16598WAT      O50035   1.372   1.010   4.934
16598WAT     H150036   1.391   0.924   4.980
16598WAT     H250037   1.288   1.050   4.970
16599WAT      O50038   2.913   8.221   2.347
16599WAT     H150039   2.823   8.197   2.310
16599WAT     H250040   2.941   8.152   2.414
16600WAT      O50041   9.777   8.778   8.005
16600WAT     H150042   9.739   8.813   8.090
16600WAT     H250043   9.870   8.813   7.992
16601WAT      O50044   9.519   0.931   0.643
16601WAT     H150045   9.425   0.905   0.623
16601WAT     H250046   9.557   0.871   0.713
16602WAT      O50047   5.266   8.125   8.459
16602WAT     H150048   5.238   8.182   8.535
16602WAT     H250049   5.225   8.158   8.374
16603WAT      O50050   1.825   2.022   8.940
16603WAT     H150051   1.747   2.081   8.964
16603WAT     H250052   1.875   2.062   8.864
16604WAT      O50053   0.918   9.079   2.378
16604WAT     H150054   0.836   9.135   2.364
16604WAT     H250055   0.979   9.125   2.443
16605WAT      O50056   5.504   0.694   5.295
16605WAT     H150057   5.593   0.724   5.330
16605WAT     H250058   5.514   0.662   5.201
16606WAT      O50059   5.615   0.855   8.053
16606WAT     H150060   5.583   0.882   8.144
16606WAT     H250061   5.668   0.771   8.060
16607WAT      O50062   7.596   1.701   0.478
16607WAT     H150063   7.689   1.674   0.502
16607WAT     H250064   7.587   1.704   0.378
16608WAT      O50065   2.032   3.503   5.515
16608WAT     H150066   2.111   3.451   5.481
16608WAT     H250067   2.038   3.597   5.482
16609WAT      O50068   5.958   0.795   7.295
16609WAT     H150069   5.862   0.768   7.284
16609WAT     H250070   5.969   0.847   7.379
16610WAT      O50071   5.553   0.972   9.240
16610WAT     H150072   5.518   1.003   9.329
16610WAT     H250073   5.652   0.979   9.239
16611WAT      O50074   0.895   4.743   7.479
16611WAT     H150075   0.927   4.719   7.570
16611WAT     H250076   0.796   4.737   7.475
16612WAT      O50077   4.551   0.222   2.650
16612WAT     H150078   4.452   0.225   2.639
16612WAT     H250079   4.592   0.302   2.607
16613WAT      O50080   8.203   7.333   8.950
16613WAT     H150081   8.212   7.412   9.010
16613WAT     H250082   8.109   7.298   8.955
16614WAT      O50083   3.111   4.881   5.610
16614WAT     H150084   3.129   4.815   5.536
16614WAT     H250085   3.090   4.970   5.571
16615WAT      O50086   5.714   8.584   0.378
16615WAT     H150087   5.702   8.490   0.345
16615WAT     H250088   5.649   8.602   0.452
16616WAT      O50089   2.354   5.794   4.218
16616WAT     H150090   2.404   5.845   4.149
16616WAT     H250091   2.256   5.799   4.199
16617WAT      O50092   7.501   1.479   0.635
16617WAT     H150093   7.533   1.550   0.573
16617WAT     H250094   7.404   1.461   0.618
16618WAT      O50095   2.965   7.709   6.347
16618WAT     H150096   2.925   7.695   6.437
16618WAT     H250097   3.054   7.664   6.343
16619WAT      O50098   0.399   5.589   5.812
16619WAT     H150099   0.377   5.499   5.775
16619WAT     H250100   0.381   5.659   5.743
16620WAT      O50101   5.154   1.685   3.436
16620WAT     H150102   5.077   1.621   3.440
16620WAT     H250103   5.208   1.667   3.353
16621WAT      O50104   8.044   3.397   8.935
16621WAT     H150105   8.066   3.481   8.884
16621WAT     H250106   8.019   3.325   8.870
16622WAT      O50107   0.551   9.500   0.637
16622WAT     H150108   0.586   9.463   0.723
16622WAT     H250109   0.461   9.461   0.618
16623WAT      O50110   3.578   7.719   7.077
16623WAT     H150111   3.502   7.772   7.114
16623WAT     H250112   3.633   7.683   7.152
16624WAT      O50113   8.858   5.889   6.264
16624WAT     H150114   8.926   5.952   6.226
16624WAT     H250115   8.891   5.795   6.254
16625WAT      O50116   5.841   0.205   9.258
16625WAT     H150117   5.847   0.290   9.204
16625WAT     H250118   5.922   0.150   9.243
16626WAT      O50119   7.754   9.288   9.001
16626WAT     H150120   7.796   9.247   8.919
16626WAT     H250121   7.732   9.384   8.982
16627WAT      O50122   6.652   0.747   0.070
16627WAT     H150123   6.723   0.693   0.023
16627WAT     H250124   6.695   0.823   0.119
16628WAT      O50125   6.748   3.564   3.584
16628WAT     H150126   6.841   3.569   3.620
16628WAT     H250127   6.750   3.579   3.485
16629WAT      O50128   3.743   8.993   2.167
16629WAT     H150129   3.721   8.907   2.121
16629WAT     H250130   3.759   9.065   2.100
16630WAT      O50131   3.513   6.807   4.136
16630WAT     H150132   3.524   6.808   4.235
16630WAT     H250133   3.570   6.735   4.097
16631WAT      O50134   1.275   3.618   0.074
16631WAT     H150135   1.224   3.533   0.060
16631WAT     H250136   1.214   3.688   0.111
16632WAT      O50137   2.362   0.855   1.612
16632WAT     H150138   2.296   0.919   1.651
16632WAT     H250139   2.439   0.906   1.574
16633WAT      O50140   0.876   2.526   7.610
16633WAT     H150141   0.844   2.501   7.518
16633WAT     H250142   0.873   2.625   7.621
16634WAT      O50143   7.038   9.462   3.408
16634WAT     H150144   6.972   9.528   3.442
16634WAT     H250145   7.003   9.420   3.324
16635WAT      O50146   1.078   8.110   9.335
16635WAT     H150147   1.014   8.148   9.269
16635WAT     H250148   1.169   8.103   9.293
16636WAT      O50149   4.925   8.408   5.075
16636WAT     H150150   4.892   8.466   5.001
16636WAT     H250151   4.849   8.354   5.112
16637WAT      O50152   7.594   8.668   0.491
16637WAT     H150153   7.660   8.735   0.456
16637WAT     H250154   7.611   8.580   0.448
16638WAT      O50155   2.042   1.840   7.680
16638WAT     H150156   2.062   1.929   7.721
16638WAT     H250157   2.033   1.850   7.581
16639WAT      O50158   7.051   8.811   2.335
16639WAT     H150159   7.060   8.896   2.283
16639WAT     H250160   6.955   8.790   2.349
16640WAT      O50161   0.682   8.879   8.002
16640WAT     H150162   0.754   8.868   8.071
16640WAT     H250163   0.702   8.959   7.946
16641WAT      O50164   9.455   1.459   8.394
16641WAT     H150165   9.500   1.544   8.418
16641WAT     H250166   9.369   1.478   8.347
16642WAT      O50167   6.349   4.743   6.277
16642WAT     H150168   6.411   4.817   6.251
16642WAT     H250169   6.391   4.687   6.349
16643WAT      O50170   1.373   6.232   4.804
16643WAT     H150171   1.277   6.230   4.832
16643WAT     H250172   1.379   6.231   4.704
16644WAT      O50173   5.741   9.518   8.777
16644WAT     H150174   5.775   9.578   8.850
16644WAT     H250175   5.787   9.429   8.783
16645WAT      O50176   1.799   9.227   2.286
16645WAT     H150177   1.754   9.310   2.319
16645WAT     H250178   1.852   9.248   2.204
16646WAT      O50179   9.631   9.813   6.617
16646WAT     H150180   9.714   9.791   6.566
16646WAT     H250181   9.602   9.733   6.670
16647WAT      O50182   7.107   8.247   6.703
16647WAT     H150183   7.134   8.336   6.741
16647WAT     H250184   7.160   8.230   6.620
16648WAT      O50185   6.702   2.272   5.418
16648WAT     H150186   6.781   2.226   5.376
16648WAT     H250187   6.719   2.282   5.516
16649WAT      O50188   8.591   5.676   1.758
16649WAT     H150189   8.531   5.754   1.741
16649WAT     H250190   8.612   5.671   1.855
16650WAT      O50191   4.798   6.271   2.192
16650WAT     H150192   4.850   6.188   2.213
16650WAT     H250193   4.825   6.343   2.256
16651WAT      O50194   6.367   6.267   5.731
16651WAT     H150195   6.354   6.232   5.638
16651WAT     H250196   6.280   6.262   5.780
16652WAT      O50197   5.712   9.269   0.166
16652WAT     H150198   5.731   9.200   0.236
16652WAT     H250199   5.634   9.239   0.111
16653WAT      O50200   0.385   5.032   6.055
16653WAT     H150201   0.318   5.074   6.115
16653WAT     H250202   0.477   5.044   6.093
16654WAT      O50203   3.981   0.674   8.022
16654WAT     H150204   3.976   0.763   7.976
16654WAT     H250205   3.895   0.656   8.068
16655WAT      O50206   4.103   2.065   6.052
16655WAT     H150207   4.049   1.983   6.068
16655WAT     H250208   4.198   2.040   6.034
16656WAT      O50209   5.539   7.170   1.038
16656WAT     H150210   5.448   7.150   1.073
16656WAT     H250211   5.586   7.084   1.015
16657WAT      O50212   2.353   0.818   9.765
16657WAT     H150213   2.289   0.796   9.839
16657WAT     H250214   2.441   0.775   9.784
16658WAT      O50215   5.543   1.871   0.451
16658WAT     H150216   5.557   1.867   0.550
16658WAT     H250217   5.568   1.962   0.418
16659WAT      O50218   5.036   5.772   8.688
16659WAT     H150219   5.009   5.720   8.607
16659WAT     H250220   5.033   5.870   8.667
16660WAT      O50221   6.871   1.240   8.617
16660WAT     H150222   6.943   1.309   8.620
16660WAT     H250223   6.783   1.285   8.598
16661WAT      O50224   7.690   1.827   8.600
16661WAT     H150225   7.723   1.820   8.694
16661WAT     H250226   7.746   1.892   8.549
16662WAT      O50227   0.326   0.989   9.309
16662WAT     H150228   0.250   1.054   9.313
16662WAT     H250229   0.380   1.006   9.227
16663WAT      O50230   0.635   7.020   1.953
16663WAT     H150231   0.696   6.959   2.004
16663WAT     H250232   0.597   7.089   2.014
16664WAT      O50233   2.061   5.974   4.284
16664WAT     H150234   2.049   6.011   4.192
16664WAT     H250235   2.126   6.030   4.335
16665WAT      O50236   5.783   0.697   5.370
16665WAT     H150237   5.829   0.609   5.382
16665WAT     H250238   5.825   0.746   5.293
16666WAT      O50239   7.751   1.298   9.450
16666WAT     H150240   7.807   1.219   9.473
16666WAT     H250241   7.799   1.354   9.383
16667WAT      O50242   8.445   2.632   7.670
16667WAT     H150243   8.459   2.699   7.597
16667WAT     H250244   8.412   2.546   7.631
16668WAT      O50245   2.107   0.745   0.758
16668WAT     H150246   2.044   0.744   0.835
16668WAT     H250247   2.091   0.826   0.702
16669WAT      O50248   4.123   2.138   4.095
16669WAT     H150249   4.201   2.123   4.034
16669WAT     H250250   4.081   2.226   4.075
16670WAT      O50251   8.215   9.190   1.277
16670WAT     H150252   8.303   9.161   1.241
16670WAT     H250253   8.217   9.288   1.296
16671WAT      O50254   2.148   0.355   5.588
16671WAT     H150255   2.162   0.316   5.497
16671WAT     H250256   2.148   0.282   5.656
16672WAT      O50257   7.329   6.958   8.572
16672WAT     H150258   7.313   7.048   8.530
16672WAT     H250259   7.325   6.888   8.501
16673WAT      O50260   5.316   5.997   7.927
16673WAT     H150261   5.288   5.958   8.015
16673WAT     H250262   5.281   6.091   7.920
16674WAT      O50263   7.204   8.629   1.863
16674WAT     H150264   7.185   8.634   1.765
16674WAT     H250265   7.222   8.534   1.889
16675WAT      O50266   5.450   5.309   0.778
16675WAT     H150267   5.386   5.350   0.712
16675WAT     H250268   5.399   5.276   0.857
16676WAT      O50269   3.067   7.975   9.793
16676WAT     H150270   3.154   7.930   9.772
16676WAT     H250271   2.993   7.927   9.745
16677WAT      O50272   6.646   2.052   9.143
16677WAT     H150273   6.582   2.126   9.164
16677WAT     H250274   6.720   2.052   9.211
16678WAT      O50275   8.987   7.844   3.317
16678WAT     H150276   8.962   7.824   3.411
16678WAT     H250277   8.968   7.940   3.297
16679WAT      O50278   2.836   9.602   2.187
16679WAT     H150279   2.797   9.690   2.160
16679WAT     H250280   2.928   9.615   2.223
16680WAT      O50281   4.545   6.318   2.270
16680WAT     H150282   4.620   6.286   2.212
16680WAT     H250283   4.581   6.347   2.358
16681WAT      O50284   9.360   7.503   6.098
16681WAT     H150285   9.430   7.526   6.030
16681WAT     H250286   9.383   7.545   6.186
16682WAT      O50287   3.786   4.026   1.886
16682WAT     H150288   3.866   4.043   1.944
16682WAT     H250289   3.798   3.939   1.838
16683WAT      O50290   8.464   4.285   9.650
16683WAT     H150291   8.490   4.356   9.585
16683WAT     H250292   8.469   4.321   9.743
16684WAT      O50293   8.140   0.690   8.312
16684WAT     H150294   8.068   0.755   8.338
16684WAT     H250295   8.157   0.696   8.214
16685WAT      O50296   8.391   7.568   5.400
16685WAT     H150297   8.490   7.566   5.386
16685WAT     H250298   8.350   7.487   5.359
16686WAT      O50299   4.747   4.575   7.858
16686WAT     H150300   4.756   4.550   7.761
16686WAT     H250301   4.834   4.559   7.904
16687WAT      O50302   6.497   3.606   9.584
16687WAT     H150303   6.455   3.667   9.517
16687WAT     H250304   6.427   3.552   9.629
16688WAT      O50305   6.032   0.153   9.855
16688WAT     H150306   5.978   0.087   9.803
16688WAT     H250307   6.129   0.131   9.846
16689WAT      O50308   3.370   1.793   5.441
16689WAT     H150309   3.411   1.815   5.352
16689WAT     H250310   3.407   1.855   5.511
16690WAT      O50311   1.350   8.128   3.039
16690WAT     H150312   1.408   8.190   2.986
16690WAT     H250313   1.265   8.175   3.063
16691WAT      O50314   3.854   4.753   8.194
16691WAT     H150315   3.831   4.718   8.285
16691WAT     H250316   3.777   4.736   8.132
16692WAT      O50317   1.582   5.597   5.710
16692WAT     H150318   1.531   5.617   5.625
16692WAT     H250319   1.662   5.656   5.715
16693WAT      O50320   5.083   4.494   7.830
16693WAT     H150321   5.085   4.488   7.929
16693WAT     H250322   5.148   4.427   7.792
16694WAT      O50323   6.117   0.132   6.692
16694WAT     H150324   6.083   0.041   6.669
16694WAT     H250325   6.099   0.195   6.616
16695WAT      O50326   3.129   7.269   7.309
16695WAT     H150327   3.081   7.303   7.390
16695WAT     H250328   3.219   7.235   7.336
16696WAT      O50329   6.875   0.063   8.225
16696WAT     H150330   6.957   0.005   8.226
16696WAT     H250331   6.794   0.005   8.213
16697WAT      O50332   3.083   6.524   0.869
16697WAT     H150333   3.112   6.431   0.892
16697WAT     H250334   3.121   6.550   0.781
16698WAT      O50335   0.556   3.590   9.029
16698WAT     H150336   0.467   3.632   9.014
16698WAT     H250337   0.543   3.498   9.067
16699WAT      O50338   8.617   5.826   7.424
16699WAT     H150339   8.588   5.732   7.406
16699WAT     H250340   8.583   5.886   7.352
16700WAT      O50341   7.890   6.042   9.211
16700WAT     H150342   7.858   6.100   9.136
16700WAT     H250343   7.913   5.951   9.174
16701WAT      O50344   1.643   8.725   5.379
16701WAT     H150345   1.700   8.770   5.448
16701WAT     H250346   1.575   8.790   5.345
16702WAT      O50347   9.407   0.040   5.262
16702WAT     H150348   9.460  -0.003   5.189
16702WAT     H250349   9.316  -0.001   5.266
16703WAT      O50350   4.965   4.492   9.053
16703WAT     H150351   4.989   4.572   9.107
16703WAT     H250352   4.932   4.521   8.963
16704WAT      O50353   1.086   3.477   9.499
16704WAT     H150354   1.026   3.427   9.437
16704WAT     H250355   1.036   3.553   9.540
16705WAT      O50356   5.159   7.174   1.413
16705WAT     H150357   5.163   7.246   1.482
16705WAT     H250358   5.220   7.198   1.337
16706WAT      O50359   8.081   3.813   7.798
16706WAT     H150360   8.078   3.903   7.754
16706WAT     H250361   8.144   3.754   7.748
16707WAT      O50362   1.154   6.535   4.912
16707WAT     H150363   1.082   6.573   4.969
16707WAT     H250364   1.219   6.485   4.969
16708WAT      O50365   3.982   7.229   8.604
16708WAT     H150366   3.943   7.221   8.695
16708WAT     H250367   3.949   7.154   8.547
16709WAT      O50368   5.611   4.881   7.986
16709WAT     H150369   5.537   4.936   7.947
16709WAT     H250370   5.585   4.784   7.986
16710WAT      O50371   3.516   3.044   0.966
16710WAT     H150372   3.477   2.962   1.007
16710WAT     H250373   3.470   3.063   0.879
16711WAT      O50374   8.761   5.576   0.874
16711WAT     H150375   8.677   5.553   0.825
16711WAT     H250376   8.743   5.650   0.938
16712WAT      O50377   4.145   9.609   2.968
16712WAT     H150378   4.163   9.573   2.876
16712WAT     H250379   4.130   9.533   3.031
16713WAT      O50380   5.410   3.237   8.325
16713WAT     H150381   5.506   3.243   8.298
16713WAT     H250382   5.384   3.140   8.331
16714WAT      O50383   1.203   8.255   0.719
16714WAT     H150384   1.262   8.192   0.668
16714WAT     H250385   1.210   8.346   0.679
16715WAT      O50386   4.953   2.066   1.540
16715WAT     H150387   5.027   2.128   1.516
16715WAT     H250388   4.980   1.972   1.520
16716WAT      O50389   1.182   3.484   8.156
16716WAT     H150390   1.237   3.442   8.228
16716WAT     H250391   1.090   3.503   8.190
16717WAT      O50392   5.311   4.052   3.601
16717WAT     H150393   5.319   4.146   3.636
16717WAT     H250394   5.370   4.042   3.520
16718WAT      O50395   8.902   6.916   5.760
16718WAT     H150396   8.953   6.853   5.818
16718WAT     H250397   8.948   7.005   5.757
16719WAT      O50398   9.249   0.073   2.617
16719WAT     H150399   9.190   0.012   2.670
16719WAT     H250400   9.322   0.108   2.675
16720WAT      O50401   3.140   9.344   9.538
16720WAT     H150402   3.142   9.280   9.462
16720WAT     H250403   3.151   9.294   9.624
16721WAT      O50404   6.493   8.791   4.442
16721WAT     H150405   6.505   8.871   4.383
16721WAT     H250406   6.487   8.821   4.538
16722WAT      O50407   1.647   3.077   3.400
16722WAT     H150408   1.707   3.153   3.375
16722WAT     H250409   1.552   3.109   3.406
16723WAT      O50410   0.115   8.945   5.405
16723WAT     H150411   0.181   8.956   5.331
16723WAT     H250412   0.053   8.869   5.384
16724WAT      O50413   3.009   1.774   4.061
16724WAT     H150414   2.969   1.687   4.033
16724WAT     H250415   3.101   1.758   4.097
16725WAT      O50416   2.899   4.204   0.458
16725WAT     H150417   2.854   4.293   0.458
16725WAT     H250418   2.997   4.215   0.444
16726WAT      O50419   1.501   3.370   5.977
16726WAT     H150420   1.416   3.358   6.028
16726WAT     H250421   1.575   3.393   6.041
16727WAT      O50422   2.923   2.912   0.101
16727WAT     H150423   2.882   2.913   0.192
16727WAT     H250424   2.858   2.874   0.035
16728WAT      O50425   0.592   3.758   4.075
16728WAT     H150426   0.514   3.810   4.040
16728WAT     H250427   0.677   3.806   4.053
16729WAT      O50428   6.036   9.683   7.491
16729WAT     H150429   6.099   9.757   7.514
16729WAT     H250430   6.022   9.625   7.572
16730WAT      O50431   1.882   0.112   2.414
16730WAT     H150432   1.805   0.083   2.471
16730WAT     H250433   1.878   0.064   2.326
16731WAT      O50434   0.292   1.460   8.904
16731WAT     H150435   0.293   1.403   8.821
16731WAT     H250436   0.346   1.543   8.888
16732WAT      O50437   5.431   9.735   5.730
16732WAT     H150438   5.417   9.827   5.693
16732WAT     H250439   5.486   9.682   5.666
16733WAT      O50440   2.783   3.935   5.386
16733WAT     H150441   2.870   3.942   5.338
16733WAT     H250442   2.768   3.840   5.415
16734WAT      O50443   0.322   0.974   9.603
16734WAT     H150444   0.264   0.952   9.524
16734WAT     H250445   0.293   0.919   9.681
16735WAT      O50446   9.798   5.805   2.348
16735WAT     H150447   9.826   5.873   2.281
16735WAT     H250448   9.778   5.850   2.435
16736WAT      O50449   4.124   0.667   8.280
16736WAT     H150450   4.193   0.726   8.238
16736WAT     H250451   4.045   0.660   8.219
16737WAT      O50452   9.209   3.082   9.548
16737WAT     H150453   9.178   3.113   9.458
16737WAT     H250454   9.302   3.115   9.564
16738WAT      O50455   1.718   0.951   0.378
16738WAT     H150456   1.698   0.927   0.282
16738WAT     H250457   1.786   1.024   0.380
16739WAT      O50458   3.208   3.077   7.639
16739WAT     H150459   3.152   3.092   7.557
16739WAT     H250460   3.305   3.076   7.613
16740WAT      O50461   1.224   6.021   2.425
16740WAT     H150462   1.183   5.991   2.510
16740WAT     H250463   1.319   5.988   2.419
16741WAT      O50464   6.991   3.378   1.038
16741WAT     H150465   6.967   3.288   1.073
16741WAT     H250466   6.910   3.422   1.000
16742WAT      O50467   2.381   0.575   1.744
16742WAT     H150468   2.454   0.515   1.710
16742WAT     H250469   2.347   0.631   1.669
16743WAT      O50470   5.375   7.277   6.695
16743WAT     H150471   5.382   7.372   6.664
16743WAT     H250472   5.461   7.250   6.737
16744WAT      O50473   4.661   5.870   8.901
16744WAT     H150474   4.655   5.785   8.849
16744WAT     H250475   4.751   5.877   8.943
16745WAT      O50476   8.339   1.615   7.787
16745WAT     H150477   8.359   1.668   7.705
16745WAT     H250478   8.334   1.677   7.866
16746WAT      O50479   4.906   9.358   8.171
16746WAT     H150480   4.940   9.342   8.264
16746WAT     H250481   4.855   9.444   8.169
16747WAT      O50482   7.962   7.281   7.155
16747WAT     H150483   8.050   7.312   7.189
16747WAT     H250484   7.962   7.283   7.055
16748WAT      O50485   1.388   5.665   1.139
16748WAT     H150486   1.446   5.665   1.220
16748WAT     H250487   1.383   5.758   1.103
16749WAT      O50488   3.135   4.923   4.732
16749WAT     H150489   3.143   5.021   4.745
16749WAT     H250490   3.171   4.898   4.642
16750WAT      O50491   0.368   3.962   3.985
16750WAT     H150492   0.373   4.023   4.064
16750WAT     H250493   0.422   4.001   3.910
16751WAT      O50494   6.027   8.949   7.905
16751WAT     H150495   6.084   8.971   7.825
16751WAT     H250496   6.058   9.002   7.984
16752WAT      O50497   0.730   6.438   9.305
16752WAT     H150498   0.813   6.491   9.323
16752WAT     H250499   0.753   6.362   9.244
16753WAT      O50500   5.709   1.851   1.073
16753WAT     H150501   5.630   1.887   1.122
16753WAT     H250502   5.715   1.752   1.087
16754WAT      O50503   9.703   7.947   3.313
16754WAT     H150504   9.698   7.851   3.338
16754WAT     H250505   9.799   7.974   3.306
16755WAT      O50506   1.660   5.084   3.011
16755WAT     H150507   1.710   5.149   2.954
16755WAT     H250508   1.561   5.095   2.996
16756WAT      O50509   0.863   7.542   1.890
16756WAT     H150510   0.931   7.579   1.953
16756WAT     H250511   0.846   7.446   1.913
16757WAT      O50512   9.009   1.778   8.827
16757WAT     H150513   8.937   1.728   8.876
16757WAT     H250514   9.074   1.713   8.787
16758WAT      O50515   1.919   2.818   7.356
16758WAT     H150516   1.844   2.836   7.419
16758WAT     H250517   1.986   2.891   7.361
16759WAT      O50518   7.870   8.961   8.121
16759WAT     H150519   7.814   9.018   8.061
16759WAT     H250520   7.928   8.901   8.066
16760WAT      O50521   0.043   0.588   7.208
16760WAT     H150522  -0.056   0.598   7.200
16760WAT     H250523   0.065   0.545   7.296
16761WAT      O50524   6.602   6.859   8.909
16761WAT     H150525   6.679   6.883   8.850
16761WAT     H250526   6.529   6.819   8.854
16762WAT      O50527   1.886   6.769   6.972
16762WAT     H150528   1.854   6.734   6.883
16762WAT     H250529   1.968   6.719   7.000
16763WAT      O50530   1.156   4.333   0.058
16763WAT     H150531   1.176   4.362   0.152
16763WAT     H250532   1.241   4.328   0.006
16764WAT      O50533   9.692   9.185   6.503
16764WAT     H150534   9.774   9.147   6.545
16764WAT     H250535   9.714   9.216   6.410
16765WAT      O50536   3.862   2.525   8.497
16765WAT     H150537   3.888   2.617   8.468
16765WAT     H250538   3.794   2.531   8.570
16766WAT      O50539   9.357   7.683   1.064
16766WAT     H150540   9.434   7.674   1.002
16766WAT     H250541   9.312   7.594   1.075
16767WAT      O50542   2.477   1.198   9.391
16767WAT     H150543   2.533   1.235   9.465
16767WAT     H250544   2.532   1.139   9.333
16768WAT      O50545   1.069   7.968   0.888
16768WAT     H150546   1.087   8.027   0.967
16768WAT     H250547   1.034   8.024   0.813
16769WAT      O50548   9.799   4.085   7.825
16769WAT     H150549   9.821   4.156   7.891
16769WAT     H250550   9.704   4.095   7.795
16770WAT      O50551   3.331   1.425   1.892
16770WAT     H150552   3.247   1.374   1.910
16770WAT     H250553   3.388   1.426   1.974
16771WAT      O50554   4.980   3.772   2.895
16771WAT     H150555   5.057   3.741   2.839
16771WAT     H250556   5.013   3.833   2.966
16772WAT      O50557   3.453   9.128   2.858
16772WAT     H150558   3.493   9.039   2.835
16772WAT     H250559   3.442   9.181   2.774
16773WAT      O50560   0.066   0.261   8.576
16773WAT     H150561   0.157   0.294   8.599
16773WAT     H250562   0.051   0.172   8.620
16774WAT      O50563   2.693   7.958   6.444
16774WAT     H150564   2.623   7.900   6.403
16774WAT     H250565   2.769   7.968   6.381
16775WAT      O50566   2.299   1.516   7.718
16775WAT     H150567   2.323   1.613   7.716
16775WAT     H250568   2.318   1.479   7.809
16776WAT      O50569   6.267   2.741   3.834
16776WAT     H150570   6.281   2.794   3.918
16776WAT     H250571   6.192   2.676   3.848
16777WAT      O50572   2.183   6.905   6.901
16777WAT     H150573   2.193   6.877   6.806
16777WAT     H250574   2.102   6.962   6.911
16778WAT      O50575   4.468   4.342   3.991
16778WAT     H150576   4.476   4.276   4.065
16778WAT     H250577   4.530   4.419   4.007
16779WAT      O50578   0.482   0.050   2.906
16779WAT     H150579   0.548   0.117   2.874
16779WAT     H250580   0.409   0.096   2.957
16780WAT      O50581   3.237   5.139   1.544
16780WAT     H150582   3.183   5.223   1.549
16780WAT     H250583   3.216   5.081   1.622
16781WAT      O50584   2.496   4.135   2.208
16781WAT     H150585   2.421   4.193   2.239
16781WAT     H250586   2.461   4.069   2.141
16782WAT      O50587   6.675   8.752   0.887
16782WAT     H150588   6.634   8.681   0.830
16782WAT     H250589   6.638   8.746   0.980
16783WAT      O50590   9.064   2.500   8.114
16783WAT     H150591   8.983   2.450   8.144
16783WAT     H250592   9.037   2.592   8.084
16784WAT      O50593   8.510   8.570   1.029
16784WAT     H150594   8.498   8.487   0.974
16784WAT     H250595   8.562   8.548   1.112
16785WAT      O50596   6.769   8.971   2.117
16785WAT     H150597   6.797   8.976   2.212
16785WAT     H250598   6.709   8.892   2.104
16786WAT      O50599   6.444   1.479   8.124
16786WAT     H150600   6.395   1.407   8.075
16786WAT     H250601   6.543   1.467   8.112
16787WAT      O50602   7.475   0.605   4.953
16787WAT     H150603   7.566   0.621   4.916
16787WAT     H250604   7.478   0.608   5.053
16788WAT      O50605   6.923   8.219   2.679
16788WAT     H150606   6.869   8.303   2.685
16788WAT     H250607   7.019   8.242   2.666
16789WAT      O50608   9.691   6.721   4.026
16789WAT     H150609   9.653   6.722   4.118
16789WAT     H250610   9.687   6.813   3.987
16790WAT      O50611   5.071   3.039   8.663
16790WAT     H150612   5.047   3.122   8.714
16790WAT     H250613   5.021   3.037   8.577
16791WAT      O50614   6.269   2.207   6.879
16791WAT     H150615   6.201   2.135   6.865
16791WAT     H250616   6.266   2.238   6.974
16792WAT      O50617   3.258   6.810   8.042
16792WAT     H150618   3.334   6.850   8.094
16792WAT     H250619   3.181   6.791   8.104
16793WAT      O50620   4.011   6.585   6.597
16793WAT     H150621   3.996   6.486   6.603
16793WAT     H250622   3.928   6.628   6.562
16794WAT      O50623   1.681   5.787   6.354
16794WAT     H150624   1.703   5.710   6.294
16794WAT     H250625   1.626   5.754   6.431
16795WAT      O50626   6.828   8.308   5.432
16795WAT     H150627   6.856   8.392   5.385
16795WAT     H250628   6.729   8.310   5.448
16796WAT      O50629   3.797   7.080   0.319
16796WAT     H150630   3.707   7.044   0.343
16796WAT     H250631   3.844   7.112   0.401
16797WAT      O50632   2.906   5.508   7.101
16797WAT     H150633   2.963   5.444   7.048
16797WAT     H250634   2.937   5.509   7.196
16798WAT      O50635   9.557   3.963   7.693
16798WAT     H150636   9.612   4.006   7.621
16798WAT     H250637   9.460   3.980   7.674
16799WAT      O50638   0.727   1.133   6.879
16799WAT     H150639   0.631   1.152   6.859
16799WAT     H250640   0.749   1.165   6.971
16800WAT      O50641   2.752   5.565   9.215
16800WAT     H150642   2.826   5.499   9.221
16800WAT     H250643   2.728   5.580   9.119
16801WAT      O50644   1.373   9.791   8.169
16801WAT     H150645   1.367   9.831   8.077
16801WAT     H250646   1.439   9.715   8.168
16802WAT      O50647   0.516   2.358   7.396
16802WAT     H150648   0.436   2.340   7.339
16802WAT     H250649   0.502   2.444   7.446
16803WAT      O50650   4.187   1.829   0.708
16803WAT     H150651   4.111   1.893   0.697
16803WAT     H250652   4.259   1.851   0.642
16804WAT      O50653   7.091   8.638   6.510
16804WAT     H150654   7.044   8.583   6.441
16804WAT     H250655   7.111   8.581   6.590
16805WAT      O50656   2.528   5.454   9.377
16805WAT     H150657   2.457   5.517   9.409
16805WAT     H250658   2.601   5.505   9.333
16806WAT      O50659   7.857   2.178   8.270
16806WAT     H150660   7.896   2.098   8.224
16806WAT     H250661   7.908   2.260   8.243
16807WAT      O50662   7.186   0.478   5.889
16807WAT     H150663   7.091   0.445   5.896
16807WAT     H250664   7.186   0.575   5.864
16808WAT      O50665   2.309   2.226   7.944
16808WAT     H150666   2.307   2.230   8.044
16808WAT     H250667   2.387   2.278   7.910
16809WAT      O50668   7.763   8.782   5.941
16809WAT     H150669   7.678   8.739   5.971
16809WAT     H250670   7.773   8.772   5.842
16810WAT      O50671   9.368   1.086   1.521
16810WAT     H150672   9.364   1.153   1.596
16810WAT     H250673   9.423   1.008   1.549
16811WAT      O50674   8.498   2.204   4.958
16811WAT     H150675   8.486   2.206   4.859
16811WAT     H250676   8.425   2.151   5.000
16812WAT      O50677   5.876   9.294   6.070
16812WAT     H150678   5.813   9.232   6.117
16812WAT     H250679   5.823   9.363   6.020
16813WAT      O50680   7.737   8.541   6.375
16813WAT     H150681   7.726   8.519   6.472
16813WAT     H250682   7.829   8.516   6.345
16814WAT      O50683   1.180   3.536   6.523
16814WAT     H150684   1.156   3.535   6.620
16814WAT     H250685   1.235   3.455   6.502
16815WAT      O50686   1.053   3.153   1.859
16815WAT     H150687   1.119   3.162   1.784
16815WAT     H250688   1.020   3.058   1.861
16816WAT      O50689   9.346   4.443   8.598
16816WAT     H150690   9.443   4.421   8.582
16816WAT     H250691   9.293   4.358   8.598
16817WAT      O50692   0.088   9.218   7.574
16817WAT     H150693  -0.000   9.173   7.590
16817WAT     H250694   0.085   9.311   7.611
16818WAT      O50695   2.119   4.667   2.418
16818WAT     H150696   2.073   4.622   2.495
16818WAT     H250697   2.099   4.617   2.334
16819WAT      O50698   3.424   1.790   2.881
16819WAT     H150699   3.512   1.801   2.836
16819WAT     H250700   3.415   1.858   2.954
16820WAT      O50701   1.179   4.517   7.967
16820WAT     H150702   1.186   4.465   8.052
16820WAT     H250703   1.262   4.504   7.913
16821WAT      O50704   6.330   0.539   2.032
16821WAT     H150705   6.385   0.456   2.034
16821WAT     H250706   6.390   0.619   2.037
16822WAT      O50707   7.101   7.172   1.765
16822WAT     H150708   7.197   7.196   1.777
16822WAT     H250709   7.090   7.120   1.680
16823WAT      O50710   9.538   7.740   8.260
16823WAT     H150711   9.530   7.840   8.263
16823WAT     H250712   9.633   7.713   8.280
16824WAT      O50713   7.082   6.673   1.776
16824WAT     H150714   7.005   6.708   1.830
16824WAT     H250715   7.085   6.721   1.688
16825WAT      O50716   0.532   7.553   6.408
16825WAT     H150717   0.513   7.460   6.439
16825WAT     H250718   0.461   7.615   6.443
16826WAT      O50719   3.755   4.183   6.446
16826WAT     H150720   3.777   4.114   6.376
16826WAT     H250721   3.835   4.241   6.461
16827WAT      O50722   5.395   4.059   5.700
16827WAT     H150723   5.315   4.029   5.753
16827WAT     H250724   5.367   4.079   5.606
16828WAT      O50725   7.673   0.002   4.103
16828WAT     H150726   7.687  -0.060   4.180
16828WAT     H250727   7.657   0.095   4.136
16829WAT      O50728   1.898   1.834   4.695
16829WAT     H150729   1.857   1.815   4.606
16829WAT     H250730   1.877   1.760   4.758
16830WAT      O50731   8.475   1.374   1.800
16830WAT     H150732   8.498   1.452   1.742
16830WAT     H250733   8.462   1.293   1.743
16831WAT      O50734   7.972   6.012   9.642
16831WAT     H150735   7.961   6.002   9.543
16831WAT     H250736   7.909   6.082   9.675
16832WAT      O50737   5.722   1.002   1.169
16832WAT     H150738   5.646   1.065   1.157
16832WAT     H250739   5.707   0.947   1.251
16833WAT      O50740   7.187   4.561   0.560
16833WAT     H150741   7.223   4.622   0.631
16833WAT     H250742   7.262   4.529   0.502
16834WAT      O50743   2.781   0.033   3.893
16834WAT     H150744   2.710  -0.036   3.879
16834WAT     H250745   2.766   0.109   3.830
16835WAT      O50746   6.189   2.962   6.539
16835WAT     H150747   6.178   2.989   6.444
16835WAT     H250748   6.219   2.866   6.543
16836WAT      O50749   1.000   2.722   4.878
16836WAT     H150750   0.982   2.634   4.835
16836WAT     H250751   1.092   2.753   4.852
16837WAT      O50752   6.675   9.765   1.432
16837WAT     H150753   6.632   9.804   1.514
16837WAT     H250754   6.770   9.743   1.452
16838WAT      O50755   4.255   9.336   1.487
16838WAT     H150756   4.264   9.431   1.517
16838WAT     H250757   4.288   9.329   1.392
16839WAT      O50758   1.338   2.760   1.514
16839WAT     H150759   1.338   2.818   1.595
16839WAT     H250760   1.431   2.726   1.497
16840WAT      O50761   7.846   0.176   8.359
16840WAT     H150762   7.827   0.206   8.265
16840WAT     H250763   7.782   0.103   8.383
16841WAT      O50764   5.964   0.338   3.590
16841WAT     H150765   5.957   0.437   3.582
16841WAT     H250766   6.054   0.308   3.557
16842WAT      O50767   7.410   5.560   4.427
16842WAT     H150768   7.382   5.596   4.338
16842WAT     H250769   7.348   5.595   4.497
16843WAT      O50770   2.446   9.840   2.485
16843WAT     H150771   2.375   9.833   2.555
16843WAT     H250772   2.404   9.865   2.397
16844WAT      O50773   2.312   7.087   0.213
16844WAT     H150774   2.343   7.011   0.154
16844WAT     H250775   2.387   7.152   0.225
16845WAT      O50776   0.047   0.457   3.776
16845WAT     H150777  -0.008   0.403   3.711
16845WAT     H250778   0.042   0.414   3.866
16846WAT      O50779   1.048   2.626   6.207
16846WAT     H150780   1.051   2.722   6.179
16846WAT     H250781   0.992   2.617   6.290
16847WAT      O50782   6.432   1.689   6.220
16847WAT     H150783   6.417   1.605   6.167
16847WAT     H250784   6.366   1.758   6.192
16848WAT      O50785   9.848   4.740   9.235
16848WAT     H150786   9.836   4.771   9.141
16848WAT     H250787   9.921   4.671   9.238
16849WAT      O50788   3.629   2.925   5.818
16849WAT     H150789   3.561   2.959   5.753
16849WAT     H250790   3.718   2.964   5.796
16850WAT      O50791   1.465   3.591   9.751
16850WAT     H150792   1.471   3.679   9.705
16850WAT     H250793   1.384   3.589   9.810
16851WAT      O50794   8.149   0.822   3.863
16851WAT     H150795   8.153   0.877   3.947
16851WAT     H250796   8.219   0.751   3.866
16852WAT      O50797   4.700   1.193   7.717
16852WAT     H150798   4.723   1.135   7.795
16852WAT     H250799   4.715   1.142   7.632
16853WAT      O50800   8.904   0.612   1.207
16853WAT     H150801   8.832   0.554   1.168
16853WAT     H250802   8.912   0.594   1.305
16854WAT      O50803   7.647   0.853   4.298
16854WAT     H150804   7.686   0.770   4.338
16854WAT     H250805   7.646   0.845   4.198
16855WAT      O50806   3.670   8.449   4.944
16855WAT     H150807   3.687   8.453   5.043
16855WAT     H250808   3.757   8.447   4.895
16856WAT      O50809   9.820   1.007   1.588
16856WAT     H150810   9.746   0.967   1.642
16856WAT     H250811   9.908   0.983   1.629
16857WAT      O50812   9.711   0.304   8.741
16857WAT     H150813   9.775   0.298   8.665
16857WAT     H250814   9.618   0.288   8.708
16858WAT      O50815   3.544   9.491   5.571
16858WAT     H150816   3.627   9.438   5.585
16858WAT     H250817   3.536   9.562   5.641
16859WAT      O50818   5.470   2.025   3.865
16859WAT     H150819   5.494   2.040   3.961
16859WAT     H250820   5.423   2.106   3.830
16860WAT      O50821   5.740   5.812   2.159
16860WAT     H150822   5.657   5.795   2.211
16860WAT     H250823   5.815   5.833   2.221
16861WAT      O50824   1.930   0.823   2.724
16861WAT     H150825   1.862   0.872   2.669
16861WAT     H250826   2.019   0.868   2.716
16862WAT      O50827   0.584   3.075   9.631
16862WAT     H150828   0.645   2.999   9.655
16862WAT     H250829   0.566   3.130   9.712
16863WAT      O50830   5.648   3.080   6.850
16863WAT     H150831   5.696   3.159   6.810
16863WAT     H250832   5.560   3.067   6.803
16864WAT      O50833   6.582   9.101   2.762
16864WAT     H150834   6.546   9.056   2.680
16864WAT     H250835   6.622   9.032   2.823
16865WAT      O50836   2.377   1.476   0.063
16865WAT     H150837   2.368   1.377   0.054
16865WAT     H250838   2.300   1.512   0.116
16866WAT      O50839   9.415   1.096   8.043
16866WAT     H150840   9.477   1.152   8.098
16866WAT     H250841   9.354   1.046   8.104
16867WAT      O50842   9.767   9.724   5.699
16867WAT     H150843   9.845   9.763   5.748
16867WAT     H250844   9.800   9.662   5.628
16868WAT      O50845   2.670   4.764   9.830
16868WAT     H150846   2.641   4.757   9.734
16868WAT     H250847   2.617   4.834   9.876
16869WAT      O50848   8.863   0.238   6.285
16869WAT     H150849   8.788   0.299   6.309
16869WAT     H250850   8.831   0.144   6.286
16870WAT      O50851   9.378   9.229   8.319
16870WAT     H150852   9.458   9.188   8.276
16870WAT     H250853   9.351   9.174   8.399
16871WAT      O50854   7.531   0.308   6.054
16871WAT     H150855   7.461   0.320   6.124
16871WAT     H250856   7.538   0.211   6.030
16872WAT      O50857   2.239   7.621   7.646
16872WAT     H150858   2.217   7.696   7.584
16872WAT     H250859   2.155   7.570   7.668
16873WAT      O50860   4.387   8.505   3.130
16873WAT     H150861   4.389   8.518   3.031
16873WAT     H250862   4.310   8.447   3.155
16874WAT      O50863   3.684   1.405   1.612
16874WAT     H150864   3.595   1.450   1.604
16874WAT     H250865   3.724   1.425   1.702
16875WAT      O50866   7.052   2.178   0.507
16875WAT     H150867   7.023   2.195   0.412
16875WAT     H250868   7.067   2.080   0.519
16876WAT      O50869   3.518   2.685   8.624
16876WAT     H150870   3.422   2.683   8.650
16876WAT     H250871   3.529   2.656   8.529
16877WAT      O50872   7.095   1.066   8.615
16877WAT     H150873   7.009   1.117   8.613
16877WAT     H250874   7.170   1.127   8.642
16878WAT      O50875   9.472   2.700   8.618
16878WAT     H150876   9.569   2.717   8.597
16878WAT     H250877   9.450   2.605   8.594
16879WAT      O50878   9.708   6.424   8.075
16879WAT     H150879   9.706   6.341   8.131
16879WAT     H250880   9.683   6.503   8.131
16880WAT      O50881   1.099   7.490   3.604
16880WAT     H150882   1.074   7.577   3.646
16880WAT     H250883   1.034   7.468   3.531
16881WAT      O50884   6.926   5.206   7.677
16881WAT     H150885   6.955   5.300   7.697
16881WAT     H250886   6.999   5.143   7.704
16882WAT      O50887   1.734   1.166   6.261
16882WAT     H150888   1.829   1.136   6.255
16882WAT     H250889   1.720   1.214   6.348
16883WAT      O50890   6.583   0.047   2.692
16883WAT     H150891   6.535   0.022   2.607
16883WAT     H250892   6.681   0.047   2.676
16884WAT      O50893   8.138   9.592   0.101
16884WAT     H150894   8.086   9.637   0.174
16884WAT     H250895   8.099   9.502   0.083
16885WAT      O50896   5.493   6.400   4.620
16885WAT     H150897   5.493   6.303   4.594
16885WAT     H250898   5.587   6.429   4.641
16886WAT      O50899   1.546   1.900   7.817
16886WAT     H150900   1.531   1.990   7.776
16886WAT     H250901   1.461   1.848   7.817
16887WAT      O50902   0.005   7.913   8.840
16887WAT     H150903   0.014   7.814   8.833
16887WAT     H250904   0.096   7.954   8.847
16888WAT      O50905   5.658   7.201   3.856
16888WAT     H150906   5.674   7.147   3.939
16888WAT     H250907   5.564   7.187   3.825
16889WAT      O50908   2.221   5.976   7.787
16889WAT     H150909   2.239   5.901   7.851
16889WAT     H250910   2.127   5.970   7.754
16890WAT      O50911   2.450   1.975   8.887
16890WAT     H150912   2.396   1.992   8.969
16890WAT     H250913   2.411   2.026   8.810
16891WAT      O50914   5.880   2.349   2.651
16891WAT     H150915   5.894   2.415   2.726
16891WAT     H250916   5.964   2.297   2.637
16892WAT      O50917   2.018   4.872   7.291
16892WAT     H150918   1.967   4.866   7.377
16892WAT     H250919   2.005   4.788   7.239
16893WAT      O50920   7.015   8.119   5.318
16893WAT     H150921   6.943   8.180   5.353
16893WAT     H250922   7.042   8.147   5.226
16894WAT      O50923   6.197   8.110   3.177
16894WAT     H150924   6.183   8.208   3.164
16894WAT     H250925   6.133   8.059   3.120
16895WAT      O50926   0.820   8.995   1.681
16895WAT     H150927   0.810   9.000   1.781
16895WAT     H250928   0.892   9.058   1.652
16896WAT      O50929   3.170   2.972   0.335
16896WAT     H150930   3.253   2.920   0.316
16896WAT     H250931   3.090   2.913   0.322
16897WAT      O50932   3.908   2.167   9.474
16897WAT     H150933   3.861   2.081   9.455
16897WAT     H250934   3.843   2.242   9.472
16898WAT      O50935   8.617   1.513   4.013
16898WAT     H150936   8.687   1.461   4.061
16898WAT     H250937   8.583   1.587   4.071
16899WAT      O50938   4.625   2.764   0.634
16899WAT     H150939   4.713   2.716   0.635
16899WAT     H250940   4.601   2.792   0.727
16900WAT      O50941   0.418   0.568   0.458
16900WAT     H150942   0.462   0.594   0.372
16900WAT     H250943   0.364   0.485   0.444
16901WAT      O50944   2.644   5.478   8.674
16901WAT     H150945   2.554   5.444   8.701
16901WAT     H250946   2.652   5.574   8.699
16902WAT      O50947   7.957   1.973   8.126
16902WAT     H150948   7.886   1.966   8.056
16902WAT     H250949   7.977   1.882   8.163
16903WAT      O50950   7.838   9.120   3.812
16903WAT     H150951   7.746   9.159   3.815
16903WAT     H250952   7.832   9.023   3.786
16904WAT      O50953   5.413   5.194   5.537
16904WAT     H150954   5.453   5.103   5.542
16904WAT     H250955   5.364   5.205   5.451
16905WAT      O50956   1.600   2.846   6.599
16905WAT     H150957   1.620   2.822   6.694
16905WAT     H250958   1.580   2.943   6.592
16906WAT      O50959   0.713   5.440   5.822
16906WAT     H150960   0.757   5.529   5.813
16906WAT     H250961   0.648   5.427   5.748
16907WAT      O50962   5.414   9.098   7.128
16907WAT     H150963   5.513   9.098   7.137
16907WAT     H250964   5.389   9.122   7.034
16908WAT      O50965   0.912   6.292   0.944
16908WAT     H150966   0.834   6.306   0.884
16908WAT     H250967   0.996   6.321   0.896
16909WAT      O50968   4.690   2.527   5.341
16909WAT     H150969   4.633   2.590   5.289
16909WAT     H250970   4.654   2.520   5.435
16910WAT      O50971   6.731   0.755   6.454
16910WAT     H150972   6.821   0.713   6.447
16910WAT     H250973   6.695   0.740   6.547
16911WAT      O50974   5.055   1.432   3.014
16911WAT     H150975   4.998   1.510   3.041
16911WAT     H250976   4.996   1.353   2.994
16912WAT      O50977   8.169   3.223   4.325
16912WAT     H150978   8.082   3.176   4.307
16912WAT     H250979   8.156   3.321   4.318
16913WAT      O50980   0.835   5.609   3.323
16913WAT     H150981   0.809   5.528   3.271
16913WAT     H250982   0.787   5.689   3.286
16914WAT      O50983   1.735   0.178   5.673
16914WAT     H150984   1.644   0.214   5.691
16914WAT     H250985   1.797   0.206   5.746
16915WAT      O50986   5.281   7.471   0.952
16915WAT     H150987   5.341   7.551   0.948
16915WAT     H250988   5.187   7.502   0.970
16916WAT      O50989   9.062   8.975   2.531
16916WAT     H150990   9.024   9.062   2.563
16916WAT     H250991   9.154   8.964   2.568
16917WAT      O50992   1.727   3.879   2.904
16917WAT     H150993   1.673   3.829   2.836
16917WAT     H250994   1.823   3.854   2.895
16918WAT      O50995   3.133   7.483   3.374
16918WAT     H150996   3.127   7.389   3.341
16918WAT     H250997   3.113   7.545   3.298
16919WAT      O50998   0.741   0.289   6.625
16919WAT     H150999   0.771   0.384   6.635
16919WAT     H251000   0.730   0.268   6.528
16920WAT      O51001   2.264   8.357   0.412
16920WAT     H151002   2.342   8.296   0.400
16920WAT     H251003   2.280   8.443   0.365
16921WAT      O51004   7.510   9.497   4.368
16921WAT     H151005   7.479   9.581   4.323
16921WAT     H251006   7.484   9.418   4.313
16922WAT      O51007   4.959   3.332   1.635
16922WAT     H151008   4.950   3.390   1.716
16922WAT     H251009   4.870   3.293   1.611
16923WAT      O51010   4.371   1.508   6.930
16923WAT     H151011   4.400   1.517   7.025
16923WAT     H251012   4.314   1.426   6.920
16924WAT      O51013   7.477   5.600   0.846
16924WAT     H151014   7.449   5.669   0.780
16924WAT     H251015   7.449   5.628   0.938
16925WAT      O51016   2.978   9.076   7.378
16925WAT     H151017   2.974   9.168   7.416
16925WAT     H251018   3.069   9.059   7.341
16926WAT      O51019   9.001   0.557   9.398
16926WAT     H151020   9.016   0.474   9.344
16926WAT     H251021   9.041   0.545   9.489
16927WAT      O51022   1.901   0.682   8.950
16927WAT     H151023   1.930   0.701   9.043
16927WAT     H251024   1.806   0.652   8.950
16928WAT      O51025   8.432   0.856   4.642
16928WAT     H151026   8.417   0.951   4.671
16928WAT     H251027   8.482   0.807   4.713
16929WAT      O51028   1.132   9.491   4.441
16929WAT     H151029   1.217   9.539   4.421
16929WAT     H251030   1.076   9.547   4.501
16930WAT      O51031   6.977   0.270   9.462
16930WAT     H151032   6.962   0.209   9.384
16930WAT     H251033   7.034   0.347   9.434
16931WAT      O51034   8.491   6.457   8.361
16931WAT     H151035   8.419   6.398   8.326
16931WAT     H251036   8.466   6.553   8.346
16932WAT      O51037   0.842   8.363   2.815
16932WAT     H151038   0.873   8.457   2.826
16932WAT     H251039   0.915   8.300   2.840
16933WAT      O51040   1.303   8.050   3.513
16933WAT     H151041   1.210   8.070   3.480
16933WAT     H251042   1.303   8.052   3.613
16934WAT      O51043   7.055   7.329   8.934
16934WAT     H151044   7.031   7.393   8.860
16934WAT     H251045   7.130   7.367   8.988
16935WAT      O51046   3.916   3.670   3.625
16935WAT     H151047   3.835   3.663   3.568
16935WAT     H251048   3.895   3.639   3.717
16936WAT      O51049   3.509   7.932   9.004
16936WAT     H151050   3.574   7.930   9.080
16936WAT     H251051   3.550   7.978   8.926
16937WAT      O51052   1.969   7.473   3.711
16937WAT     H151053   1.945   7.511   3.800
16937WAT     H251054   2.064   7.444   3.710
16938WAT      O51055   8.970   1.025   5.135
16938WAT     H151056   8.892   1.030   5.073
16938WAT     H251057   8.978   0.931   5.170
16939WAT      O51058   0.779   2.882   9.724
16939WAT     H151059   0.786   2.783   9.739
16939WAT     H251060   0.795   2.930   9.810
16940WAT      O51061   5.222   1.180   7.631
16940WAT     H151062   5.294   1.223   7.576
16940WAT     H251063   5.260   1.153   7.720
16941WAT      O51064   2.990   4.960   1.422
16941WAT     H151065   2.957   4.874   1.460
16941WAT     H251066   3.090   4.962   1.426
16942WAT      O51067   8.674   2.570   8.299
16942WAT     H151068   8.672   2.611   8.391
16942WAT     H251069   8.612   2.491   8.297
16943WAT      O51070   4.787   3.999   1.541
16943WAT     H151071   4.845   3.919   1.557
16943WAT     H251072   4.694   3.978   1.573
16944WAT      O51073   3.882   2.839   8.989
16944WAT     H151074   3.883   2.753   9.040
16944WAT     H251075   3.965   2.890   9.007
16945WAT      O51076   2.394   2.400   4.936
16945WAT     H151077   2.332   2.469   4.974
16945WAT     H251078   2.344   2.344   4.869
16946WAT      O51079   1.830   4.712   8.315
16946WAT     H151080   1.829   4.657   8.231
16946WAT     H251081   1.923   4.748   8.329
16947WAT      O51082   5.490   7.068   4.219
16947WAT     H151083   5.473   6.973   4.245
16947WAT     H251084   5.409   7.105   4.172
16948WAT      O51085   8.330   4.762   8.133
16948WAT     H151086   8.373   4.731   8.218
16948WAT     H251087   8.394   4.748   8.057
16949WAT      O51088   0.950   3.891   1.619
16949WAT     H151089   0.850   3.900   1.622
16949WAT     H251090   0.988   3.963   1.561
16950WAT      O51091   8.637   9.283   6.740
16950WAT     H151092   8.717   9.285   6.801
16950WAT     H251093   8.591   9.195   6.749
16951WAT      O51094   2.325   6.453   9.083
16951WAT     H151095   2.292   6.507   9.005
16951WAT     H251096   2.392   6.507   9.134
16952WAT      O51097   3.657   3.492   0.646
16952WAT     H151098   3.634   3.493   0.743
16952WAT     H251099   3.599   3.557   0.597
16953WAT      O51100   3.833   4.019   3.339
16953WAT     H151101   3.812   4.074   3.421
16953WAT     H251102   3.894   4.072   3.279
16954WAT      O51103   0.053   6.398   7.783
16954WAT     H151104  -0.032   6.442   7.757
16954WAT     H251105   0.099   6.361   7.702
16955WAT      O51106   1.435   1.967   4.209
16955WAT     H151107   1.452   1.897   4.140
16955WAT     H251108   1.345   2.009   4.193
16956WAT      O51109   6.305   0.181   5.573
16956WAT     H151110   6.210   0.152   5.589
16956WAT     H251111   6.306   0.265   5.519
16957WAT      O51112   6.225   6.955   3.682
16957WAT     H151113   6.301   7.007   3.642
16957WAT     H251114   6.258   6.867   3.716
16958WAT      O51115   9.206   3.052   8.821
16958WAT     H151116   9.188   3.054   8.723
16958WAT     H251117   9.298   3.018   8.839
16959WAT      O51118   2.579   6.759   2.332
16959WAT     H151119   2.667   6.736   2.291
16959WAT     H251120   2.545   6.680   2.383
16960WAT      O51121   7.677   2.905   6.465
16960WAT     H151122   7.650   2.865   6.377
16960WAT     H251123   7.673   2.835   6.536
16961WAT      O51124   6.146   7.685   6.495
16961WAT     H151125   6.203   7.608   6.470
16961WAT     H251126   6.066   7.689   6.436
16962WAT      O51127   5.811   0.975   9.242
16962WAT     H151128   5.887   0.911   9.254
16962WAT     H251129   5.835   1.063   9.283
16963WAT      O51130   2.302   5.469   5.551
16963WAT     H151131   2.208   5.460   5.519
16963WAT     H251132   2.342   5.553   5.514
16964WAT      O51133   2.515   8.870   9.009
16964WAT     H151134   2.548   8.777   8.996
16964WAT     H251135   2.582   8.934   8.971
16965WAT      O51136   3.180   4.082   9.823
16965WAT     H151137   3.170   4.161   9.884
16965WAT     H251138   3.273   4.081   9.786
16966WAT      O51139   9.718   3.848   6.530
16966WAT     H151140   9.764   3.873   6.444
16966WAT     H251141   9.631   3.898   6.537
16967WAT      O51142   9.432   0.064   7.149
16967WAT     H151143   9.518   0.064   7.200
16967WAT     H251144   9.384  -0.022   7.163
16968WAT      O51145   1.509   2.826   9.861
16968WAT     H151146   1.496   2.875   9.775
16968WAT     H251147   1.476   2.732   9.851
16969WAT      O51148   4.938   4.832   7.437
16969WAT     H151149   4.876   4.834   7.516
16969WAT     H251150   4.972   4.738   7.424
16970WAT      O51151   1.436   1.242   4.012
16970WAT     H151152   1.390   1.329   3.992
16970WAT     H251153   1.439   1.229   4.111
16971WAT      O51154   8.230   4.819   9.548
16971WAT     H151155   8.300   4.798   9.481
16971WAT     H251156   8.238   4.915   9.576
16972WAT      O51157   6.768   3.038   6.582
16972WAT     H151158   6.758   3.028   6.483
16972WAT     H251159   6.730   2.957   6.628
16973WAT      O51160   3.808   6.097   4.818
16973WAT     H151161   3.800   6.000   4.837
16973WAT     H251162   3.903   6.120   4.795
16974WAT      O51163   2.249   2.517   1.695
16974WAT     H151164   2.263   2.439   1.634
16974WAT     H251165   2.164   2.564   1.672
16975WAT      O51166   3.529   7.413   6.736
16975WAT     H151167   3.575   7.402   6.824
16975WAT     H251168   3.535   7.327   6.685
16976WAT      O51169   0.743   1.862   7.806
16976WAT     H151170   0.714   1.957   7.815
16976WAT     H251171   0.840   1.858   7.781
16977WAT      O51172   4.400   7.215   5.712
16977WAT     H151173   4.358   7.277   5.646
16977WAT     H251174   4.497   7.203   5.690
16978WAT      O51175   5.457   7.023   9.615
16978WAT     H151176   5.466   6.925   9.636
16978WAT     H251177   5.484   7.039   9.520
16979WAT      O51178   3.437   1.756   9.873
16979WAT     H151179   3.399   1.688   9.809
16979WAT     H251180   3.528   1.783   9.843
16980WAT      O51181   7.199   7.526   2.651
16980WAT     H151182   7.275   7.469   2.681
16980WAT     H251183   7.221   7.622   2.668
16981WAT      O51184   9.671   2.821   2.510
16981WAT     H151185   9.578   2.823   2.545
16981WAT     H251186   9.675   2.763   2.429
16982WAT      O51187   5.197   1.607   2.258
16982WAT     H151188   5.150   1.553   2.328
16982WAT     H251189   5.206   1.553   2.175
16983WAT      O51190   2.387   7.130   6.405
16983WAT     H151191   2.399   7.043   6.356
16983WAT     H251192   2.381   7.112   6.503
16984WAT      O51193   1.339   3.998   5.323
16984WAT     H151194   1.430   3.962   5.346
16984WAT     H251195   1.299   3.942   5.249
16985WAT      O51196   7.956   7.492   7.712
16985WAT     H151197   7.886   7.446   7.658
16985WAT     H251198   7.961   7.450   7.803
16986WAT      O51199   6.823   9.654   5.619
16986WAT     H151200   6.818   9.624   5.524
16986WAT     H251201   6.919   9.671   5.643
16987WAT      O51202   6.831   1.677   8.061
16987WAT     H151203   6.769   1.755   8.054
16987WAT     H251204   6.781   1.593   8.040
16988WAT      O51205   4.263   0.795   3.500
16988WAT     H151206   4.295   0.869   3.440
16988WAT     H251207   4.164   0.786   3.491
16989WAT      O51208   0.699   2.122   8.888
16989WAT     H151209   0.692   2.064   8.806
16989WAT     H251210   0.618   2.108   8.946
16990WAT      O51211   6.199   5.169   1.489
16990WAT     H151212   6.250   5.098   1.439
16990WAT     H251213   6.262   5.239   1.520
16991WAT      O51214   0.753   0.004   3.402
16991WAT     H151215   0.724   0.060   3.479
16991WAT     H251216   0.852   0.013   3.389
16992WAT      O51217   0.623   7.264   8.112
16992WAT     H151218   0.544   7.208   8.138
16992WAT     H251219   0.678   7.214   8.045
16993WAT      O51220   6.957   4.350   8.898
16993WAT     H151221   6.888   4.422   8.892
16993WAT     H251222   7.041   4.387   8.937
16994WAT      O51223   6.915   4.037   8.180
16994WAT     H151224   6.849   4.092   8.230
16994WAT     H251225   7.007   4.052   8.217
16995WAT      O51226   1.554   1.812   3.196
16995WAT     H151227   1.577   1.755   3.117
16995WAT     H251228   1.600   1.776   3.277
16996WAT      O51229   9.729   9.749   3.041
16996WAT     H151230   9.649   9.689   3.041
16996WAT     H251231   9.776   9.743   2.953
16997WAT      O51232   5.438   6.261   1.632
16997WAT     H151233   5.529   6.257   1.674
16997WAT     H251234   5.368   6.267   1.703
16998WAT      O51235   0.034   5.589   1.428
16998WAT     H151236   0.027   5.686   1.451
16998WAT     H251237   0.127   5.568   1.400
16999WAT      O51238   2.403   9.164   3.134
16999WAT     H151239   2.379   9.111   3.216
16999WAT     H251240   2.502   9.176   3.131
17000WAT      O51241   8.952   8.242   6.597
17000WAT     H151242   8.915   8.167   6.652
17000WAT     H251243   9.017   8.294   6.652
17001WAT      O51244   9.214   4.041   6.723
17001WAT     H151245   9.141   4.105   6.745
17001WAT     H251246   9.214   4.022   6.624
17002WAT      O51247   1.595   0.226   6.091
17002WAT     H151248   1.517   0.212   6.030
17002WAT     H251249   1.642   0.139   6.105
17003WAT      O51250   7.445   2.101   7.684
17003WAT     H151251   7.483   2.096   7.776
17003WAT     H251252   7.391   2.184   7.675
17004WAT      O51253   7.135   6.556   1.321
17004WAT     H151254   7.172   6.582   1.232
17004WAT     H251255   7.211   6.539   1.385
17005WAT      O51256   7.044   9.351   8.369
17005WAT     H151257   7.036   9.321   8.274
17005WAT     H251258   7.044   9.271   8.429
17006WAT      O51259   9.766   8.263   5.527
17006WAT     H151260   9.857   8.268   5.486
17006WAT     H251261   9.700   8.309   5.468
17007WAT      O51262   5.489   2.009   6.619
17007WAT     H151263   5.433   2.087   6.590
17007WAT     H251264   5.430   1.929   6.632
17008WAT      O51265   1.621   8.008   4.679
17008WAT     H151266   1.579   8.086   4.632
17008WAT     H251267   1.666   7.949   4.612
17009WAT      O51268   5.206   4.387   4.662
17009WAT     H151269   5.160   4.304   4.691
17009WAT     H251270   5.246   4.434   4.741
17010WAT      O51271   5.922   9.099   6.778
17010WAT     H151272   5.978   9.031   6.730
17010WAT     H251273   5.940   9.093   6.877
17011WAT      O51274   5.571   5.846   8.445
17011WAT     H151275   5.529   5.756   8.457
17011WAT     H251276   5.501   5.912   8.418
17012WAT      O51277   4.437   0.751   5.438
17012WAT     H151278   4.513   0.693   5.464
17012WAT     H251279   4.428   0.826   5.503
17013WAT      O51280   1.102   9.521   1.527
17013WAT     H151281   1.049   9.493   1.607
17013WAT     H251282   1.141   9.440   1.482
17014WAT      O51283   8.377   2.941   9.744
17014WAT     H151284   8.469   2.919   9.775
17014WAT     H251285   8.362   3.040   9.752
17015WAT      O51286   2.215   3.508   7.265
17015WAT     H151287   2.285   3.577   7.245
17015WAT     H251288   2.129   3.554   7.289
17016WAT      O51289   6.351   9.109   3.441
17016WAT     H151290   6.390   9.037   3.384
17016WAT     H251291   6.294   9.169   3.385
17017WAT      O51292   4.943   2.885   3.118
17017WAT     H151293   4.894   2.960   3.073
17017WAT     H251294   4.881   2.839   3.183
17018WAT      O51295   4.420   6.898   4.123
17018WAT     H151296   4.375   6.902   4.213
17018WAT     H251297   4.382   6.969   4.064
17019WAT      O51298   3.962   1.556   0.142
17019WAT     H151299   4.004   1.549   0.052
17019WAT     H251300   3.883   1.617   0.137
17020WAT      O51301   6.078   9.558   7.973
17020WAT     H151302   6.129   9.589   8.054
17020WAT     H251303   5.983   9.589   7.980
17021WAT      O51304   4.730   8.356   6.293
17021WAT     H151305   4.747   8.418   6.370
17021WAT     H251306   4.812   8.351   6.236
17022WAT      O51307   9.156   3.943   8.509
17022WAT     H151308   9.179   3.958   8.413
17022WAT     H251309   9.239   3.945   8.564
17023WAT      O51310   0.982   1.104   5.776
17023WAT     H151311   1.053   1.077   5.710
17023WAT     H251312   0.901   1.047   5.762
17024WAT      O51313   3.093   4.792   9.557
17024WAT     H151314   3.067   4.779   9.652
17024WAT     H251315   3.037   4.733   9.499
17025WAT      O51316   6.565   0.201   5.643
17025WAT     H151317   6.466   0.203   5.655
17025WAT     H251318   6.603   0.123   5.694
17026WAT      O51319   9.377   4.873   6.809
17026WAT     H151320   9.385   4.897   6.712
17026WAT     H251321   9.381   4.956   6.864
17027WAT      O51322   6.162   4.890   8.955
17027WAT     H151323   6.212   4.929   9.032
17027WAT     H251324   6.065   4.915   8.961
17028WAT      O51325   1.736   6.401   4.388
17028WAT     H151326   1.787   6.457   4.453
17028WAT     H251327   1.681   6.460   4.329
17029WAT      O51328   1.177   3.053   6.577
17029WAT     H151329   1.079   3.072   6.587
17029WAT     H251330   1.198   2.963   6.614
17030WAT      O51331   3.964   0.622   5.630
17030WAT     H151332   3.926   0.562   5.700
17030WAT     H251333   3.916   0.607   5.543
17031WAT      O51334   2.457   0.405   0.783
17031WAT     H151335   2.535   0.342   0.788
17031WAT     H251336   2.373   0.352   0.768
17032WAT      O51337   2.409   9.022   0.943
17032WAT     H151338   2.357   8.976   1.015
17032WAT     H251339   2.442   8.955   0.877
17033WAT      O51340   7.641   4.567   9.700
17033WAT     H151341   7.598   4.626   9.769
17033WAT     H251342   7.572   4.539   9.634
17034WAT      O51343   8.523   6.241   2.776
17034WAT     H151344   8.519   6.146   2.744
17034WAT     H251345   8.536   6.242   2.875
17035WAT      O51346   6.789   4.317   8.216
17035WAT     H151347   6.744   4.404   8.195
17035WAT     H251348   6.832   4.323   8.306
17036WAT      O51349   6.210   0.852   8.701
17036WAT     H151350   6.267   0.770   8.703
17036WAT     H251351   6.264   0.931   8.727
17037WAT      O51352   7.321   9.625   7.751
17037WAT     H151353   7.245   9.671   7.798
17037WAT     H251354   7.296   9.610   7.655
17038WAT      O51355   2.140   7.621   7.112
17038WAT     H151356   2.232   7.602   7.147
17038WAT     H251357   2.147   7.676   7.029
17039WAT      O51358   3.991   0.960   2.936
17039WAT     H151359   4.006   0.937   3.032
17039WAT     H251360   4.053   0.906   2.879
17040WAT      O51361   9.661   5.011   8.099
17040WAT     H151362   9.588   5.042   8.160
17040WAT     H251363   9.684   5.084   8.035
17041WAT      O51364   5.200   7.803   5.921
17041WAT     H151365   5.129   7.761   5.864
17041WAT     H251366   5.288   7.760   5.902
17042WAT      O51367   6.304   7.790   2.671
17042WAT     H151368   6.211   7.781   2.706
17042WAT     H251369   6.341   7.700   2.650
17043WAT      O51370   3.745   4.555   6.473
17043WAT     H151371   3.757   4.515   6.383
17043WAT     H251372   3.664   4.613   6.474
17044WAT      O51373   7.994   5.456   7.549
17044WAT     H151374   7.907   5.481   7.592
17044WAT     H251375   8.024   5.530   7.489
17045WAT      O51376   2.591   9.663   1.468
17045WAT     H151377   2.550   9.636   1.381
17045WAT     H251378   2.527   9.720   1.519
17046WAT      O51379   7.552   6.141   0.127
17046WAT     H151380   7.586   6.208   0.062
17046WAT     H251381   7.609   6.059   0.125
17047WAT      O51382   6.205   7.945   3.704
17047WAT     H151383   6.145   8.001   3.760
17047WAT     H251384   6.210   7.982   3.611
17048WAT      O51385   9.188   8.242   5.490
17048WAT     H151386   9.239   8.304   5.550
17048WAT     H251387   9.238   8.156   5.480
17049WAT      O51388   2.320   4.658   4.603
17049WAT     H151389   2.264   4.575   4.600
17049WAT     H251390   2.291   4.714   4.681
17050WAT      O51391   7.309   8.373   1.941
17050WAT     H151392   7.275   8.374   2.035
17050WAT     H251393   7.273   8.292   1.893
17051WAT      O51394   1.641   3.011   6.857
17051WAT     H151395   1.665   2.955   6.936
17051WAT     H251396   1.685   3.101   6.867
17052WAT      O51397   5.820   5.564   1.177
17052WAT     H151398   5.773   5.647   1.206
17052WAT     H251399   5.883   5.585   1.103
17053WAT      O51400   2.335   5.437   6.770
17053WAT     H151401   2.356   5.369   6.841
17053WAT     H251402   2.262   5.403   6.711
17054WAT      O51403   7.506   6.937   2.805
17054WAT     H151404   7.428   6.895   2.759
17054WAT     H251405   7.511   7.034   2.780
17055WAT      O51406   2.532   6.136   4.925
17055WAT     H151407   2.593   6.104   4.852
17055WAT     H251408   2.450   6.078   4.928
17056WAT      O51409   1.104   5.863   2.625
17056WAT     H151410   1.156   5.879   2.709
17056WAT     H251411   1.131   5.775   2.586
17057WAT      O51412   4.700   8.991   5.771
17057WAT     H151413   4.740   8.933   5.842
17057WAT     H251414   4.621   9.039   5.809
17058WAT      O51415   8.759   7.451   9.318
17058WAT     H151416   8.698   7.530   9.322
17058WAT     H251417   8.705   7.367   9.328
17059WAT      O51418   1.143   7.916   2.232
17059WAT     H151419   1.223   7.953   2.184
17059WAT     H251420   1.170   7.835   2.284
17060WAT      O51421   4.276   2.678   1.413
17060WAT     H151422   4.220   2.676   1.496
17060WAT     H251423   4.220   2.706   1.335
17061WAT      O51424   2.770   9.604   3.158
17061WAT     H151425   2.723   9.680   3.113
17061WAT     H251426   2.863   9.597   3.123
17062WAT      O51427   0.628   6.705   7.588
17062WAT     H151428   0.689   6.782   7.605
17062WAT     H251429   0.547   6.737   7.539
17063WAT      O51430   6.721   8.002   3.592
17063WAT     H151431   6.799   8.051   3.552
17063WAT     H251432   6.658   7.975   3.520
17064WAT      O51433   8.573   4.553   2.121
17064WAT     H151434   8.624   4.637   2.140
17064WAT     H251435   8.612   4.508   2.041
17065WAT      O51436   9.449   3.701   6.277
17065WAT     H151437   9.436   3.796   6.305
17065WAT     H251438   9.537   3.692   6.231
17066WAT      O51439   0.094   8.900   0.690
17066WAT     H151440   0.095   8.819   0.748
17066WAT     H251441   0.037   8.882   0.609
17067WAT      O51442   5.798   8.415   6.803
17067WAT     H151443   5.747   8.341   6.760
17067WAT     H251444   5.895   8.393   6.805
17068WAT      O51445   7.499   7.894   5.032
17068WAT     H151446   7.499   7.826   5.105
17068WAT     H251447   7.557   7.971   5.058
17069WAT      O51448   7.188   8.112   3.853
17069WAT     H151449   7.105   8.096   3.908
17069WAT     H251450   7.175   8.193   3.795
17070WAT      O51451   2.262   1.051   5.838
17070WAT     H151452   2.205   1.129   5.813
17070WAT     H251453   2.220   0.967   5.803
17071WAT      O51454   8.979   3.139   3.897
17071WAT     H151455   9.026   3.051   3.899
17071WAT     H251456   9.007   3.193   3.977
17072WAT      O51457   3.050   5.952   7.065
17072WAT     H151458   3.010   5.903   6.987
17072WAT     H251459   3.150   5.943   7.062
17073WAT      O51460   5.464   6.355   7.032
17073WAT     H151461   5.533   6.398   7.091
17073WAT     H251462   5.495   6.357   6.937
17074WAT      O51463   6.530   1.913   7.404
17074WAT     H151464   6.438   1.878   7.424
17074WAT     H251465   6.537   1.934   7.306
17075WAT      O51466   0.941   0.310   5.291
17075WAT     H151467   0.844   0.299   5.266
17075WAT     H251468   0.996   0.317   5.208
17076WAT      O51469   8.062   6.558   0.326
17076WAT     H151470   8.141   6.528   0.380
17076WAT     H251471   8.026   6.481   0.274
17077WAT      O51472   6.318   2.183   4.793
17077WAT     H151473   6.402   2.194   4.739
17077WAT     H251474   6.341   2.147   4.883
17078WAT      O51475   1.653   2.581   2.830
17078WAT     H151476   1.652   2.587   2.929
17078WAT     H251477   1.627   2.488   2.802
17079WAT      O51478   8.442   1.595   2.598
17079WAT     H151479   8.525   1.563   2.644
17079WAT     H251480   8.465   1.629   2.507
17080WAT      O51481   0.276   2.166   8.764
17080WAT     H151482   0.226   2.225   8.700
17080WAT     H251483   0.242   2.180   8.857
17081WAT      O51484   2.400   4.296   2.774
17081WAT     H151485   2.332   4.368   2.757
17081WAT     H251486   2.391   4.225   2.705
17082WAT      O51487   9.241   8.070   0.816
17082WAT     H151488   9.178   8.103   0.746
17082WAT     H251489   9.192   8.058   0.902
17083WAT      O51490   5.357   5.868   6.358
17083WAT     H151491   5.362   5.912   6.269
17083WAT     H251492   5.352   5.938   6.430
17084WAT      O51493   7.438   4.738   0.602
17084WAT     H151494   7.391   4.709   0.519
17084WAT     H251495   7.528   4.775   0.579
17085WAT      O51496   7.893   5.428   4.806
17085WAT     H151497   7.800   5.397   4.824
17085WAT     H251498   7.954   5.348   4.800
17086WAT      O51499   9.846   8.482   3.205
17086WAT     H151500   9.887   8.432   3.129
17086WAT     H251501   9.747   8.468   3.205
17087WAT      O51502   8.453   8.435   0.306
17087WAT     H151503   8.490   8.434   0.213
17087WAT     H251504   8.359   8.402   0.304
17088WAT      O51505   9.001   6.341   5.012
17088WAT     H151506   8.986   6.259   5.068
17088WAT     H251507   8.999   6.422   5.070
17089WAT      O51508   4.758   5.767   4.746
17089WAT     H151509   4.763   5.866   4.730
17089WAT     H251510   4.749   5.749   4.844
17090WAT      O51511   9.149   3.889   5.444
17090WAT     H151512   9.157   3.947   5.526
17090WAT     H251513   9.240   3.856   5.418
17091WAT      O51514   7.393   6.035   4.175
17091WAT     H151515   7.326   5.977   4.222
17091WAT     H251516   7.420   6.110   4.237
17092WAT      O51517   1.555   9.772   1.810
17092WAT     H151518   1.604   9.843   1.759
17092WAT     H251519   1.461   9.765   1.775
17093WAT      O51520   5.072   8.472   2.429
17093WAT     H151521   5.110   8.565   2.424
17093WAT     H251522   5.139   8.410   2.469
17094WAT      O51523   9.828   4.467   4.157
17094WAT     H151524   9.843   4.566   4.157
17094WAT     H251525   9.916   4.420   4.162
17095WAT      O51526   7.422   5.136   4.636
17095WAT     H151527   7.479   5.057   4.615
17095WAT     H251528   7.399   5.184   4.551
17096WAT      O51529   7.782   1.558   2.480
17096WAT     H151530   7.773   1.596   2.388
17096WAT     H251531   7.813   1.463   2.474
17097WAT      O51532   5.870   4.256   9.645
17097WAT     H151533   5.911   4.168   9.623
17097WAT     H251534   5.906   4.326   9.584
17098WAT      O51535   4.224   1.358   4.055
17098WAT     H151536   4.278   1.418   3.996
17098WAT     H251537   4.222   1.266   4.015
17099WAT      O51538   6.711   2.439   8.351
17099WAT     H151539   6.685   2.453   8.256
17099WAT     H251540   6.794   2.384   8.356
17100WAT      O51541   2.116   8.063   3.081
17100WAT     H151542   2.131   8.155   3.118
17100WAT     H251543   2.062   8.070   2.997
17101WAT      O51544   8.403   3.636   9.091
17101WAT     H151545   8.360   3.593   9.012
17101WAT     H251546   8.441   3.566   9.151
17102WAT      O51547   6.659   8.950   3.131
17102WAT     H151548   6.694   8.953   3.037
17102WAT     H251549   6.718   9.005   3.190
17103WAT      O51550   0.696   7.320   3.035
17103WAT     H151551   0.635   7.308   3.113
17103WAT     H251552   0.700   7.235   2.983
17104WAT      O51553   3.654   6.568   0.387
17104WAT     H151554   3.728   6.604   0.444
17104WAT     H251555   3.682   6.566   0.292
17105WAT      O51556   7.685   8.304   2.597
17105WAT     H151557   7.646   8.308   2.689
17105WAT     H251558   7.771   8.354   2.595
17106WAT      O51559   1.753   5.021   7.947
17106WAT     H151560   1.821   5.088   7.919
17106WAT     H251561   1.662   5.062   7.942
17107WAT      O51562   5.642   9.208   7.221
17107WAT     H151563   5.568   9.259   7.265
17107WAT     H251564   5.653   9.238   7.127
17108WAT      O51565   7.225   5.719   0.219
17108WAT     H151566   7.159   5.793   0.232
17108WAT     H251567   7.266   5.695   0.306
17109WAT      O51568   1.248   2.779   6.672
17109WAT     H151569   1.297   2.759   6.587
17109WAT     H251570   1.241   2.695   6.727
17110WAT      O51571   2.472   8.254   9.583
17110WAT     H151572   2.503   8.320   9.651
17110WAT     H251573   2.550   8.220   9.530
17111WAT      O51574   2.915   0.141   1.011
17111WAT     H151575   2.970   0.102   1.085
17111WAT     H251576   2.910   0.075   0.936
17112WAT      O51577   1.409   4.898   6.588
17112WAT     H151578   1.408   4.967   6.516
17112WAT     H251579   1.500   4.894   6.629
17113WAT      O51580   4.295   4.140   9.367
17113WAT     H151581   4.235   4.220   9.363
17113WAT     H251582   4.364   4.147   9.295
17114WAT      O51583   3.993   6.048   0.789
17114WAT     H151584   3.958   5.955   0.778
17114WAT     H251585   4.093   6.046   0.798
17115WAT      O51586   9.800   7.988   4.957
17115WAT     H151587   9.879   7.927   4.949
17115WAT     H251588   9.831   8.083   4.949
17116WAT      O51589   0.458   5.653   0.661
17116WAT     H151590   0.418   5.568   0.628
17116WAT     H251591   0.480   5.645   0.758
17117WAT      O51592   3.382   7.777   4.080
17117WAT     H151593   3.438   7.854   4.048
17117WAT     H251594   3.438   7.716   4.136
17118WAT      O51595   3.769   5.491   8.084
17118WAT     H151596   3.843   5.523   8.024
17118WAT     H251597   3.721   5.570   8.122
17119WAT      O51598   1.157   3.809   1.766
17119WAT     H151599   1.139   3.749   1.844
17119WAT     H251600   1.079   3.808   1.704
17120WAT      O51601   8.989   6.949   1.896
17120WAT     H151602   9.055   6.982   1.964
17120WAT     H251603   8.933   7.026   1.864
17121WAT      O51604   6.203   5.714   3.497
17121WAT     H151605   6.131   5.782   3.487
17121WAT     H251606   6.209   5.686   3.593
17122WAT      O51607   5.240   0.744   9.770
17122WAT     H151608   5.205   0.834   9.794
17122WAT     H251609   5.323   0.725   9.823
17123WAT      O51610   4.856   1.513   6.463
17123WAT     H151611   4.762   1.494   6.490
17123WAT     H251612   4.913   1.433   6.480
17124WAT      O51613   8.738   6.319   1.116
17124WAT     H151614   8.755   6.329   1.017
17124WAT     H251615   8.642   6.296   1.131
17125WAT      O51616   4.395   0.098   9.424
17125WAT     H151617   4.453   0.094   9.506
17125WAT     H251618   4.302   0.124   9.450
17126WAT      O51619   2.526   7.614   4.895
17126WAT     H151620   2.508   7.570   4.807
17126WAT     H251621   2.492   7.555   4.969
17127WAT      O51622   0.398   9.657   8.734
17127WAT     H151623   0.362   9.746   8.705
17127WAT     H251624   0.420   9.659   8.831
17128WAT      O51625   7.345   6.479   1.507
17128WAT     H151626   7.379   6.521   1.591
17128WAT     H251627   7.420   6.436   1.457
17129WAT      O51628   3.151   9.353   1.279
17129WAT     H151629   3.084   9.425   1.262
17129WAT     H251630   3.232   9.368   1.223
17130WAT      O51631   6.072   3.136   2.432
17130WAT     H151632   6.064   3.085   2.347
17130WAT     H251633   6.107   3.228   2.413
17131WAT      O51634   6.398   3.402   8.866
17131WAT     H151635   6.376   3.470   8.936
17131WAT     H251636   6.415   3.314   8.911
17132WAT      O51637   2.825   1.147   1.901
17132WAT     H151638   2.777   1.214   1.845
17132WAT     H251639   2.779   1.058   1.894
17133WAT      O51640   9.137   9.329   2.219
17133WAT     H151641   9.039   9.341   2.202
17133WAT     H251642   9.187   9.340   2.133
17134WAT      O51643   9.736   4.325   1.434
17134WAT     H151644   9.742   4.231   1.402
17134WAT     H251645   9.780   4.386   1.368
17135WAT      O51646   5.645   3.148   3.118
17135WAT     H151647   5.659   3.243   3.089
17135WAT     H251648   5.553   3.119   3.093
17136WAT      O51649   0.257   2.021   7.353
17136WAT     H151650   0.209   1.964   7.287
17136WAT     H251651   0.308   1.964   7.417
17137WAT      O51652   7.079   1.448   5.927
17137WAT     H151653   7.028   1.407   5.851
17137WAT     H251654   7.168   1.479   5.894
17138WAT      O51655   9.032   1.120   6.096
17138WAT     H151656   9.001   1.191   6.159
17138WAT     H251657   8.965   1.046   6.095
17139WAT      O51658   6.032   2.961   1.884
17139WAT     H151659   6.000   2.872   1.853
17139WAT     H251660   6.124   2.952   1.921
17140WAT      O51661   3.082   4.294   3.466
17140WAT     H151662   3.138   4.266   3.544
17140WAT     H251663   3.084   4.393   3.457
17141WAT      O51664   1.724   4.865   1.858
17141WAT     H151665   1.710   4.814   1.943
17141WAT     H251666   1.731   4.801   1.781
17142WAT      O51667   7.249   2.371   6.150
17142WAT     H151668   7.321   2.438   6.167
17142WAT     H251669   7.222   2.328   6.236
17143WAT      O51670   2.826   6.314   7.395
17143WAT     H151671   2.796   6.227   7.434
17143WAT     H251672   2.892   6.296   7.322
17144WAT      O51673   5.936   6.119   2.580
17144WAT     H151674   5.915   6.188   2.511
17144WAT     H251675   5.869   6.045   2.575
17145WAT      O51676   1.666   0.174   8.845
17145WAT     H151677   1.602   0.185   8.921
17145WAT     H251678   1.716   0.259   8.831
17146WAT      O51679   4.236   2.342   7.570
17146WAT     H151680   4.248   2.369   7.474
17146WAT     H251681   4.257   2.420   7.629
17147WAT      O51682   3.948   9.046   1.677
17147WAT     H151683   3.854   9.016   1.693
17147WAT     H251684   4.006   9.015   1.752
17148WAT      O51685   1.271   1.597   1.072
17148WAT     H151686   1.215   1.514   1.074
17148WAT     H251687   1.215   1.674   1.041
17149WAT      O51688   9.230   7.419   1.132
17149WAT     H151689   9.216   7.361   1.211
17149WAT     H251690   9.255   7.362   1.053
17150WAT      O51691   8.242   7.164   2.704
17150WAT     H151692   8.193   7.252   2.713
17150WAT     H251693   8.209   7.117   2.622
17151WAT      O51694   1.075   1.647   3.644
17151WAT     H151695   1.147   1.609   3.703
17151WAT     H251696   1.097   1.741   3.620
17152WAT      O51697   6.667   9.611   8.493
17152WAT     H151698   6.764   9.607   8.472
17152WAT     H251699   6.618   9.540   8.443
17153WAT      O51700   1.740   8.552   5.841
17153WAT     H151701   1.785   8.607   5.912
17153WAT     H251702   1.661   8.603   5.807
17154WAT      O51703   8.091   3.124   7.288
17154WAT     H151704   8.115   3.199   7.227
17154WAT     H251705   8.019   3.153   7.350
17155WAT      O51706   3.685   5.120   2.609
17155WAT     H151707   3.776   5.087   2.584
17155WAT     H251708   3.639   5.156   2.528
17156WAT      O51709   4.760   9.492   1.942
17156WAT     H151710   4.724   9.405   1.910
17156WAT     H251711   4.767   9.556   1.865
17157WAT      O51712   0.711   9.720   9.660
17157WAT     H151713   0.634   9.780   9.682
17157WAT     H251714   0.708   9.697   9.563
17158WAT      O51715   4.769   1.254   4.099
17158WAT     H151716   4.703   1.178   4.098
17158WAT     H251717   4.788   1.282   4.005
17159WAT      O51718   8.033   0.381   0.417
17159WAT     H151719   8.022   0.297   0.471
17159WAT     H251720   8.024   0.359   0.320
17160WAT      O51721   4.483   6.770   2.867
17160WAT     H151722   4.397   6.758   2.917
17160WAT     H251723   4.535   6.845   2.908
17161WAT      O51724   7.637   4.478   2.068
17161WAT     H151725   7.612   4.384   2.088
17161WAT     H251726   7.579   4.540   2.120
17162WAT      O51727   1.409   0.482   1.003
17162WAT     H151728   1.476   0.435   0.945
17162WAT     H251729   1.451   0.503   1.092
17163WAT      O51730   0.114   2.991   5.419
17163WAT     H151731   0.065   2.917   5.373
17163WAT     H251732   0.054   3.033   5.487
17164WAT      O51733   5.795   0.647   1.711
17164WAT     H151734   5.855   0.683   1.639
17164WAT     H251735   5.706   0.625   1.671
17165WAT      O51736   9.182   3.519   4.776
17165WAT     H151737   9.157   3.503   4.680
17165WAT     H251738   9.281   3.513   4.786
17166WAT      O51739   8.124   0.139   6.033
17166WAT     H151740   8.137   0.048   6.073
17166WAT     H251741   8.088   0.130   5.940
17167WAT      O51742   8.992   3.597   2.447
17167WAT     H151743   8.899   3.579   2.478
17167WAT     H251744   9.029   3.514   2.404
17168WAT      O51745   5.279   4.555   0.803
17168WAT     H151746   5.199   4.514   0.845
17168WAT     H251747   5.282   4.530   0.706
17169WAT      O51748   6.669   0.878   7.077
17169WAT     H151749   6.739   0.852   7.144
17169WAT     H251750   6.678   0.975   7.054
17170WAT      O51751   0.206   4.189   3.545
17170WAT     H151752   0.159   4.116   3.496
17170WAT     H251753   0.185   4.182   3.643
17171WAT      O51754   5.292   0.434   3.933
17171WAT     H151755   5.296   0.442   4.032
17171WAT     H251756   5.374   0.387   3.900
17172WAT      O51757   1.629   7.685   6.005
17172WAT     H151758   1.534   7.675   6.034
17172WAT     H251759   1.660   7.598   5.966
17173WAT      O51760   4.093   5.501   9.188
17173WAT     H151761   3.999   5.534   9.198
17173WAT     H251762   4.149   5.573   9.147
17174WAT      O51763   9.432   7.399   2.998
17174WAT     H151764   9.456   7.496   3.001
17174WAT     H251765   9.337   7.386   3.027
17175WAT      O51766   5.226   7.051   5.773
17175WAT     H151767   5.227   7.144   5.809
17175WAT     H251768   5.159   7.045   5.698
17176WAT      O51769   8.787   1.568   1.908
17176WAT     H151770   8.799   1.548   1.811
17176WAT     H251771   8.753   1.486   1.955
17177WAT      O51772   0.379   4.100   6.270
17177WAT     H151773   0.444   4.033   6.235
17177WAT     H251774   0.394   4.114   6.368
17178WAT      O51775   8.625   7.902   8.450
17178WAT     H151776   8.660   7.968   8.517
17178WAT     H251777   8.545   7.855   8.488
17179WAT      O51778   8.112   7.944   9.743
17179WAT     H151779   8.109   8.012   9.816
17179WAT     H251780   8.140   7.856   9.781
17180WAT      O51781   4.920   0.091   2.021
17180WAT     H151782   4.860   0.011   2.022
17180WAT     H251783   4.865   0.174   2.029
17181WAT      O51784   7.948   0.693   0.674
17181WAT     H151785   7.906   0.743   0.751
17181WAT     H251786   7.886   0.621   0.644
17182WAT      O51787   1.405   5.925   3.064
17182WAT     H151788   1.483   5.977   3.028
17182WAT     H251789   1.388   5.952   3.159
17183WAT      O51790   3.859   4.164   4.065
17183WAT     H151791   3.897   4.182   4.155
17183WAT     H251792   3.761   4.187   4.064
17184WAT      O51793   0.362   2.452   8.909
17184WAT     H151794   0.331   2.488   8.997
17184WAT     H251795   0.461   2.460   8.902
17185WAT      O51796   6.725   4.051   4.816
17185WAT     H151797   6.784   3.983   4.860
17185WAT     H251798   6.671   4.098   4.886
17186WAT      O51799   9.652   0.789   4.923
17186WAT     H151800   9.558   0.820   4.912
17186WAT     H251801   9.672   0.775   5.020
17187WAT      O51802   2.670   0.022   6.166
17187WAT     H151803   2.642   0.115   6.141
17187WAT     H251804   2.663   0.011   6.265
17188WAT      O51805   1.820   3.154   9.690
17188WAT     H151806   1.917   3.150   9.716
17188WAT     H251807   1.766   3.186   9.768
17189WAT      O51808   3.524   1.741   4.412
17189WAT     H151809   3.442   1.763   4.465
17189WAT     H251810   3.575   1.825   4.393
17190WAT      O51811   5.672   3.245   8.262
17190WAT     H151812   5.711   3.257   8.170
17190WAT     H251813   5.734   3.188   8.317
17191WAT      O51814   1.783   5.627   6.157
17191WAT     H151815   1.880   5.648   6.165
17191WAT     H251816   1.770   5.550   6.094
17192WAT      O51817   6.732   0.254   9.570
17192WAT     H151818   6.825   0.282   9.543
17192WAT     H251819   6.689   0.206   9.493
17193WAT      O51820   4.522   2.820   6.952
17193WAT     H151821   4.496   2.816   7.048
17193WAT     H251822   4.551   2.913   6.928
17194WAT      O51823   7.905   6.911   6.946
17194WAT     H151824   7.887   7.002   6.908
17194WAT     H251825   7.856   6.901   7.032
17195WAT      O51826   8.978   4.029   5.108
17195WAT     H151827   8.984   4.079   5.022
17195WAT     H251828   9.021   4.083   5.181
17196WAT      O51829   1.365   5.365   2.214
17196WAT     H151830   1.409   5.453   2.228
17196WAT     H251831   1.313   5.367   2.129
17197WAT      O51832   6.485   8.525   0.969
17197WAT     H151833   6.525   8.566   0.887
17197WAT     H251834   6.472   8.427   0.955
17198WAT      O51835   0.205   6.309   6.045
17198WAT     H151836   0.105   6.315   6.036
17198WAT     H251837   0.228   6.247   6.120
17199WAT      O51838   5.041   3.128   3.303
17199WAT     H151839   5.105   3.161   3.372
17199WAT     H251840   5.093   3.084   3.229
17200WAT      O51841   0.025   9.429   0.784
17200WAT     H151842   0.031   9.329   0.785
17200WAT     H251843   0.002   9.462   0.875
17201WAT      O51844   1.181   9.352   0.910
17201WAT     H151845   1.119   9.286   0.868
17201WAT     H251846   1.276   9.323   0.895
17202WAT      O51847   8.061   6.928   4.630
17202WAT     H151848   8.018   6.976   4.707
17202WAT     H251849   8.085   6.994   4.559
17203WAT      O51850   7.503   8.807   7.242
17203WAT     H151851   7.446   8.784   7.321
17203WAT     H251852   7.448   8.804   7.159
17204WAT      O51853   4.507   1.508   7.189
17204WAT     H151854   4.549   1.420   7.168
17204WAT     H251855   4.539   1.540   7.278
17205WAT      O51856   5.825   3.147   1.464
17205WAT     H151857   5.740   3.192   1.435
17205WAT     H251858   5.815   3.048   1.456
17206WAT      O51859   7.780   2.341   2.565
17206WAT     H151860   7.876   2.314   2.565
17206WAT     H251861   7.773   2.440   2.567
17207WAT      O51862   0.311   4.103   7.563
17207WAT     H151863   0.398   4.056   7.546
17207WAT     H251864   0.327   4.201   7.568
17208WAT      O51865   0.038   3.773   4.364
17208WAT     H151866   0.136   3.778   4.349
17208WAT     H251867   0.020   3.741   4.457
17209WAT      O51868   3.529   0.275   9.067
17209WAT     H151869   3.498   0.363   9.032
17209WAT     H251870   3.466   0.203   9.036
17210WAT      O51871   0.446   3.705   5.155
17210WAT     H151872   0.434   3.637   5.227
17210WAT     H251873   0.473   3.659   5.070
17211WAT      O51874   3.624   5.781   9.297
17211WAT     H151875   3.569   5.779   9.213
17211WAT     H251876   3.568   5.754   9.375
17212WAT      O51877   1.608   8.938   2.143
17212WAT     H151878   1.622   8.853   2.092
17212WAT     H251879   1.624   8.921   2.240
17213WAT      O51880   0.338   9.778   6.745
17213WAT     H151881   0.403   9.713   6.785
17213WAT     H251882   0.326   9.856   6.807
17214WAT      O51883   7.492   9.175   9.050
17214WAT     H151884   7.450   9.157   8.961
17214WAT     H251885   7.590   9.194   9.038
17215WAT      O51886   5.947   9.670   2.524
17215WAT     H151887   5.850   9.655   2.543
17215WAT     H251888   5.975   9.757   2.565
17216WAT      O51889   1.532   7.893   1.598
17216WAT     H151890   1.594   7.971   1.607
17216WAT     H251891   1.559   7.837   1.520
17217WAT      O51892   4.645   0.782   1.034
17217WAT     H151893   4.588   0.701   1.021
17217WAT     H251894   4.689   0.778   1.124
17218WAT      O51895   0.703   0.564   8.874
17218WAT     H151896   0.644   0.572   8.794
17218WAT     H251897   0.705   0.468   8.904
17219WAT      O51898   3.475   7.178   6.552
17219WAT     H151899   3.375   7.176   6.555
17219WAT     H251900   3.509   7.102   6.497
17220WAT      O51901   3.640   7.474   1.034
17220WAT     H151902   3.692   7.388   1.035
17220WAT     H251903   3.642   7.513   0.942
17221WAT      O51904   2.548   9.292   8.797
17221WAT     H151905   2.585   9.202   8.816
17221WAT     H251906   2.623   9.358   8.788
17222WAT      O51907   0.278   8.060   1.319
17222WAT     H151908   0.255   8.155   1.340
17222WAT     H251909   0.332   8.057   1.235
17223WAT      O51910   6.303   6.373   3.539
17223WAT     H151911   6.251   6.387   3.624
17223WAT     H251912   6.278   6.285   3.499
17224WAT      O51913   9.774   0.048   6.937
17224WAT     H151914   9.862   0.006   6.915
17224WAT     H251915   9.705  -0.024   6.949
17225WAT      O51916   5.807   7.389   5.146
17225WAT     H151917   5.842   7.384   5.053
17225WAT     H251918   5.877   7.357   5.210
17226WAT      O51919   5.410   5.270   9.505
17226WAT     H151920   5.425   5.336   9.579
17226WAT     H251921   5.341   5.306   9.442
17227WAT      O51922   1.877   6.386   1.380
17227WAT     H151923   1.817   6.308   1.402
17227WAT     H251924   1.922   6.369   1.292
17228WAT      O51925   1.137   6.061   4.569
17228WAT     H151926   1.069   6.075   4.497
17228WAT     H251927   1.115   6.120   4.646
17229WAT      O51928   7.456   5.863   9.015
17229WAT     H151929   7.443   5.961   9.029
17229WAT     H251930   7.485   5.821   9.101
17230WAT      O51931   9.601   8.494   3.101
17230WAT     H151932   9.592   8.461   3.007
17230WAT     H251933   9.512   8.524   3.134
17231WAT      O51934   6.076   8.162   2.650
17231WAT     H151935   6.097   8.227   2.577
17231WAT     H251936   5.977   8.159   2.663
17232WAT      O51937   2.957   9.201   2.199
17232WAT     H151938   2.998   9.276   2.147
17232WAT     H251939   2.925   9.235   2.288
17233WAT      O51940   9.878   0.917   8.285
17233WAT     H151941   9.871   0.858   8.205
17233WAT     H251942   9.837   1.006   8.265
17234WAT      O51943   8.888   2.118   8.335
17234WAT     H151944   8.948   2.039   8.324
17234WAT     H251945   8.820   2.099   8.406
17235WAT      O51946   7.058   8.522   0.900
17235WAT     H151947   7.005   8.535   0.984
17235WAT     H251948   7.086   8.610   0.864
17236WAT      O51949   6.627   9.543   2.179
17236WAT     H151950   6.645   9.462   2.236
17236WAT     H251951   6.540   9.531   2.132
17237WAT      O51952   6.750   5.149   9.368
17237WAT     H151953   6.761   5.225   9.304
17237WAT     H251954   6.768   5.180   9.461
17238WAT      O51955   5.648   8.659   2.289
17238WAT     H151956   5.636   8.571   2.243
17238WAT     H251957   5.618   8.651   2.384
17239WAT      O51958   8.189   1.213   3.002
17239WAT     H151959   8.170   1.297   2.953
17239WAT     H251960   8.268   1.167   2.960
17240WAT      O51961   8.467   7.049   1.485
17240WAT     H151962   8.495   6.958   1.455
17240WAT     H251963   8.546   7.100   1.518
17241WAT      O51964   8.933   6.577   0.407
17241WAT     H151965   8.898   6.497   0.358
17241WAT     H251966   8.902   6.574   0.502
17242WAT      O51967   6.385   0.391   5.180
17242WAT     H151968   6.462   0.431   5.229
17242WAT     H251969   6.420   0.336   5.104
17243WAT      O51970   6.732   7.859   8.541
17243WAT     H151971   6.663   7.917   8.497
17243WAT     H251972   6.769   7.906   8.622
17244WAT      O51973   1.945   4.165   6.933
17244WAT     H151974   1.959   4.256   6.971
17244WAT     H251975   2.004   4.152   6.853
17245WAT      O51976   0.344   2.389   5.197
17245WAT     H151977   0.328   2.485   5.217
17245WAT     H251978   0.424   2.380   5.137
17246WAT      O51979   9.748   9.538   5.090
17246WAT     H151980   9.731   9.476   5.014
17246WAT     H251981   9.733   9.633   5.059
17247WAT      O51982   0.754   5.424   5.002
17247WAT     H151983   0.854   5.437   5.000
17247WAT     H251984   0.733   5.334   5.040
17248WAT      O51985   6.625   0.286   8.494
17248WAT     H151986   6.709   0.237   8.514
17248WAT     H251987   6.555   0.262   8.562
17249WAT      O51988   7.915   9.288   9.488
17249WAT     H151989   7.841   9.344   9.525
17249WAT     H251990   7.997   9.300   9.545
17250WAT      O51991   8.749   3.683   5.994
17250WAT     H151992   8.723   3.703   5.899
17250WAT     H251993   8.668   3.652   6.045
17251WAT      O51994   0.385   6.962   8.411
17251WAT     H151995   0.448   6.941   8.485
17251WAT     H251996   0.401   6.898   8.335
17252WAT      O51997   7.331   7.625   9.491
17252WAT     H151998   7.356   7.652   9.398
17252WAT     H251999   7.274   7.543   9.488
17253WAT      O52000   4.695   0.350   7.924
17253WAT     H152001   4.621   0.283   7.921
17253WAT     H252002   4.715   0.373   8.019
17254WAT      O52003   1.812   0.074   1.694
17254WAT     H152004   1.857   0.055   1.782
17254WAT     H252005   1.768   0.164   1.699
17255WAT      O52006   0.091   7.441   0.108
17255WAT     H152007   0.022   7.370   0.121
17255WAT     H252008   0.107   7.489   0.195
17256WAT      O52009   7.095   8.546   9.748
17256WAT     H152010   7.167   8.578   9.810
17256WAT     H252011   7.044   8.472   9.791
17257WAT      O52012   7.985   4.759   6.186
17257WAT     H152013   7.924   4.680   6.189
17257WAT     H252014   7.932   4.841   6.168
17258WAT      O52015   6.821   8.331   6.599
17258WAT     H152016   6.841   8.256   6.661
17258WAT     H252017   6.883   8.407   6.617
17259WAT      O52018   5.524   4.329   7.415
17259WAT     H152019   5.580   4.257   7.456
17259WAT     H252020   5.520   4.407   7.477
17260WAT      O52021   5.921   4.947   2.073
17260WAT     H152022   5.952   5.032   2.116
17260WAT     H252023   5.993   4.878   2.080
17261WAT      O52024   5.026   2.835   5.587
17261WAT     H152025   4.968   2.781   5.648
17261WAT     H252026   4.999   2.931   5.592
17262WAT      O52027   2.886   4.746   1.502
17262WAT     H152028   2.912   4.653   1.528
17262WAT     H252029   2.790   4.761   1.526
17263WAT      O52030   3.358   9.402   3.173
17263WAT     H152031   3.422   9.418   3.098
17263WAT     H252032   3.343   9.487   3.223
17264WAT      O52033   0.342   2.478   4.825
17264WAT     H152034   0.406   2.402   4.810
17264WAT     H252035   0.263   2.446   4.877
17265WAT      O52036   3.138   3.984   8.351
17265WAT     H152037   3.200   3.992   8.429
17265WAT     H252038   3.154   4.058   8.287
17266WAT      O52039   7.099   7.764   7.439
17266WAT     H152040   7.187   7.722   7.458
17266WAT     H252041   7.032   7.693   7.417
17267WAT      O52042   7.629   3.226   8.138
17267WAT     H152043   7.594   3.168   8.064
17267WAT     H252044   7.729   3.226   8.135
17268WAT      O52045   9.686   2.158   8.936
17268WAT     H152046   9.636   2.233   8.894
17268WAT     H252047   9.646   2.071   8.908
17269WAT      O52048   4.980   2.320   6.583
17269WAT     H152049   5.048   2.334   6.655
17269WAT     H252050   4.966   2.222   6.569
17270WAT      O52051   2.237   6.672   8.062
17270WAT     H152052   2.150   6.631   8.037
17270WAT     H252053   2.273   6.628   8.144
17271WAT      O52054   6.199   3.410   9.373
17271WAT     H152055   6.288   3.444   9.343
17271WAT     H252056   6.126   3.456   9.323
17272WAT      O52057   5.884   5.016   1.420
17272WAT     H152058   5.927   4.961   1.348
17272WAT     H252059   5.949   5.027   1.496
17273WAT      O52060   3.534   2.076   1.785
17273WAT     H152061   3.470   2.048   1.714
17273WAT     H252062   3.486   2.134   1.851
17274WAT      O52063   8.608   4.869   6.675
17274WAT     H152064   8.628   4.839   6.768
17274WAT     H252065   8.604   4.789   6.614
17275WAT      O52066   5.730   6.820   2.645
17275WAT     H152067   5.728   6.869   2.558
17275WAT     H252068   5.638   6.787   2.667
17276WAT      O52069   7.977   4.776   6.739
17276WAT     H152070   8.010   4.715   6.812
17276WAT     H252071   7.878   4.783   6.744
17277WAT      O52072   0.532   6.654   1.944
17277WAT     H152073   0.541   6.556   1.963
17277WAT     H252074   0.508   6.702   2.028
17278WAT      O52075   3.016   1.961   2.459
17278WAT     H152076   3.083   1.933   2.390
17278WAT     H252077   2.955   2.030   2.421
17279WAT      O52078   9.260   6.525   3.559
17279WAT     H152079   9.346   6.480   3.582
17279WAT     H252080   9.192   6.457   3.533
17280WAT      O52081   6.509   8.925   7.605
17280WAT     H152082   6.423   8.968   7.632
17280WAT     H252083   6.517   8.926   7.505
17281WAT      O52084   1.272   0.577   2.219
17281WAT     H152085   1.363   0.560   2.181
17281WAT     H252086   1.277   0.580   2.318
17282WAT      O52087   5.422   3.286   8.614
17282WAT     H152088   5.409   3.301   8.515
17282WAT     H252089   5.495   3.346   8.647
17283WAT      O52090   0.926   5.807   8.659
17283WAT     H152091   0.920   5.793   8.560
17283WAT     H252092   0.884   5.730   8.707
17284WAT      O52093   3.895   5.348   2.599
17284WAT     H152094   3.938   5.420   2.545
17284WAT     H252095   3.930   5.259   2.569
17285WAT      O52096   9.231   4.936   5.381
17285WAT     H152097   9.145   4.972   5.418
17285WAT     H252098   9.249   4.846   5.421
17286WAT      O52099   1.929   7.910   6.440
17286WAT     H152100   1.935   7.894   6.539
17286WAT     H252101   1.950   8.006   6.421
17287WAT      O52102   5.439   6.949   7.975
17287WAT     H152103   5.521   6.894   7.958
17287WAT     H252104   5.363   6.889   7.996
17288WAT      O52105   8.522   3.538   6.126
17288WAT     H152106   8.526   3.484   6.210
17288WAT     H252107   8.531   3.478   6.047
17289WAT      O52108   2.026   1.097   6.257
17289WAT     H152109   2.062   1.190   6.245
17289WAT     H252110   2.055   1.061   6.346
17290WAT      O52111   5.455   6.414   4.293
17290WAT     H152112   5.394   6.423   4.214
17290WAT     H252113   5.513   6.495   4.300
17291WAT      O52114   5.848   6.811   8.506
17291WAT     H152115   5.914   6.736   8.506
17291WAT     H252116   5.890   6.893   8.544
17292WAT      O52117   5.279   9.406   6.774
17292WAT     H152118   5.193   9.429   6.729
17292WAT     H252119   5.261   9.375   6.867
17293WAT      O52120   3.180   7.104   1.408
17293WAT     H152121   3.249   7.148   1.350
17293WAT     H252122   3.216   7.017   1.442
17294WAT      O52123   1.398   2.546   8.470
17294WAT     H152124   1.340   2.466   8.481
17294WAT     H252125   1.481   2.520   8.420
17295WAT      O52126   2.797   7.711   1.865
17295WAT     H152127   2.746   7.743   1.945
17295WAT     H252128   2.743   7.643   1.816
17296WAT      O52129   0.193   4.333   0.107
17296WAT     H152130   0.255   4.341   0.185
17296WAT     H252131   0.173   4.425   0.072
17297WAT      O52132   2.764   7.894   0.941
17297WAT     H152133   2.709   7.820   0.979
17297WAT     H252134   2.850   7.857   0.906
17298WAT      O52135   4.297   1.854   1.407
17298WAT     H152136   4.265   1.760   1.420
17298WAT     H252137   4.361   1.857   1.331
17299WAT      O52138   3.389   8.629   6.988
17299WAT     H152139   3.340   8.578   6.917
17299WAT     H252140   3.481   8.592   6.997
17300WAT      O52141   0.500   1.669   0.415
17300WAT     H152142   0.404   1.666   0.389
17300WAT     H252143   0.525   1.763   0.439
17301WAT      O52144   3.035   0.688   9.761
17301WAT     H152145   3.106   0.759   9.755
17301WAT     H252146   3.076   0.599   9.743
17302WAT      O52147   2.528   6.668   1.578
17302WAT     H152148   2.532   6.578   1.622
17302WAT     H252149   2.484   6.733   1.640
17303WAT      O52150   3.012   2.094   1.158
17303WAT     H152151   2.927   2.121   1.202
17303WAT     H252152   3.086   2.095   1.226
17304WAT      O52153   8.466   0.164   8.208
17304WAT     H152154   8.528   0.155   8.131
17304WAT     H252155   8.404   0.085   8.210
17305WAT      O52156   5.508   9.081   0.386
17305WAT     H152157   5.608   9.076   0.392
17305WAT     H252158   5.469   8.990   0.399
17306WAT      O52159   8.635   3.703   3.099
17306WAT     H152160   8.658   3.800   3.090
17306WAT     H252161   8.680   3.665   3.180
17307WAT      O52162   8.025   4.431   2.414
17307WAT     H152163   8.061   4.521   2.390
17307WAT     H252164   7.928   4.426   2.389
17308WAT      O52165   3.775   2.826   5.157
17308WAT     H152166   3.871   2.822   5.182
17308WAT     H252167   3.764   2.806   5.060
17309WAT      O52168   2.559   5.639   4.141
17309WAT     H152169   2.552   5.577   4.063
17309WAT     H252170   2.469   5.681   4.158
17310WAT      O52171   2.377   1.458   2.934
17310WAT     H152172   2.464   1.499   2.906
17310WAT     H252173   2.392   1.400   3.015
17311WAT      O52174   1.443   2.612   7.290
17311WAT     H152175   1.385   2.618   7.209
17311WAT     H252176   1.483   2.702   7.309
17312WAT      O52177   0.202   5.447   3.257
17312WAT     H152178   0.209   5.437   3.356
17312WAT     H252179   0.291   5.428   3.215
17313WAT      O52180   3.016   2.210   5.586
17313WAT     H152181   2.933   2.255   5.620
17313WAT     H252182   2.991   2.131   5.531
17314WAT      O52183   7.343   9.294   7.076
17314WAT     H152184   7.346   9.357   6.999
17314WAT     H252185   7.267   9.231   7.064
17315WAT      O52186   8.748   1.947   5.536
17315WAT     H152187   8.658   1.936   5.577
17315WAT     H252188   8.783   1.857   5.507
17316WAT      O52189   2.718   4.254   9.793
17316WAT     H152190   2.633   4.213   9.825
17316WAT     H252191   2.779   4.270   9.871
17317WAT      O52192   8.548   0.330   7.726
17317WAT     H152193   8.473   0.334   7.660
17317WAT     H252194   8.626   0.382   7.691
17318WAT      O52195   1.796   9.415   8.728
17318WAT     H152196   1.812   9.499   8.781
17318WAT     H252197   1.775   9.440   8.633
17319WAT      O52198   3.915   8.819   5.833
17319WAT     H152199   3.864   8.750   5.780
17319WAT     H252200   3.911   8.907   5.786
17320WAT      O52201   3.824   3.582   5.573
17320WAT     H152202   3.825   3.671   5.527
17320WAT     H252203   3.896   3.525   5.534
17321WAT      O52204   8.795   6.607   9.541
17321WAT     H152205   8.715   6.661   9.567
17321WAT     H252206   8.877   6.644   9.586
17322WAT      O52207   3.525   8.631   3.236
17322WAT     H152208   3.467   8.704   3.199
17322WAT     H252209   3.527   8.554   3.173
17323WAT      O52210   5.680   1.827   7.686
17323WAT     H152211   5.645   1.874   7.766
17323WAT     H252212   5.757   1.878   7.647
17324WAT      O52213   3.532   4.598   8.689
17324WAT     H152214   3.553   4.622   8.784
17324WAT     H252215   3.600   4.534   8.655
17325WAT      O52216   7.522   4.436   5.007
17325WAT     H152217   7.478   4.422   5.096
17325WAT     H252218   7.460   4.406   4.934
17326WAT      O52219   3.522   0.212   2.195
17326WAT     H152220   3.545   0.132   2.140
17326WAT     H252221   3.424   0.213   2.214
17327WAT      O52222   8.714   4.391   6.894
17327WAT     H152223   8.715   4.460   6.966
17327WAT     H252224   8.766   4.311   6.924
17328WAT      O52225   0.934   3.916   9.820
17328WAT     H152226   0.908   3.874   9.907
17328WAT     H252227   1.015   3.972   9.832
17329WAT      O52228   5.903   8.452   4.169
17329WAT     H152229   5.841   8.449   4.091
17329WAT     H252230   5.925   8.547   4.191
17330WAT      O52231   1.664   0.320   6.546
17330WAT     H152232   1.568   0.306   6.522
17330WAT     H252233   1.673   0.404   6.599
17331WAT      O52234   2.460   0.773   7.181
17331WAT     H152235   2.468   0.674   7.182
17331WAT     H252236   2.548   0.815   7.203
17332WAT      O52237   2.880   6.942   5.926
17332WAT     H152238   2.814   6.868   5.937
17332WAT     H252239   2.912   6.972   6.016
17333WAT      O52240   9.789   5.548   5.051
17333WAT     H152241   9.777   5.583   4.959
17333WAT     H252242   9.878   5.576   5.087
17334WAT      O52243   7.151   5.414   5.250
17334WAT     H152244   7.156   5.337   5.187
17334WAT     H252245   7.227   5.477   5.233
17335WAT      O52246   8.060   1.653   7.919
17335WAT     H152247   7.993   1.638   7.992
17335WAT     H252248   8.110   1.568   7.901
17336WAT      O52249   9.330   8.757   1.853
17336WAT     H152250   9.301   8.811   1.775
17336WAT     H252251   9.273   8.779   1.932
17337WAT      O52252   9.717   1.376   6.977
17337WAT     H152253   9.658   1.341   6.904
17337WAT     H252254   9.797   1.317   6.986
17338WAT      O52255   3.745   6.663   6.530
17338WAT     H152256   3.650   6.636   6.512
17338WAT     H252257   3.763   6.752   6.487
17339WAT      O52258   1.286   7.232   7.072
17339WAT     H152259   1.270   7.228   6.973
17339WAT     H252260   1.300   7.139   7.107
17340WAT      O52261   6.370   9.208   6.698
17340WAT     H152262   6.405   9.115   6.693
17340WAT     H252263   6.309   9.224   6.620
17341WAT      O52264   7.325   5.127   1.707
17341WAT     H152265   7.306   5.176   1.622
17341WAT     H252266   7.405   5.068   1.694
17342WAT      O52267   7.913   3.681   5.113
17342WAT     H152268   7.915   3.610   5.043
17342WAT     H252269   7.823   3.725   5.113
17343WAT      O52270   5.033   7.616   7.099
17343WAT     H152271   4.994   7.534   7.142
17343WAT     H252272   4.991   7.631   7.010
17344WAT      O52273   8.033   2.739   1.670
17344WAT     H152274   8.027   2.639   1.665
17344WAT     H252275   8.057   2.766   1.763
17345WAT      O52276   8.218   8.608   9.047
17345WAT     H152277   8.188   8.540   9.113
17345WAT     H252278   8.156   8.687   9.050
17346WAT      O52279   3.049   7.081   8.525
17346WAT     H152280   3.085   7.009   8.585
17346WAT     H252281   2.953   7.064   8.507
17347WAT      O52282   5.030   1.812   2.230
17347WAT     H152283   4.988   1.835   2.318
17347WAT     H252284   5.094   1.735   2.243
17348WAT      O52285   4.521   5.586   1.109
17348WAT     H152286   4.508   5.537   1.023
17348WAT     H252287   4.454   5.555   1.176
17349WAT      O52288   1.015   6.042   6.326
17349WAT     H152289   1.042   6.111   6.392
17349WAT     H252290   1.076   5.963   6.333
17350WAT      O52291   1.418   7.489   6.219
17350WAT     H152292   1.344   7.421   6.229
17350WAT     H252293   1.503   7.450   6.254
17351WAT      O52294   0.296   1.767   2.563
17351WAT     H152295   0.265   1.690   2.618
17351WAT     H252296   0.374   1.740   2.508
17352WAT      O52297   7.858   0.661   5.575
17352WAT     H152298   7.803   0.718   5.636
17352WAT     H252299   7.820   0.568   5.574
17353WAT      O52300   4.869   2.033   9.045
17353WAT     H152301   4.803   1.971   9.003
17353WAT     H252302   4.857   2.125   9.007
17354WAT      O52303   0.290   3.271   5.604
17354WAT     H152304   0.208   3.225   5.569
17354WAT     H252305   0.274   3.370   5.605
17355WAT      O52306   5.831   6.147   8.203
17355WAT     H152307   5.880   6.193   8.128
17355WAT     H252308   5.762   6.086   8.165
17356WAT      O52309   0.833   3.308   5.318
17356WAT     H152310   0.897   3.284   5.245
17356WAT     H252311   0.755   3.245   5.316
17357WAT      O52312   9.042   4.037   7.773
17357WAT     H152313   9.012   3.982   7.851
17357WAT     H252314   9.018   4.133   7.788
17358WAT      O52315   4.559   8.283   3.648
17358WAT     H152316   4.545   8.319   3.740
17358WAT     H252317   4.472   8.254   3.609
17359WAT      O52318   3.789   7.216   8.182
17359WAT     H152319   3.800   7.270   8.265
17359WAT     H252320   3.723   7.143   8.198
17360WAT      O52321   7.353   1.790   9.192
17360WAT     H152322   7.313   1.769   9.103
17360WAT     H252323   7.432   1.730   9.208
17361WAT      O52324   1.314   8.492   2.893
17361WAT     H152325   1.387   8.424   2.903
17361WAT     H252326   1.280   8.491   2.799
17362WAT      O52327   6.473   3.782   2.437
17362WAT     H152328   6.544   3.728   2.393
17362WAT     H252329   6.447   3.739   2.524
17363WAT      O52330   0.539   7.387   7.126
17363WAT     H152331   0.622   7.356   7.173
17363WAT     H252332   0.514   7.478   7.159
17364WAT      O52333   6.638   3.316   4.432
17364WAT     H152334   6.620   3.278   4.341
17364WAT     H252335   6.592   3.404   4.441
17365WAT      O52336   1.653   0.679   1.948
17365WAT     H152337   1.687   0.741   1.877
17365WAT     H252338   1.699   0.699   2.034
17366WAT      O52339   8.987   0.918   8.569
17366WAT     H152340   8.989   0.945   8.473
17366WAT     H252341   9.077   0.932   8.609
17367WAT      O52342   3.061   3.787   6.793
17367WAT     H152343   3.065   3.720   6.719
17367WAT     H252344   3.092   3.876   6.760
17368WAT      O52345   8.594   9.545   2.269
17368WAT     H152346   8.680   9.591   2.293
17368WAT     H252347   8.604   9.447   2.286
17369WAT      O52348   3.162   3.176   0.775
17369WAT     H152349   3.150   3.210   0.868
17369WAT     H252350   3.260   3.167   0.755
17370WAT      O52351   1.547   3.131   5.374
17370WAT     H152352   1.482   3.184   5.319
17370WAT     H252353   1.593   3.192   5.439
17371WAT      O52354   7.651   5.619   1.197
17371WAT     H152355   7.574   5.677   1.171
17371WAT     H252356   7.670   5.554   1.123
17372WAT      O52357   5.463   0.706   4.064
17372WAT     H152358   5.532   0.653   4.016
17372WAT     H252359   5.373   0.686   4.026
17373WAT      O52360   6.368   9.320   4.895
17373WAT     H152361   6.413   9.300   4.808
17373WAT     H252362   6.280   9.272   4.899
17374WAT      O52363   4.878   2.013   1.020
17374WAT     H152364   4.910   2.027   1.114
17374WAT     H252365   4.841   2.098   0.985
17375WAT      O52366   4.200   0.649   1.650
17375WAT     H152367   4.279   0.588   1.643
17375WAT     H252368   4.230   0.744   1.641
17376WAT      O52369   3.069   8.635   6.066
17376WAT     H152370   3.033   8.724   6.038
17376WAT     H252371   3.092   8.637   6.163
17377WAT      O52372   4.770   1.108   0.735
17377WAT     H152373   4.733   1.087   0.644
17377WAT     H252374   4.868   1.128   0.727
17378WAT      O52375   8.999   2.940   1.836
17378WAT     H152376   9.079   2.883   1.817
17378WAT     H252377   9.029   3.033   1.857
17379WAT      O52378   9.075   2.263   9.438
17379WAT     H152379   9.096   2.245   9.342
17379WAT     H252380   9.016   2.343   9.445
17380WAT      O52381   2.809   3.651   8.793
17380WAT     H152382   2.783   3.575   8.734
17380WAT     H252383   2.900   3.636   8.830
17381WAT      O52384   9.178   0.489   4.120
17381WAT     H152385   9.240   0.567   4.126
17381WAT     H252386   9.155   0.458   4.213
17382WAT      O52387   9.493   4.553   8.968
17382WAT     H152388   9.424   4.484   8.990
17382WAT     H252389   9.471   4.594   8.879
17383WAT      O52390   9.812   2.180   2.300
17383WAT     H152391   9.728   2.134   2.329
17383WAT     H252392   9.842   2.143   2.212
17384WAT      O52393   2.132   2.254   2.722
17384WAT     H152394   2.055   2.305   2.758
17384WAT     H252395   2.187   2.313   2.663
17385WAT      O52396   5.624   7.476   4.650
17385WAT     H152397   5.633   7.539   4.573
17385WAT     H252398   5.559   7.514   4.717
17386WAT      O52399   1.068   0.940   9.094
17386WAT     H152400   1.027   1.008   9.032
17386WAT     H252401   0.996   0.889   9.140
17387WAT      O52402   4.369   0.943   1.299
17387WAT     H152403   4.280   0.978   1.330
17387WAT     H252404   4.377   0.954   1.200
17388WAT      O52405   5.429   0.329   0.722
17388WAT     H152406   5.467   0.317   0.814
17388WAT     H252407   5.370   0.251   0.700
17389WAT      O52408   7.554   1.678   1.472
17389WAT     H152409   7.484   1.715   1.534
17389WAT     H252410   7.509   1.629   1.397
17390WAT      O52411   4.809   5.403   4.552
17390WAT     H152412   4.782   5.326   4.494
17390WAT     H252413   4.909   5.412   4.550
17391WAT      O52414   5.420   5.957   1.569
17391WAT     H152415   5.427   6.057   1.568
17391WAT     H252416   5.469   5.921   1.649
17392WAT      O52417   4.325   2.200   6.240
17392WAT     H152418   4.339   2.130   6.170
17392WAT     H252419   4.263   2.270   6.206
17393WAT      O52420   0.746   1.590   7.787
17393WAT     H152421   0.751   1.689   7.795
17393WAT     H252422   0.781   1.562   7.697
17394WAT      O52423   4.319   2.410   2.120
17394WAT     H152424   4.304   2.319   2.081
17394WAT     H252425   4.402   2.409   2.175
17395WAT      O52426   6.042   7.109   5.025
17395WAT     H152427   6.007   7.033   5.079
17395WAT     H252428   6.141   7.097   5.012
17396WAT      O52429   5.225   5.396   6.063
17396WAT     H152430   5.221   5.297   6.059
17396WAT     H252431   5.256   5.425   6.153
17397WAT      O52432   3.834   5.663   4.523
17397WAT     H152433   3.888   5.618   4.452
17397WAT     H252434   3.740   5.629   4.520
17398WAT      O52435   6.229   7.041   2.714
17398WAT     H152436   6.170   6.961   2.725
17398WAT     H252437   6.305   7.036   2.780
17399WAT      O52438   9.424   4.580   4.483
17399WAT     H152439   9.488   4.519   4.530
17399WAT     H252440   9.372   4.527   4.416
17400WAT      O52441   9.702   4.301   2.982
17400WAT     H152442   9.724   4.382   2.928
17400WAT     H252443   9.627   4.251   2.939
17401WAT      O52444   1.023   5.344   3.648
17401WAT     H152445   1.006   5.438   3.680
17401WAT     H252446   1.096   5.304   3.703
17402WAT      O52447   7.736   5.199   3.676
17402WAT     H152448   7.758   5.107   3.642
17402WAT     H252449   7.762   5.206   3.772
17403WAT      O52450   4.632   0.179   3.096
17403WAT     H152451   4.723   0.213   3.119
17403WAT     H252452   4.640   0.109   3.026
17404WAT      O52453   7.781   2.351   6.406
17404WAT     H152454   7.853   2.404   6.361
17404WAT     H252455   7.773   2.261   6.363
17405WAT      O52456   6.218   4.132   0.665
17405WAT     H152457   6.166   4.070   0.723
17405WAT     H252458   6.316   4.119   0.682
17406WAT      O52459   1.705   7.199   4.626
17406WAT     H152460   1.636   7.127   4.632
17406WAT     H252461   1.660   7.287   4.608
17407WAT      O52462   5.524   2.564   7.465
17407WAT     H152463   5.587   2.487   7.466
17407WAT     H252464   5.497   2.584   7.370
17408WAT      O52465   4.319   4.135   0.891
17408WAT     H152466   4.264   4.218   0.902
17408WAT     H252467   4.364   4.136   0.801
17409WAT      O52468   5.402   8.594   8.307
17409WAT     H152469   5.400   8.495   8.295
17409WAT     H252470   5.489   8.630   8.273
17410WAT      O52471   8.109   4.226   7.281
17410WAT     H152472   8.191   4.216   7.224
17410WAT     H252473   8.128   4.286   7.358
17411WAT      O52474   5.628   8.706   0.100
17411WAT     H152475   5.653   8.721   0.196
17411WAT     H252476   5.539   8.660   0.095
17412WAT      O52477   1.004   5.150   2.861
17412WAT     H152478   0.983   5.156   2.958
17412WAT     H252479   0.928   5.187   2.808
17413WAT      O52480   3.817   3.784   9.419
17413WAT     H152481   3.867   3.703   9.390
17413WAT     H252482   3.719   3.765   9.419
17414WAT      O52483   2.691   3.672   3.631
17414WAT     H152484   2.764   3.692   3.697
17414WAT     H252485   2.725   3.687   3.538
17415WAT      O52486   6.288   9.663   4.393
17415WAT     H152487   6.296   9.601   4.315
17415WAT     H252488   6.305   9.757   4.362
17416WAT      O52489   6.658   3.154   0.481
17416WAT     H152490   6.739   3.209   0.462
17416WAT     H252491   6.580   3.214   0.500
17417WAT      O52492   1.774   4.231   1.600
17417WAT     H152493   1.870   4.239   1.573
17417WAT     H252494   1.733   4.154   1.551
17418WAT      O52495   9.411   6.670   6.568
17418WAT     H152496   9.376   6.595   6.512
17418WAT     H252497   9.510   6.677   6.556
17419WAT      O52498   1.848   7.528   2.385
17419WAT     H152499   1.838   7.539   2.484
17419WAT     H252500   1.795   7.449   2.354
17420WAT      O52501   1.559   1.794   5.068
17420WAT     H152502   1.475   1.778   5.121
17420WAT     H252503   1.637   1.757   5.117
17421WAT      O52504   7.466   2.572   2.741
17421WAT     H152505   7.444   2.484   2.784
17421WAT     H252506   7.503   2.634   2.811
17422WAT      O52507   8.967   3.830   6.109
17422WAT     H152508   8.899   3.773   6.064
17422WAT     H252509   8.940   3.926   6.103
17423WAT      O52510   2.344   9.169   3.837
17423WAT     H152511   2.249   9.141   3.848
17423WAT     H252512   2.388   9.174   3.927
17424WAT      O52513   8.110   0.119   2.456
17424WAT     H152514   8.187   0.180   2.435
17424WAT     H252515   8.024   0.171   2.448
17425WAT      O52516   4.134   4.931   6.950
17425WAT     H152517   4.231   4.932   6.924
17425WAT     H252518   4.115   4.850   7.006
17426WAT      O52519   8.169   4.115   1.447
17426WAT     H152520   8.222   4.031   1.441
17426WAT     H252521   8.149   4.149   1.355
17427WAT      O52522   4.629   4.052   3.881
17427WAT     H152523   4.650   4.128   3.819
17427WAT     H252524   4.714   4.013   3.916
17428WAT      O52525   7.178   4.632   4.113
17428WAT     H152526   7.274   4.627   4.138
17428WAT     H252527   7.128   4.556   4.155
17429WAT      O52528   6.731   0.899   6.208
17429WAT     H152529   6.730   0.867   6.302
17429WAT     H252530   6.822   0.885   6.168
17430WAT      O52531   2.657   7.648   9.837
17430WAT     H152532   2.649   7.601   9.749
17430WAT     H252533   2.753   7.673   9.852
17431WAT      O52534   9.676   8.660   0.479
17431WAT     H152535   9.690   8.665   0.578
17431WAT     H252536   9.579   8.645   0.459
17432WAT      O52537   1.515   6.306   5.639
17432WAT     H152538   1.505   6.390   5.586
17432WAT     H252539   1.611   6.278   5.639
17433WAT      O52540   3.539   3.533   9.252
17433WAT     H152541   3.502   3.576   9.170
17433WAT     H252542   3.475   3.465   9.287
17434WAT      O52543   3.967   6.389   3.482
17434WAT     H152544   4.010   6.300   3.497
17434WAT     H252545   3.869   6.383   3.501
17435WAT      O52546   6.531   6.516   6.291
17435WAT     H152547   6.509   6.494   6.386
17435WAT     H252548   6.536   6.431   6.238
17436WAT      O52549   7.209   6.923   7.280
17436WAT     H152550   7.231   6.886   7.190
17436WAT     H252551   7.151   7.004   7.269
17437WAT      O52552   6.424   4.457   9.244
17437WAT     H152553   6.400   4.519   9.170
17437WAT     H252554   6.494   4.498   9.302
17438WAT      O52555   7.412   2.863   5.602
17438WAT     H152556   7.360   2.893   5.522
17438WAT     H252557   7.509   2.862   5.581
17439WAT      O52558   0.670   5.379   3.508
17439WAT     H152559   0.605   5.303   3.504
17439WAT     H252560   0.753   5.354   3.457
17440WAT      O52561   5.851   8.895   4.701
17440WAT     H152562   5.911   8.975   4.699
17440WAT     H252563   5.901   8.816   4.737
17441WAT      O52564   3.267   2.646   3.394
17441WAT     H152565   3.308   2.644   3.303
17441WAT     H252566   3.273   2.739   3.431
17442WAT      O52567   8.111   6.480   3.584
17442WAT     H152568   8.143   6.494   3.490
17442WAT     H252569   8.109   6.568   3.632
17443WAT      O52570   0.434   7.165   6.270
17443WAT     H152571   0.530   7.187   6.289
17443WAT     H252572   0.430   7.078   6.221
17444WAT      O52573   2.229   1.925   6.654
17444WAT     H152574   2.314   1.888   6.619
17444WAT     H252575   2.232   1.928   6.754
17445WAT      O52576   6.980   7.196   4.467
17445WAT     H152577   6.900   7.256   4.473
17445WAT     H252578   7.058   7.239   4.512
17446WAT      O52579   9.117   8.961   2.869
17446WAT     H152580   9.100   8.936   2.965
17446WAT     H252581   9.034   8.998   2.829
17447WAT      O52582   1.906   1.745   3.441
17447WAT     H152583   1.988   1.756   3.496
17447WAT     H252584   1.825   1.742   3.501
17448WAT      O52585   9.160   5.043   6.651
17448WAT     H152586   9.218   5.067   6.573
17448WAT     H252587   9.203   5.076   6.735
17449WAT      O52588   6.392   3.936   2.026
17449WAT     H152589   6.466   3.963   2.087
17449WAT     H252590   6.354   3.848   2.055
17450WAT      O52591   5.857   5.466   2.380
17450WAT     H152592   5.779   5.410   2.350
17450WAT     H252593   5.931   5.458   2.313
17451WAT      O52594   8.214   2.763   6.996
17451WAT     H152595   8.136   2.804   6.948
17451WAT     H252596   8.258   2.832   7.053
17452WAT      O52597   1.287   1.062   9.225
17452WAT     H152598   1.215   1.013   9.176
17452WAT     H252599   1.337   0.999   9.284
17453WAT      O52600   4.261   1.113   3.932
17453WAT     H152601   4.228   1.025   3.967
17453WAT     H252602   4.353   1.101   3.894
17454WAT      O52603   9.221   9.438   6.519
17454WAT     H152604   9.247   9.397   6.431
17454WAT     H252605   9.126   9.413   6.540
17455WAT      O52606   8.053   7.890   1.489
17455WAT     H152607   8.148   7.907   1.463
17455WAT     H252608   7.993   7.954   1.439
17456WAT      O52609   6.911   9.478   1.571
17456WAT     H152610   6.897   9.411   1.498
17456WAT     H252611   6.999   9.462   1.615
17457WAT      O52612   7.233   7.736   8.091
17457WAT     H152613   7.259   7.833   8.089
17457WAT     H252614   7.183   7.717   8.175
17458WAT      O52615   7.426   4.639   7.048
17458WAT     H152616   7.475   4.568   7.097
17458WAT     H252617   7.479   4.724   7.050
17459WAT      O52618   0.254   3.664   6.034
17459WAT     H152619   0.275   3.566   6.038
17459WAT     H252620   0.259   3.702   6.126
17460WAT      O52621   5.158   2.162   5.882
17460WAT     H152622   5.177   2.240   5.822
17460WAT     H252623   5.225   2.162   5.957
17461WAT      O52624   4.799   5.664   1.803
17461WAT     H152625   4.715   5.699   1.843
17461WAT     H252626   4.782   5.635   1.709
17462WAT      O52627   2.154   5.136   7.516
17462WAT     H152628   2.097   5.217   7.532
17462WAT     H252629   2.098   5.054   7.521
17463WAT      O52630   7.975   8.099   0.292
17463WAT     H152631   7.959   8.008   0.252
17463WAT     H252632   8.047   8.093   0.360
17464WAT      O52633   5.300   6.945   8.863
17464WAT     H152634   5.221   6.989   8.906
17464WAT     H252635   5.290   6.845   8.871
17465WAT      O52636   1.554   0.201   9.410
17465WAT     H152637   1.571   0.107   9.382
17465WAT     H252638   1.577   0.263   9.335
17466WAT      O52639   2.024   7.945   6.972
17466WAT     H152640   2.061   7.906   7.056
17466WAT     H252641   2.001   8.041   6.987
17467WAT      O52642   0.943   1.156   9.003
17467WAT     H152643   0.943   1.184   9.099
17467WAT     H252644   0.850   1.159   8.967
17468WAT      O52645   0.897   1.224   3.107
17468WAT     H152646   0.803   1.260   3.102
17468WAT     H252647   0.908   1.151   3.040
17469WAT      O52648   8.159   5.092   0.772
17469WAT     H152649   8.122   5.185   0.780
17469WAT     H252650   8.132   5.038   0.851
17470WAT      O52651   4.756   6.978   9.334
17470WAT     H152652   4.717   7.068   9.315
17470WAT     H252653   4.724   6.946   9.424
17471WAT      O52654   4.859   1.168   3.766
17471WAT     H152655   4.856   1.070   3.786
17471WAT     H252656   4.954   1.200   3.771
17472WAT      O52657   9.746   3.888   2.947
17472WAT     H152658   9.794   3.963   2.992
17472WAT     H252659   9.650   3.887   2.977
17473WAT      O52660   6.488   4.459   5.108
17473WAT     H152661   6.495   4.451   5.207
17473WAT     H252662   6.488   4.556   5.083
17474WAT      O52663   1.733   1.075   1.739
17474WAT     H152664   1.674   1.129   1.679
17474WAT     H252665   1.802   1.134   1.779
17475WAT      O52666   2.169   0.580   1.041
17475WAT     H152667   2.080   0.626   1.030
17475WAT     H252668   2.232   0.615   0.972
17476WAT      O52669   5.576   0.777   0.965
17476WAT     H152670   5.554   0.731   0.879
17476WAT     H252671   5.552   0.874   0.959
17477WAT      O52672   9.024   4.686   7.578
17477WAT     H152673   8.939   4.728   7.546
17477WAT     H252674   9.008   4.644   7.668
17478WAT      O52675   9.765   3.825   1.435
17478WAT     H152676   9.699   3.827   1.511
17478WAT     H252677   9.846   3.878   1.459
17479WAT      O52678   3.743   2.288   1.486
17479WAT     H152679   3.788   2.256   1.402
17479WAT     H252680   3.802   2.354   1.533
17480WAT      O52681   2.050   2.456   5.138
17480WAT     H152682   2.025   2.529   5.202
17480WAT     H252683   2.137   2.478   5.094
17481WAT      O52684   3.192   4.565   3.163
17481WAT     H152685   3.190   4.573   3.263
17481WAT     H252686   3.204   4.656   3.123
17482WAT      O52687   5.578   2.678   7.948
17482WAT     H152688   5.530   2.651   8.031
17482WAT     H252689   5.513   2.677   7.871
17483WAT      O52690   5.914   6.212   6.557
17483WAT     H152691   5.907   6.143   6.485
17483WAT     H252692   5.872   6.177   6.641
17484WAT      O52693   1.066   3.217   4.405
17484WAT     H152694   1.039   3.122   4.387
17484WAT     H252695   1.060   3.235   4.503
17485WAT      O52696   6.844   5.173   6.747
17485WAT     H152697   6.930   5.159   6.798
17485WAT     H252698   6.801   5.258   6.778
17486WAT      O52699   9.393   5.336   7.300
17486WAT     H152700   9.428   5.421   7.339
17486WAT     H252701   9.304   5.315   7.339
17487WAT      O52702   3.374   4.145   7.456
17487WAT     H152703   3.293   4.194   7.489
17487WAT     H252704   3.347   4.057   7.418
17488WAT      O52705   4.813   3.019   8.895
17488WAT     H152706   4.748   3.038   8.968
17488WAT     H252707   4.816   3.097   8.832
17489WAT      O52708   6.398   8.506   2.189
17489WAT     H152709   6.344   8.551   2.117
17489WAT     H252710   6.351   8.423   2.219
17490WAT      O52711   3.370   8.150   4.709
17490WAT     H152712   3.276   8.116   4.711
17490WAT     H252713   3.386   8.199   4.623
17491WAT      O52714   8.996   0.993   7.944
17491WAT     H152715   8.994   0.932   7.864
17491WAT     H252716   8.903   1.006   7.978
17492WAT      O52717   1.079   6.458   0.240
17492WAT     H152718   1.066   6.444   0.339
17492WAT     H252719   1.176   6.468   0.220
17493WAT      O52720   8.419   2.792   6.585
17493WAT     H152721   8.468   2.862   6.532
17493WAT     H252722   8.431   2.810   6.683
17494WAT      O52723   3.568   9.036   4.747
17494WAT     H152724   3.511   9.118   4.742
17494WAT     H252725   3.662   9.060   4.723
17495WAT      O52726   5.074   8.060   6.649
17495WAT     H152727   4.988   8.020   6.618
17495WAT     H252728   5.074   8.158   6.630
17496WAT      O52729   9.066   5.758   0.022
17496WAT     H152730   9.054   5.733  -0.074
17496WAT     H252731   8.986   5.729   0.074
17497WAT      O52732   7.865   3.165   1.939
17497WAT     H152733   7.796   3.221   1.893
17497WAT     H252734   7.952   3.214   1.940
17498WAT      O52735   6.001   1.335   9.076
17498WAT     H152736   5.905   1.315   9.093
17498WAT     H252737   6.015   1.434   9.073
17499WAT      O52738   1.035   4.953   9.141
17499WAT     H152739   1.031   4.856   9.163
17499WAT     H252740   1.124   4.975   9.102
17500WAT      O52741   0.609   8.943   1.098
17500WAT     H152742   0.594   9.042   1.100
17500WAT     H252743   0.550   8.901   1.030
17501WAT      O52744   0.874   1.135   2.804
17501WAT     H152745   0.837   1.205   2.742
17501WAT     H252746   0.851   1.044   2.769
17502WAT      O52747   8.838   7.261   8.644
17502WAT     H152748   8.745   7.282   8.614
17502WAT     H252749   8.836   7.228   8.739
17503WAT      O52750   5.131   0.701   7.475
17503WAT     H152751   5.205   0.711   7.409
17503WAT     H252752   5.148   0.760   7.555
17504WAT      O52753   0.915   9.063   1.056
17504WAT     H152754   0.968   9.018   1.127
17504WAT     H252755   0.830   9.013   1.041
17505WAT      O52756   2.657   3.434   8.209
17505WAT     H152757   2.734   3.426   8.273
17505WAT     H252758   2.590   3.499   8.245
17506WAT      O52759   0.630   2.712   0.180
17506WAT     H152760   0.631   2.681   0.084
17506WAT     H252761   0.601   2.636   0.238
17507WAT      O52762   7.218   1.244   0.742
17507WAT     H152763   7.245   1.284   0.655
17507WAT     H252764   7.199   1.316   0.808
17508WAT      O52765   4.829   6.719   0.495
17508WAT     H152766   4.928   6.711   0.506
17508WAT     H252767   4.787   6.740   0.583
17509WAT      O52768   7.572   9.662   0.893
17509WAT     H152769   7.638   9.701   0.828
17509WAT     H252770   7.516   9.593   0.846
17510WAT      O52771   9.601   7.938   6.728
17510WAT     H152772   9.555   7.961   6.643
17510WAT     H252773   9.694   7.975   6.727
17511WAT      O52774   1.855   4.892   5.406
17511WAT     H152775   1.891   4.905   5.314
17511WAT     H252776   1.853   4.795   5.428
17512WAT      O52777   6.381   3.937   4.969
17512WAT     H152778   6.473   3.922   5.004
17512WAT     H252779   6.344   3.850   4.934
17513WAT      O52780   6.178   9.112   1.046
17513WAT     H152781   6.267   9.106   1.002
17513WAT     H252782   6.190   9.120   1.145
17514WAT      O52783   3.376   5.550   9.840
17514WAT     H152784   3.473   5.575   9.833
17514WAT     H252785   3.332   5.605   9.911
17515WAT      O52786   9.844   4.640   2.368
17515WAT     H152787   9.924   4.603   2.416
17515WAT     H252788   9.775   4.568   2.358
17516WAT      O52789   3.784   9.320   3.348
17516WAT     H152790   3.836   9.236   3.362
17516WAT     H252791   3.820   9.391   3.408
17517WAT      O52792   4.439   2.177   0.510
17517WAT     H152793   4.409   2.266   0.545
17517WAT     H252794   4.359   2.120   0.491
17518WAT      O52795   6.875   0.097   9.246
17518WAT     H152796   6.785   0.085   9.287
17518WAT     H252797   6.900   0.013   9.196
17519WAT      O52798   6.638   3.795   4.054
17519WAT     H152799   6.541   3.793   4.078
17519WAT     H252800   6.655   3.871   3.991
17520WAT      O52801   6.606   0.071   1.659
17520WAT     H152802   6.555   0.157   1.660
17520WAT     H252803   6.615   0.036   1.753
17521WAT      O52804   9.532   7.130   1.021
17521WAT     H152805   9.583   7.213   1.041
17521WAT     H252806   9.532   7.114   0.923
17522WAT      O52807   4.948   4.164   9.388
17522WAT     H152808   4.930   4.245   9.332
17522WAT     H252809   4.981   4.193   9.478
17523WAT      O52810   2.944   8.614   3.538
17523WAT     H152811   2.903   8.546   3.477
17523WAT     H252812   2.991   8.684   3.483
17524WAT      O52813   3.315   0.298   7.361
17524WAT     H152814   3.240   0.344   7.409
17524WAT     H252815   3.399   0.351   7.372
17525WAT      O52816   0.731   7.956   1.118
17525WAT     H152817   0.710   8.047   1.083
17525WAT     H252818   0.647   7.903   1.125
17526WAT      O52819   4.670   9.435   9.749
17526WAT     H152820   4.631   9.388   9.828
17526WAT     H252821   4.768   9.414   9.743
17527WAT      O52822   9.044   0.597   7.962
17527WAT     H152823   9.117   0.602   8.030
17527WAT     H252824   9.085   0.589   7.871
17528WAT      O52825   5.977   0.895   2.602
17528WAT     H152826   5.992   0.992   2.585
17528WAT     H252827   6.042   0.863   2.671
17529WAT      O52828   0.217   8.926   9.021
17529WAT     H152829   0.175   8.965   8.939
17529WAT     H252830   0.146   8.897   9.085
17530WAT      O52831   7.956   6.201   2.540
17530WAT     H152832   8.020   6.227   2.612
17530WAT     H252833   7.968   6.105   2.518
17531WAT      O52834   5.608   3.686   8.935
17531WAT     H152835   5.635   3.777   8.968
17531WAT     H252836   5.657   3.616   8.988
17532WAT      O52837   7.744   4.817   2.489
17532WAT     H152838   7.691   4.780   2.566
17532WAT     H252839   7.794   4.898   2.519
17533WAT      O52840   5.549   3.266   6.483
17533WAT     H152841   5.510   3.350   6.520
17533WAT     H252842   5.632   3.242   6.534
17534WAT      O52843   6.259   4.902   8.707
17534WAT     H152844   6.254   4.877   8.804
17534WAT     H252845   6.333   4.968   8.694
17535WAT      O52846   8.115   9.005   3.366
17535WAT     H152847   8.051   8.937   3.403
17535WAT     H252848   8.080   9.097   3.383
17536WAT      O52849   1.504   4.839   3.311
17536WAT     H152850   1.425   4.872   3.362
17536WAT     H252851   1.534   4.908   3.246
17537WAT      O52852   5.471   0.276   3.619
17537WAT     H152853   5.541   0.224   3.569
17537WAT     H252854   5.509   0.307   3.707
17538WAT      O52855   4.630   2.825   4.341
17538WAT     H152856   4.656   2.764   4.415
17538WAT     H252857   4.647   2.780   4.253
17539WAT      O52858   9.322   3.651   9.153
17539WAT     H152859   9.347   3.682   9.244
17539WAT     H252860   9.233   3.604   9.156
17540WAT      O52861   1.898   1.884   9.403
17540WAT     H152862   1.997   1.883   9.415
17540WAT     H252863   1.875   1.857   9.310
17541WAT      O52864   5.033   1.336   5.123
17541WAT     H152865   4.966   1.297   5.061
17541WAT     H252866   4.989   1.357   5.210
17542WAT      O52867   2.560   8.263   5.962
17542WAT     H152868   2.577   8.248   6.060
17542WAT     H252869   2.608   8.345   5.932
17543WAT      O52870   7.862   6.442   4.198
17543WAT     H152871   7.855   6.458   4.297
17543WAT     H252872   7.790   6.379   4.169
17544WAT      O52873   6.254   1.856   6.083
17544WAT     H152874   6.258   1.942   6.134
17544WAT     H252875   6.216   1.873   5.992
17545WAT      O52876   0.886   9.347   6.338
17545WAT     H152877   0.824   9.275   6.306
17545WAT     H252878   0.847   9.436   6.316
17546WAT      O52879   1.430   0.252   8.275
17546WAT     H152880   1.381   0.320   8.220
17546WAT     H252881   1.386   0.163   8.263
17547WAT      O52882   9.590   6.660   2.637
17547WAT     H152883   9.675   6.698   2.673
17547WAT     H252884   9.591   6.664   2.537
17548WAT      O52885   1.067   4.710   9.289
17548WAT     H152886   1.011   4.627   9.295
17548WAT     H252887   1.164   4.685   9.296
17549WAT      O52888   0.397   9.608   5.611
17549WAT     H152889   0.335   9.680   5.642
17549WAT     H252890   0.487   9.646   5.593
17550WAT      O52891   5.307   1.805   4.643
17550WAT     H152892   5.285   1.828   4.549
17550WAT     H252893   5.276   1.713   4.664
17551WAT      O52894   7.725   6.215   2.807
17551WAT     H152895   7.640   6.205   2.859
17551WAT     H252896   7.742   6.130   2.756
17552WAT      O52897   2.554   6.345   1.415
17552WAT     H152898   2.555   6.422   1.352
17552WAT     H252899   2.570   6.378   1.508
17553WAT      O52900   7.247   9.472   8.674
17553WAT     H152901   7.201   9.392   8.711
17553WAT     H252902   7.195   9.555   8.697
17554WAT      O52903   2.688   2.239   2.113
17554WAT     H152904   2.594   2.205   2.124
17554WAT     H252905   2.751   2.162   2.111
17555WAT      O52906   3.765   6.251   5.409
17555WAT     H152907   3.693   6.309   5.372
17555WAT     H252908   3.795   6.186   5.339
17556WAT      O52909   1.003   7.630   4.646
17556WAT     H152910   0.966   7.674   4.727
17556WAT     H252911   1.095   7.595   4.666
17557WAT      O52912   4.465   7.003   9.888
17557WAT     H152913   4.490   7.070   9.819
17557WAT     H252914   4.368   6.981   9.881
17558WAT      O52915   3.803   5.675   2.436
17558WAT     H152916   3.760   5.688   2.347
17558WAT     H252917   3.737   5.695   2.509
17559WAT      O52918   0.774   3.475   3.386
17559WAT     H152919   0.856   3.520   3.422
17559WAT     H252920   0.793   3.378   3.373
17560WAT      O52921   7.035   0.859   6.454
17560WAT     H152922   7.007   0.764   6.467
17560WAT     H252923   7.121   0.862   6.402
17561WAT      O52924   9.294   0.818   1.922
17561WAT     H152925   9.267   0.915   1.925
17561WAT     H252926   9.234   0.769   1.859
17562WAT      O52927   9.442   2.879   2.957
17562WAT     H152928   9.404   2.814   2.891
17562WAT     H252929   9.512   2.834   3.011
17563WAT      O52930   0.345   2.473   6.860
17563WAT     H152931   0.341   2.497   6.763
17563WAT     H252932   0.334   2.374   6.869
17564WAT      O52933   2.046   6.229   5.500
17564WAT     H152934   2.046   6.273   5.410
17564WAT     H252935   2.022   6.297   5.570
17565WAT      O52936   2.817   2.787   1.448
17565WAT     H152937   2.883   2.826   1.512
17565WAT     H252938   2.843   2.693   1.427
17566WAT      O52939   0.120   0.714   5.130
17566WAT     H152940   0.093   0.660   5.051
17566WAT     H252941   0.184   0.661   5.186
17567WAT      O52942   5.212   1.896   4.403
17567WAT     H152943   5.240   1.899   4.307
17567WAT     H252944   5.133   1.836   4.413
17568WAT      O52945   6.434   7.412   7.917
17568WAT     H152946   6.480   7.437   7.831
17568WAT     H252947   6.432   7.312   7.925
17569WAT      O52948   8.317   4.125   2.629
17569WAT     H152949   8.317   4.075   2.715
17569WAT     H252950   8.409   4.162   2.612
17570WAT      O52951   1.335   1.274   3.607
17570WAT     H152952   1.290   1.202   3.555
17570WAT     H252953   1.407   1.235   3.664
17571WAT      O52954   9.677   7.741   0.009
17571WAT     H152955   9.772   7.767  -0.006
17571WAT     H252956   9.672   7.669   0.078
17572WAT      O52957   1.429   7.414   6.668
17572WAT     H152958   1.508   7.385   6.723
17572WAT     H252959   1.436   7.511   6.648
17573WAT      O52960   9.570   2.522   7.973
17573WAT     H152961   9.632   2.569   8.035
17573WAT     H252962   9.477   2.559   7.983
17574WAT      O52963   4.527   5.238   2.393
17574WAT     H152964   4.457   5.275   2.331
17574WAT     H252965   4.581   5.313   2.430
17575WAT      O52966   4.453   8.954   3.641
17575WAT     H152967   4.405   8.871   3.668
17575WAT     H252968   4.395   9.033   3.656
17576WAT      O52969   9.302   2.065   0.780
17576WAT     H152970   9.378   2.075   0.716
17576WAT     H252971   9.220   2.109   0.742
17577WAT      O52972   6.588   6.161   2.311
17577WAT     H152973   6.600   6.174   2.409
17577WAT     H252974   6.663   6.205   2.262
17578WAT      O52975   8.710   4.286   6.506
17578WAT     H152976   8.733   4.189   6.501
17578WAT     H252977   8.778   4.334   6.561
17579WAT      O52978   7.073   4.140   9.483
17579WAT     H152979   7.090   4.147   9.385
17579WAT     H252980   7.033   4.226   9.516
17580WAT      O52981   6.736   9.289   6.840
17580WAT     H152982   6.685   9.330   6.764
17580WAT     H252983   6.683   9.212   6.877
17581WAT      O52984   5.221   4.272   9.360
17581WAT     H152985   5.158   4.278   9.437
17581WAT     H252986   5.170   4.275   9.274
17582WAT      O52987   5.232   9.121   4.096
17582WAT     H152988   5.308   9.163   4.047
17582WAT     H252989   5.147   9.137   4.046
17583WAT      O52990   9.122   1.086   1.149
17583WAT     H152991   9.191   1.053   1.085
17583WAT     H252992   9.040   1.028   1.142
17584WAT      O52993   4.778   3.352   4.021
17584WAT     H152994   4.876   3.343   4.000
17584WAT     H252995   4.739   3.425   3.964
17585WAT      O52996   8.692   6.116   2.317
17585WAT     H152997   8.624   6.128   2.245
17585WAT     H252998   8.735   6.204   2.338
17586WAT      O52999   7.989   4.790   3.589
17586WAT     H153000   8.039   4.721   3.537
17586WAT     H253001   8.002   4.880   3.547
17587WAT      O53002   8.497   5.840   5.521
17587WAT     H153003   8.459   5.932   5.527
17587WAT     H253004   8.437   5.782   5.467
17588WAT      O53005   2.412   6.662   2.564
17588WAT     H153006   2.419   6.652   2.663
17588WAT     H253007   2.441   6.754   2.538
17589WAT      O53008   5.676   0.641   7.575
17589WAT     H153009   5.654   0.737   7.594
17589WAT     H253010   5.612   0.605   7.508
17590WAT      O53011   2.540   6.994   2.185
17590WAT     H153012   2.527   7.072   2.247
17590WAT     H253013   2.563   6.913   2.238
17591WAT      O53014   1.605   7.730   3.705
17591WAT     H153015   1.690   7.773   3.734
17591WAT     H253016   1.556   7.792   3.644
17592WAT      O53017   9.765   7.745   0.908
17592WAT     H153018   9.850   7.714   0.866
17592WAT     H253019   9.703   7.782   0.838
17593WAT      O53020   5.852   9.436   2.743
17593WAT     H153021   5.801   9.508   2.697
17593WAT     H253022   5.941   9.471   2.772
17594WAT      O53023   4.457   5.031   7.524
17594WAT     H153024   4.519   4.997   7.595
17594WAT     H253025   4.364   5.003   7.545
17595WAT      O53026   6.325   8.341   3.847
17595WAT     H153027   6.256   8.346   3.919
17595WAT     H253028   6.406   8.293   3.880
17596WAT      O53029   3.995   2.810   2.920
17596WAT     H153030   4.047   2.772   2.843
17596WAT     H253031   3.903   2.771   2.921
17597WAT      O53032   9.483   2.354   4.992
17597WAT     H153033   9.470   2.293   4.914
17597WAT     H253034   9.534   2.306   5.064
17598WAT      O53035   0.569   7.427   2.521
17598WAT     H153036   0.550   7.524   2.504
17598WAT     H253037   0.508   7.394   2.594
17599WAT      O53038   3.821   2.033   5.104
17599WAT     H153039   3.735   2.072   5.138
17599WAT     H253040   3.840   2.068   5.012
17600WAT      O53041   2.919   6.249   2.610
17600WAT     H153042   2.928   6.212   2.517
17600WAT     H253043   2.941   6.177   2.676
17601WAT      O53044   8.278   8.104   3.908
17601WAT     H153045   8.334   8.095   3.990
17601WAT     H253046   8.216   8.182   3.918
17602WAT      O53047   4.727   7.145   3.354
17602WAT     H153048   4.670   7.193   3.287
17602WAT     H253049   4.822   7.147   3.323
17603WAT      O53050   2.633   9.657   4.207
17603WAT     H153051   2.617   9.559   4.213
17603WAT     H253052   2.584   9.703   4.282
17604WAT      O53053   7.261   4.799   0.777
17604WAT     H153054   7.249   4.898   0.774
17604WAT     H253055   7.338   4.773   0.718
17605WAT      O53056   4.156   2.262   2.681
17605WAT     H153057   4.209   2.179   2.700
17605WAT     H253058   4.194   2.338   2.734
17606WAT      O53059   7.999   0.110   5.767
17606WAT     H153060   8.085   0.132   5.721
17606WAT     H253061   7.923   0.123   5.705
17607WAT      O53062   9.345   1.469   4.417
17607WAT     H153063   9.419   1.459   4.351
17607WAT     H253064   9.273   1.527   4.378
17608WAT      O53065   1.107   0.054   5.920
17608WAT     H153066   1.153  -0.017   5.868
17608WAT     H253067   1.011   0.028   5.934
17609WAT      O53068   8.944   8.318   8.378
17609WAT     H153069   9.034   8.316   8.335
17609WAT     H253070   8.920   8.227   8.410
17610WAT      O53071   8.015   3.933   0.887
17610WAT     H153072   8.104   3.915   0.927
17610WAT     H253073   7.953   3.967   0.957
17611WAT      O53074   3.064   7.689   3.200
17611WAT     H153075   3.120   7.760   3.243
17611WAT     H253076   2.984   7.670   3.257
17612WAT      O53077   0.646   4.388   6.363
17612WAT     H153078   0.742   4.402   6.338
17612WAT     H253079   0.617   4.460   6.425
17613WAT      O53080   4.668   6.589   6.842
17613WAT     H153081   4.642   6.642   6.761
17613WAT     H253082   4.734   6.518   6.816
17614WAT      O53083   9.822   5.856   6.824
17614WAT     H153084   9.769   5.779   6.786
17614WAT     H253085   9.871   5.826   6.905
17615WAT      O53086   7.340   6.449   7.467
17615WAT     H153087   7.374   6.536   7.433
17615WAT     H253088   7.244   6.438   7.440
17616WAT      O53089   5.821   7.192   7.762
17616WAT     H153090   5.905   7.179   7.816
17616WAT     H253091   5.845   7.229   7.672
17617WAT      O53092   6.011   6.693   0.246
17617WAT     H153093   6.069   6.686   0.328
17617WAT     H253094   5.987   6.602   0.214
17618WAT      O53095   0.707   7.762   4.293
17618WAT     H153096   0.779   7.703   4.256
17618WAT     H253097   0.628   7.761   4.232
17619WAT      O53098   3.344   0.207   3.012
17619WAT     H153099   3.330   0.214   2.914
17619WAT     H253100   3.437   0.238   3.035
17620WAT      O53101   7.696   5.282   7.721
17620WAT     H153102   7.752   5.349   7.769
17620WAT     H253103   7.639   5.233   7.787
17621WAT      O53104   8.438   6.761   6.934
17621WAT     H153105   8.537   6.752   6.932
17621WAT     H253106   8.413   6.858   6.936
17622WAT      O53107   5.877   2.259   7.595
17622WAT     H153108   5.941   2.334   7.578
17622WAT     H253109   5.829   2.275   7.681
17623WAT      O53110   0.822   8.697   7.651
17623WAT     H153111   0.848   8.614   7.603
17623WAT     H253112   0.723   8.700   7.662
17624WAT      O53113   0.228   3.812   5.334
17624WAT     H153114   0.326   3.814   5.314
17624WAT     H253115   0.208   3.737   5.397
17625WAT      O53116   7.743   4.794   1.233
17625WAT     H153117   7.792   4.827   1.152
17625WAT     H253118   7.798   4.811   1.315
17626WAT      O53119   6.638   7.824   1.977
17626WAT     H153120   6.669   7.806   2.070
17626WAT     H253121   6.639   7.923   1.960
17627WAT      O53122   9.865   0.380   0.594
17627WAT     H153123   9.836   0.298   0.544
17627WAT     H253124   9.793   0.449   0.589
17628WAT      O53125   1.995   4.983   6.931
17628WAT     H153126   2.083   4.948   6.899
17628WAT     H253127   1.927   4.909   6.927
17629WAT      O53128   4.454   1.104   8.594
17629WAT     H153129   4.481   1.183   8.540
17629WAT     H253130   4.415   1.134   8.681
17630WAT      O53131   4.050   6.126   3.541
17630WAT     H153132   4.010   6.068   3.470
17630WAT     H253133   3.985   6.135   3.617
17631WAT      O53134   5.784   2.285   8.450
17631WAT     H153135   5.767   2.197   8.405
17631WAT     H253136   5.852   2.336   8.398
17632WAT      O53137   4.849   8.447   7.827
17632WAT     H153138   4.883   8.357   7.855
17632WAT     H253139   4.847   8.452   7.727
17633WAT      O53140   8.202   0.978   4.064
17633WAT     H153141   8.141   0.995   4.142
17633WAT     H253142   8.296   0.973   4.096
17634WAT      O53143   6.685   6.578   9.785
17634WAT     H153144   6.635   6.605   9.703
17634WAT     H253145   6.760   6.641   9.801
17635WAT      O53146   6.350   2.235   3.934
17635WAT     H153147   6.388   2.325   3.957
17635WAT     H253148   6.394   2.200   3.851
17636WAT      O53149   6.224   3.205   3.057
17636WAT     H153150   6.232   3.151   2.973
17636WAT     H253151   6.294   3.276   3.058
17637WAT      O53152   8.639   2.780   5.247
17637WAT     H153153   8.544   2.799   5.270
17637WAT     H253154   8.698   2.805   5.324
17638WAT      O53155   4.099   3.483   1.075
17638WAT     H153156   4.160   3.543   1.023
17638WAT     H253157   4.010   3.479   1.030
17639WAT      O53158   9.104   9.186   4.546
17639WAT     H153159   9.143   9.118   4.608
17639WAT     H253160   9.040   9.141   4.484
17640WAT      O53161   4.767   3.742   4.151
17640WAT     H153162   4.669   3.724   4.163
17640WAT     H253163   4.819   3.678   4.207
17641WAT      O53164   1.047   7.489   6.318
17641WAT     H153165   0.954   7.497   6.355
17641WAT     H253166   1.048   7.522   6.224
17642WAT      O53167   5.427   5.237   4.592
17642WAT     H153168   5.340   5.271   4.555
17642WAT     H253169   5.496   5.235   4.520
17643WAT      O53170   6.030   3.523   5.409
17643WAT     H153171   5.980   3.536   5.323
17643WAT     H253172   6.001   3.593   5.475
17644WAT      O53173   2.393   5.687   7.033
17644WAT     H153174   2.300   5.667   7.002
17644WAT     H253175   2.391   5.724   7.126
17645WAT      O53176   9.505   3.568   5.674
17645WAT     H153177   9.593   3.595   5.636
17645WAT     H253178   9.519   3.514   5.757
17646WAT      O53179   9.330   5.138   8.833
17646WAT     H153180   9.357   5.175   8.922
17646WAT     H253181   9.235   5.165   8.813
17647WAT      O53182   4.161   2.328   1.619
17647WAT     H153183   4.095   2.401   1.639
17647WAT     H253184   4.172   2.320   1.520
17648WAT      O53185   5.726   9.615   4.084
17648WAT     H153186   5.745   9.587   4.179
17648WAT     H253187   5.722   9.533   4.026
17649WAT      O53188   3.884   3.684   0.597
17649WAT     H153189   3.908   3.696   0.693
17649WAT     H253190   3.835   3.597   0.586
17650WAT      O53191   4.932   8.732   6.777
17650WAT     H153192   4.897   8.737   6.683
17650WAT     H253193   5.027   8.702   6.775
17651WAT      O53194   8.372   2.942   5.134
17651WAT     H153195   8.413   3.024   5.096
17651WAT     H253196   8.388   2.939   5.233
17652WAT      O53197   9.517   4.358   5.462
17652WAT     H153198   9.566   4.444   5.445
17652WAT     H253199   9.582   4.284   5.475
17653WAT      O53200   7.125   5.903   3.324
17653WAT     H153201   7.102   5.969   3.252
17653WAT     H253202   7.042   5.854   3.351
17654WAT      O53203   8.423   3.484   5.627
17654WAT     H153204   8.345   3.518   5.680
17654WAT     H253205   8.391   3.412   5.565
17655WAT      O53206   9.627   8.260   7.594
17655WAT     H153207   9.543   8.237   7.544
17655WAT     H253208   9.647   8.188   7.660
17656WAT      O53209   5.494   5.780   4.375
17656WAT     H153210   5.449   5.766   4.464
17656WAT     H253211   5.429   5.820   4.311
17657WAT      O53212   4.557   2.033   2.101
17657WAT     H153213   4.619   2.018   2.024
17657WAT     H253214   4.594   2.106   2.159
17658WAT      O53215   6.525   0.567   8.145
17658WAT     H153216   6.431   0.551   8.175
17658WAT     H253217   6.550   0.498   8.077
17659WAT      O53218   5.131   7.661   3.861
17659WAT     H153219   5.151   7.662   3.959
17659WAT     H253220   5.130   7.755   3.826
17660WAT      O53221   4.994   8.704   1.942
17660WAT     H153222   5.034   8.787   1.981
17660WAT     H253223   4.963   8.644   2.016
17661WAT      O53224   7.018   5.058   5.799
17661WAT     H153225   7.061   4.977   5.839
17661WAT     H253226   7.086   5.108   5.744
17662WAT      O53227   7.747   4.042   1.002
17662WAT     H153228   7.703   3.979   1.065
17662WAT     H253229   7.715   4.135   1.019
17663WAT      O53230   1.047   0.308   6.316
17663WAT     H153231   1.128   0.304   6.257
17663WAT     H253232   1.076   0.322   6.411
17664WAT      O53233   2.478   5.525   7.839
17664WAT     H153234   2.428   5.540   7.754
17664WAT     H253235   2.461   5.432   7.872
17665WAT      O53236   8.577   2.707   7.149
17665WAT     H153237   8.672   2.682   7.131
17665WAT     H253238   8.540   2.649   7.222
17666WAT      O53239   8.386   1.486   8.347
17666WAT     H153240   8.368   1.534   8.433
17666WAT     H253241   8.319   1.514   8.278
17667WAT      O53242   0.031   5.713   5.611
17667WAT     H153243  -0.041   5.783   5.604
17667WAT     H253244   0.010   5.652   5.687
17668WAT      O53245   1.590   2.006   6.109
17668WAT     H153246   1.553   1.991   6.018
17668WAT     H253247   1.666   1.943   6.125
17669WAT      O53248   4.523   7.000   6.096
17669WAT     H153249   4.466   7.073   6.060
17669WAT     H253250   4.512   6.918   6.039
17670WAT      O53251   1.105   3.572   4.602
17670WAT     H153252   1.012   3.553   4.632
17670WAT     H253253   1.164   3.589   4.681
17671WAT      O53254   7.897   2.434   0.587
17671WAT     H153255   7.972   2.430   0.654
17671WAT     H253256   7.916   2.505   0.519
17672WAT      O53257   1.059   4.927   6.950
17672WAT     H153258   1.020   4.840   6.982
17672WAT     H253259   1.117   4.966   7.021
17673WAT      O53260   2.917   5.959   3.712
17673WAT     H153261   2.934   5.973   3.614
17673WAT     H253262   2.966   5.878   3.743
17674WAT      O53263   9.072   4.099   7.173
17674WAT     H153264   9.122   4.063   7.252
17674WAT     H253265   9.092   4.043   7.093
17675WAT      O53266   3.277   3.712   4.201
17675WAT     H153267   3.268   3.751   4.293
17675WAT     H253268   3.200   3.651   4.183
17676WAT      O53269   0.923   2.272   6.480
17676WAT     H153270   0.898   2.190   6.429
17676WAT     H253271   0.895   2.262   6.575
17677WAT      O53272   8.801   0.630   1.754
17677WAT     H153273   8.868   0.561   1.728
17677WAT     H253274   8.848   0.714   1.780
17678WAT      O53275   4.016   4.685   0.798
17678WAT     H153276   3.977   4.605   0.752
17678WAT     H253277   4.005   4.675   0.897
17679WAT      O53278   6.248   8.605   1.990
17679WAT     H153279   6.232   8.704   1.989
17679WAT     H253280   6.301   8.579   1.910
17680WAT      O53281   2.922   5.575   7.385
17680WAT     H153282   2.930   5.478   7.411
17680WAT     H253283   2.999   5.626   7.423
17681WAT      O53284   3.726   2.811   0.605
17681WAT     H153285   3.742   2.906   0.579
17681WAT     H253286   3.777   2.790   0.688
17682WAT      O53287   5.008   7.499   9.234
17682WAT     H153288   5.010   7.485   9.333
17682WAT     H253289   5.027   7.594   9.213
17683WAT      O53290   5.199   8.845   7.092
17683WAT     H153291   5.183   8.819   7.187
17683WAT     H253292   5.295   8.870   7.079
17684WAT      O53293   4.403   9.593   3.918
17684WAT     H153294   4.305   9.613   3.918
17684WAT     H253295   4.441   9.608   3.827
17685WAT      O53296   2.203   3.092   6.786
17685WAT     H153297   2.264   3.021   6.820
17685WAT     H253298   2.247   3.140   6.711
17686WAT      O53299   7.987   2.140   6.027
17686WAT     H153300   7.968   2.236   6.008
17686WAT     H253301   8.034   2.132   6.115
17687WAT      O53302   8.887   6.675   2.573
17687WAT     H153303   8.887   6.678   2.473
17687WAT     H253304   8.793   6.661   2.606
17688WAT      O53305   0.066   8.044   3.298
17688WAT     H153306   0.136   8.047   3.226
17688WAT     H253307   0.051   8.137   3.333
17689WAT      O53308   4.532   1.963   7.991
17689WAT     H153309   4.470   2.009   8.054
17689WAT     H253310   4.595   2.030   7.952
17690WAT      O53311   8.348   6.071   8.818
17690WAT     H153312   8.399   6.032   8.895
17690WAT     H253313   8.279   6.135   8.852
17691WAT      O53314   7.132   3.007   1.607
17691WAT     H153315   7.195   2.931   1.624
17691WAT     H253316   7.041   2.970   1.584
17692WAT      O53317   4.846   1.714   5.518
17692WAT     H153318   4.859   1.799   5.571
17692WAT     H253319   4.750   1.687   5.522
17693WAT      O53320   7.844   3.959   8.198
17693WAT     H153321   7.913   3.980   8.267
17693WAT     H253322   7.879   3.891   8.135
17694WAT      O53323   8.742   4.759   8.919
17694WAT     H153324   8.764   4.784   9.014
17694WAT     H253325   8.706   4.666   8.917
17695WAT      O53326   0.038   3.457   5.278
17695WAT     H153327   0.083   3.502   5.356
17695WAT     H253328   0.108   3.418   5.218
17696WAT      O53329   4.921   1.973   2.457
17696WAT     H153330   4.821   1.965   2.462
17696WAT     H253331   4.958   1.992   2.548
17697WAT      O53332   2.190   1.883   9.423
17697WAT     H153333   2.270   1.871   9.365
17697WAT     H253334   2.213   1.855   9.517
17698WAT      O53335   4.164   1.896   5.624
17698WAT     H153336   4.131   1.832   5.694
17698WAT     H253337   4.087   1.923   5.566
17699WAT      O53338   6.023   7.959   4.011
17699WAT     H153339   6.021   8.031   3.942
17699WAT     H253340   6.107   7.967   4.065
17700WAT      O53341   4.347   2.657   6.827
17700WAT     H153342   4.357   2.564   6.862
17700WAT     H253343   4.422   2.714   6.861
17701WAT      O53344   0.398   1.575   0.878
17701WAT     H153345   0.323   1.534   0.826
17701WAT     H253346   0.485   1.551   0.835
17702WAT      O53347   0.134   6.995   1.255
17702WAT     H153348   0.137   6.982   1.354
17702WAT     H253349   0.153   7.091   1.233
17703WAT      O53350   4.122   6.770   6.773
17703WAT     H153351   4.221   6.787   6.775
17703WAT     H253352   4.106   6.678   6.737
17704WAT      O53353   7.005   2.390   8.940
17704WAT     H153354   7.074   2.320   8.921
17704WAT     H253355   6.994   2.400   9.038
17705WAT      O53356   9.562   8.747   9.733
17705WAT     H153357   9.472   8.792   9.731
17705WAT     H253358   9.569   8.684   9.656
17706WAT      O53359   4.658   3.251   7.255
17706WAT     H153360   4.696   3.283   7.341
17706WAT     H253361   4.595   3.320   7.219
17707WAT      O53362   0.813   7.237   1.230
17707WAT     H153363   0.798   7.335   1.238
17707WAT     H253364   0.770   7.190   1.308
17708WAT      O53365   6.575   7.913   2.516
17708WAT     H153366   6.664   7.951   2.542
17708WAT     H253367   6.528   7.880   2.598
17709WAT      O53368   9.771   6.984   4.430
17709WAT     H153369   9.840   6.915   4.406
17709WAT     H253370   9.711   6.946   4.501
17710WAT      O53371   5.512   9.426   6.020
17710WAT     H153372   5.467   9.485   6.087
17710WAT     H253373   5.475   9.333   6.028
17711WAT      O53374   2.686   9.764   1.167
17711WAT     H153375   2.643   9.855   1.164
17711WAT     H253376   2.769   9.768   1.224
17712WAT      O53377   2.438   7.022   8.847
17712WAT     H153378   2.495   6.999   8.768
17712WAT     H253379   2.343   6.999   8.827
17713WAT      O53380   9.794   3.239   0.264
17713WAT     H153381   9.851   3.217   0.343
17713WAT     H253382   9.758   3.332   0.273
17714WAT      O53383   0.426   3.175   3.300
17714WAT     H153384   0.353   3.236   3.331
17714WAT     H253385   0.426   3.092   3.355
17715WAT      O53386   4.354   7.465   8.751
17715WAT     H153387   4.433   7.524   8.736
17715WAT     H253388   4.383   7.369   8.752
17716WAT      O53389   2.290   1.534   0.397
17716WAT     H153390   2.230   1.556   0.320
17716WAT     H253391   2.237   1.492   0.470
17717WAT      O53392   3.896   5.836   8.625
17717WAT     H153393   3.849   5.748   8.626
17717WAT     H253394   3.833   5.907   8.592
17718WAT      O53395   3.720   4.878   6.651
17718WAT     H153396   3.787   4.839   6.714
17718WAT     H253397   3.701   4.973   6.677
17719WAT      O53398   2.529   2.159   6.022
17719WAT     H153399   2.521   2.060   6.017
17719WAT     H253400   2.564   2.185   6.111
17720WAT      O53401   7.727   0.862   9.752
17720WAT     H153402   7.747   0.953   9.788
17720WAT     H253403   7.751   0.793   9.821
17721WAT      O53404   5.685   4.187   8.557
17721WAT     H153405   5.683   4.167   8.655
17721WAT     H253406   5.637   4.115   8.507
17722WAT      O53407   8.605   4.482   1.430
17722WAT     H153408   8.605   4.515   1.336
17722WAT     H253409   8.513   4.493   1.469
17723WAT      O53410   9.672   5.372   3.408
17723WAT     H153411   9.724   5.365   3.323
17723WAT     H253412   9.605   5.297   3.411
17724WAT      O53413   5.135   2.795   8.016
17724WAT     H153414   5.188   2.867   8.062
17724WAT     H253415   5.098   2.830   7.930
17725WAT      O53416   7.738   7.886   6.077
17725WAT     H153417   7.759   7.984   6.074
17725WAT     H253418   7.639   7.872   6.072
17726WAT      O53419   0.965   1.123   9.647
17726WAT     H153420   1.061   1.139   9.625
17726WAT     H253421   0.925   1.207   9.684
17727WAT      O53422   6.178   2.502   5.014
17727WAT     H153423   6.269   2.529   4.982
17727WAT     H253424   6.135   2.444   4.944
17728WAT      O53425   6.996   6.311   3.299
17728WAT     H153426   7.033   6.328   3.390
17728WAT     H253427   6.909   6.359   3.288
17729WAT      O53428   7.328   0.989   1.696
17729WAT     H153429   7.393   0.926   1.738
17729WAT     H253430   7.248   0.998   1.755
17730WAT      O53431   7.765   9.491   5.959
17730WAT     H153432   7.723   9.482   6.049
17730WAT     H253433   7.698   9.468   5.888
17731WAT      O53434   7.848   5.196   7.106
17731WAT     H153435   7.839   5.211   7.204
17731WAT     H253436   7.936   5.153   7.087
17732WAT      O53437   9.628   2.812   6.989
17732WAT     H153438   9.688   2.889   6.967
17732WAT     H253439   9.671   2.727   6.957
17733WAT      O53440   8.101   7.130   4.461
17733WAT     H153441   8.077   7.226   4.475
17733WAT     H253442   8.148   7.119   4.374
17734WAT      O53443   9.870   0.507   6.348
17734WAT     H153444   9.821   0.594   6.359
17734WAT     H253445   9.807   0.431   6.369
17735WAT      O53446   9.008   8.082   7.257
17735WAT     H153447   9.070   8.102   7.333
17735WAT     H253448   8.914   8.087   7.290
17736WAT      O53449   0.925   1.957   3.730
17736WAT     H153450   0.914   1.866   3.770
17736WAT     H253451   0.900   1.954   3.634
17737WAT      O53452   0.041   6.563   1.599
17737WAT     H153453   0.062   6.470   1.630
17737WAT     H253454   0.029   6.623   1.678
17738WAT      O53455   5.778   6.368   6.987
17738WAT     H153456   5.789   6.327   7.078
17738WAT     H253457   5.825   6.457   6.985
17739WAT      O53458   2.765   1.783   1.402
17739WAT     H153459   2.700   1.856   1.424
17739WAT     H253460   2.717   1.708   1.357
17740WAT      O53461   2.435   7.801   9.698
17740WAT     H153462   2.480   7.806   9.787
17740WAT     H253463   2.348   7.753   9.706
17741WAT      O53464   0.332   9.106   4.019
17741WAT     H153465   0.309   9.029   3.961
17741WAT     H253466   0.340   9.189   3.964
17742WAT      O53467   6.285   8.739   7.163
17742WAT     H153468   6.250   8.760   7.072
17742WAT     H253469   6.296   8.824   7.214
17743WAT      O53470   9.845   1.374   0.747
17743WAT     H153471   9.870   1.451   0.688
17743WAT     H253472   9.923   1.312   0.756
17744WAT      O53473   7.475   9.496   1.944
17744WAT     H153474   7.496   9.528   1.851
17744WAT     H253475   7.408   9.558   1.985
17745WAT      O53476   5.996   2.855   2.463
17745WAT     H153477   5.986   2.879   2.366
17745WAT     H253478   5.952   2.766   2.479
17746WAT      O53479   2.746   4.500   9.062
17746WAT     H153480   2.836   4.469   9.092
17746WAT     H253481   2.721   4.454   8.977
17747WAT      O53482   7.236   1.509   0.027
17747WAT     H153483   7.290   1.428   0.006
17747WAT     H253484   7.202   1.550  -0.058
17748WAT      O53485   2.665   6.840   1.023
17748WAT     H153486   2.622   6.876   0.940
17748WAT     H253487   2.747   6.789   0.998
17749WAT      O53488   5.152   1.468   6.300
17749WAT     H153489   5.168   1.521   6.216
17749WAT     H253490   5.202   1.510   6.376
17750WAT      O53491   5.713   1.790   6.126
17750WAT     H153492   5.654   1.713   6.147
17750WAT     H253493   5.785   1.761   6.063
17751WAT      O53494   7.567   8.832   9.481
17751WAT     H153495   7.609   8.880   9.404
17751WAT     H253496   7.475   8.867   9.496
17752WAT      O53497   8.072   4.278   1.253
17752WAT     H153498   8.042   4.345   1.320
17752WAT     H253499   8.055   4.313   1.161
17753WAT      O53500   2.233   2.708   2.288
17753WAT     H153501   2.159   2.644   2.264
17753WAT     H253502   2.312   2.691   2.228
17754WAT      O53503   9.664   7.440   8.634
17754WAT     H153504   9.747   7.387   8.621
17754WAT     H253505   9.660   7.474   8.728
17755WAT      O53506   3.499   4.791   8.478
17755WAT     H153507   3.449   4.745   8.404
17755WAT     H253508   3.494   4.736   8.561
17756WAT      O53509   7.230   4.024   7.787
17756WAT     H153510   7.259   4.097   7.724
17756WAT     H253511   7.270   4.041   7.877
17757WAT      O53512   1.685   5.681   3.363
17757WAT     H153513   1.645   5.601   3.320
17757WAT     H253514   1.706   5.660   3.459
17758WAT      O53515   7.811   3.459   1.116
17758WAT     H153516   7.759   3.443   1.033
17758WAT     H253517   7.767   3.532   1.169
17759WAT      O53518   1.267   9.395   4.074
17759WAT     H153519   1.330   9.382   4.151
17759WAT     H253520   1.173   9.383   4.106
17760WAT      O53521   0.319   6.566   7.315
17760WAT     H153522   0.333   6.489   7.378
17760WAT     H253523   0.318   6.533   7.221
17761WAT      O53524   1.144   9.073   8.367
17761WAT     H153525   1.051   9.107   8.361
17761WAT     H253526   1.152   8.987   8.315
17762WAT      O53527   1.841   3.517   0.055
17762WAT     H153528   1.789   3.558   0.130
17762WAT     H253529   1.791   3.529  -0.031
17763WAT      O53530   8.347   1.993   0.877
17763WAT     H153531   8.381   1.908   0.917
17763WAT     H253532   8.247   1.990   0.871
17764WAT      O53533   2.631   1.559   5.311
17764WAT     H153534   2.551   1.555   5.371
17764WAT     H253535   2.705   1.505   5.351
17765WAT      O53536   9.563   4.389   1.795
17765WAT     H153537   9.587   4.372   1.891
17765WAT     H253538   9.646   4.409   1.743
17766WAT      O53539   6.757   1.158   1.115
17766WAT     H153540   6.806   1.238   1.147
17766WAT     H253541   6.813   1.108   1.049
17767WAT      O53542   8.850   7.974   1.922
17767WAT     H153543   8.928   7.999   1.865
17767WAT     H253544   8.767   7.974   1.867
17768WAT      O53545   9.110   4.771   4.543
17768WAT     H153546   9.083   4.680   4.576
17768WAT     H253547   9.204   4.790   4.571
17769WAT      O53548   8.999   6.307   6.178
17769WAT     H153549   9.028   6.219   6.142
17769WAT     H253550   9.003   6.306   6.278
17770WAT      O53551   3.824   6.879   9.708
17770WAT     H153552   3.749   6.818   9.731
17770WAT     H253553   3.795   6.942   9.635
17771WAT      O53554   5.535   2.076   4.772
17771WAT     H153555   5.540   2.135   4.853
17771WAT     H253556   5.500   2.129   4.695
17772WAT      O53557   8.874   7.916   6.144
17772WAT     H153558   8.798   7.892   6.204
17772WAT     H253559   8.879   8.015   6.134
17773WAT      O53560   0.829   5.905   8.286
17773WAT     H153561   0.798   5.972   8.217
17773WAT     H253562   0.920   5.931   8.319
17774WAT      O53563   4.517   3.839   5.926
17774WAT     H153564   4.498   3.911   5.992
17774WAT     H253565   4.503   3.875   5.833
17775WAT      O53566   6.630   0.647   2.464
17775WAT     H153567   6.586   0.684   2.546
17775WAT     H253568   6.722   0.686   2.455
17776WAT      O53569   5.004   9.821   7.061
17776WAT     H153570   4.916   9.867   7.068
17776WAT     H253571   5.078   9.889   7.061
17777WAT      O53572   0.612   6.009   3.815
17777WAT     H153573   0.533   6.016   3.876
17777WAT     H253574   0.672   6.088   3.827
17778WAT      O53575   6.827   3.527   5.075
17778WAT     H153576   6.882   3.444   5.063
17778WAT     H253577   6.834   3.583   4.993
17779WAT      O53578   9.871   3.988   0.587
17779WAT     H153579   9.816   3.943   0.658
17779WAT     H253580   9.967   3.984   0.613
17780WAT      O53581   8.833   8.456   4.703
17780WAT     H153582   8.883   8.466   4.789
17780WAT     H253583   8.735   8.457   4.721
17781WAT      O53584   4.271   6.854   1.611
17781WAT     H153585   4.205   6.791   1.570
17781WAT     H253586   4.323   6.805   1.682
17782WAT      O53587   7.330   5.526   6.072
17782WAT     H153588   7.321   5.616   6.030
17782WAT     H253589   7.241   5.497   6.108
17783WAT      O53590   4.142   6.061   0.326
17783WAT     H153591   4.140   6.140   0.265
17783WAT     H253592   4.071   6.070   0.395
17784WAT      O53593   7.612   9.059   6.674
17784WAT     H153594   7.624   8.960   6.689
17784WAT     H253595   7.517   9.078   6.649
17785WAT      O53596   1.273   3.032   3.214
17785WAT     H153597   1.313   3.121   3.237
17785WAT     H253598   1.221   2.997   3.293
17786WAT      O53599   6.540   1.004   2.688
17786WAT     H153600   6.639   1.011   2.674
17786WAT     H253601   6.520   1.012   2.786
17787WAT      O53602   7.213   1.806   8.364
17787WAT     H153603   7.266   1.857   8.432
17787WAT     H253604   7.211   1.709   8.390
17788WAT      O53605   0.960   1.120   4.271
17788WAT     H153606   0.894   1.135   4.345
17788WAT     H253607   1.051   1.105   4.310
17789WAT      O53608   7.674   3.291   0.174
17789WAT     H153609   7.742   3.228   0.211
17789WAT     H253610   7.713   3.339   0.095
17790WAT      O53611   3.417   4.000   3.555
17790WAT     H153612   3.380   4.074   3.611
17790WAT     H253613   3.516   3.996   3.566
17791WAT      O53614   9.477   3.334   7.121
17791WAT     H153615   9.408   3.262   7.126
17791WAT     H253616   9.562   3.295   7.086
17792WAT      O53617   1.635   2.941   3.852
17792WAT     H153618   1.600   2.988   3.771
17792WAT     H253619   1.724   2.979   3.877
17793WAT      O53620   5.901   9.278   3.244
17793WAT     H153621   5.882   9.348   3.176
17793WAT     H253622   5.982   9.226   3.217
17794WAT      O53623   5.064   2.561   5.527
17794WAT     H153624   5.049   2.532   5.432
17794WAT     H253625   5.039   2.657   5.537
17795WAT      O53626   5.801   4.557   8.989
17795WAT     H153627   5.725   4.575   9.052
17795WAT     H253628   5.888   4.570   9.036
17796WAT      O53629   8.521   8.167   3.286
17796WAT     H153630   8.551   8.259   3.262
17796WAT     H253631   8.457   8.172   3.362
17797WAT      O53632   5.069   1.089   4.402
17797WAT     H153633   4.980   1.061   4.437
17797WAT     H253634   5.057   1.166   4.338
17798WAT      O53635   4.338   1.165   2.464
17798WAT     H153636   4.430   1.134   2.440
17798WAT     H253637   4.296   1.209   2.385
17799WAT      O53638   5.800   1.145   6.465
17799WAT     H153639   5.859   1.204   6.409
17799WAT     H253640   5.812   1.167   6.561
17800WAT      O53641   9.663   1.318   4.237
17800WAT     H153642   9.649   1.308   4.335
17800WAT     H253643   9.614   1.398   4.204
17801WAT      O53644   8.905   8.828   9.764
17801WAT     H153645   8.998   8.854   9.740
17801WAT     H253646   8.841   8.890   9.719
17802WAT      O53647   8.639   5.083   7.063
17802WAT     H153648   8.566   5.144   7.033
17802WAT     H253649   8.633   5.070   7.162
17803WAT      O53650   6.711   7.008   9.288
17803WAT     H153651   6.784   7.062   9.330
17803WAT     H253652   6.685   7.048   9.200
17804WAT      O53653   1.527   3.548   5.275
17804WAT     H153654   1.498   3.577   5.367
17804WAT     H253655   1.618   3.506   5.281
17805WAT      O53656   4.352   8.743   8.631
17805WAT     H153657   4.335   8.768   8.727
17805WAT     H253658   4.437   8.786   8.600
17806WAT      O53659   5.194   4.023   1.069
17806WAT     H153660   5.174   3.956   0.997
17806WAT     H253661   5.123   4.020   1.138
17807WAT      O53662   6.144   2.253   8.182
17807WAT     H153663   6.221   2.257   8.118
17807WAT     H253664   6.179   2.236   8.274
17808WAT      O53665   2.228   6.077   6.309
17808WAT     H153666   2.325   6.061   6.326
17808WAT     H253667   2.177   6.068   6.395
17809WAT      O53668   2.603   6.848   4.496
17809WAT     H153669   2.593   6.830   4.398
17809WAT     H253670   2.640   6.940   4.509
17810WAT      O53671   0.350   4.674   0.192
17810WAT     H153672   0.392   4.648   0.279
17810WAT     H253673   0.358   4.773   0.180
17811WAT      O53674   6.210   0.381   8.932
17811WAT     H153675   6.275   0.322   8.980
17811WAT     H253676   6.226   0.374   8.833
17812WAT      O53677   1.959   6.844   8.936
17812WAT     H153678   1.879   6.803   8.979
17812WAT     H253679   1.952   6.835   8.836
17813WAT      O53680   8.545   6.987   7.272
17813WAT     H153681   8.641   6.961   7.268
17813WAT     H253682   8.536   7.077   7.314
17814WAT      O53683   2.547   4.488   4.634
17814WAT     H153684   2.471   4.553   4.622
17814WAT     H253685   2.633   4.538   4.637
17815WAT      O53686   1.259   4.682   5.644
17815WAT     H153687   1.325   4.636   5.705
17815WAT     H253688   1.279   4.658   5.549
17816WAT      O53689   8.070   3.831   2.452
17816WAT     H153690   8.031   3.910   2.405
17816WAT     H253691   8.057   3.841   2.551
17817WAT      O53692   4.309   2.164   4.449
17817WAT     H153693   4.391   2.198   4.403
17817WAT     H253694   4.239   2.235   4.449
17818WAT      O53695   4.347   6.527   3.646
17818WAT     H153696   4.275   6.572   3.593
17818WAT     H253697   4.309   6.492   3.731
17819WAT      O53698   0.636   5.618   8.702
17819WAT     H153699   0.540   5.595   8.717
17819WAT     H253700   0.644   5.674   8.619
17820WAT      O53701   6.492   4.336   0.212
17820WAT     H153702   6.471   4.314   0.117
17820WAT     H253703   6.458   4.427   0.234
17821WAT      O53704   7.622   1.830   7.125
17821WAT     H153705   7.538   1.876   7.153
17821WAT     H253706   7.635   1.840   7.027
17822WAT      O53707   1.117   9.813   7.237
17822WAT     H153708   1.138   9.790   7.142
17822WAT     H253709   1.116   9.912   7.248
17823WAT      O53710   7.725   8.999   4.472
17823WAT     H153711   7.812   8.986   4.424
17823WAT     H253712   7.730   9.083   4.526
17824WAT      O53713   4.711   3.269   1.548
17824WAT     H153714   4.639   3.330   1.579
17824WAT     H253715   4.675   3.175   1.543
17825WAT      O53716   6.741   8.144   8.366
17825WAT     H153717   6.841   8.148   8.360
17825WAT     H253718   6.702   8.217   8.310
17826WAT      O53719   4.184   2.305   0.569
17826WAT     H153720   4.120   2.327   0.643
17826WAT     H253721   4.173   2.209   0.543
17827WAT      O53722   0.967   4.648   0.350
17827WAT     H153723   0.897   4.629   0.420
17827WAT     H253724   0.976   4.747   0.339
17828WAT      O53725   3.880   2.469   8.207
17828WAT     H153726   3.821   2.543   8.174
17828WAT     H253727   3.879   2.467   8.307
17829WAT      O53728   1.074   6.577   3.854
17829WAT     H153729   1.139   6.504   3.877
17829WAT     H253730   1.105   6.663   3.896
17830WAT      O53731   4.007   4.966   5.570
17830WAT     H153732   3.923   4.920   5.599
17830WAT     H253733   4.011   4.969   5.470
17831WAT      O53734   5.949   2.031   8.998
17831WAT     H153735   5.989   2.119   9.023
17831WAT     H253736   5.877   2.007   9.063
17832WAT      O53737   3.539   4.232   8.439
17832WAT     H153738   3.465   4.260   8.499
17832WAT     H253739   3.501   4.184   8.359
17833WAT      O53740   7.969   7.788   4.103
17833WAT     H153741   8.013   7.774   4.192
17833WAT     H253742   7.949   7.885   4.091
17834WAT      O53743   2.391   0.417   8.649
17834WAT     H153744   2.457   0.356   8.693
17834WAT     H253745   2.332   0.364   8.588
17835WAT      O53746   4.177   3.372   0.100
17835WAT     H153747   4.241   3.404   0.170
17835WAT     H253748   4.083   3.395   0.128
17836WAT      O53749   5.716   0.799   6.121
17836WAT     H153750   5.631   0.758   6.090
17836WAT     H253751   5.708   0.899   6.118
17837WAT      O53752   7.584   1.523   0.888
17837WAT     H153753   7.595   1.619   0.911
17837WAT     H253754   7.568   1.514   0.790
17838WAT      O53755   9.428   3.152   6.258
17838WAT     H153756   9.397   3.095   6.334
17838WAT     H253757   9.524   3.131   6.238
17839WAT      O53758   1.694   1.548   1.579
17839WAT     H153759   1.602   1.568   1.614
17839WAT     H253760   1.762   1.590   1.639
17840WAT      O53761   1.281   1.506   7.643
17840WAT     H153762   1.380   1.501   7.627
17840WAT     H253763   1.257   1.597   7.676
17841WAT      O53764   8.662   6.284   8.236
17841WAT     H153765   8.622   6.375   8.231
17841WAT     H253766   8.593   6.216   8.210
17842WAT      O53767   7.600   2.094   0.862
17842WAT     H153768   7.547   2.163   0.812
17842WAT     H253769   7.584   2.104   0.960
17843WAT      O53770   2.579   1.221   5.675
17843WAT     H153771   2.628   1.193   5.593
17843WAT     H253772   2.484   1.240   5.653
17844WAT      O53773   7.548   5.027   1.556
17844WAT     H153774   7.592   5.008   1.468
17844WAT     H253775   7.610   5.081   1.613
17845WAT      O53776   3.050   6.004   1.998
17845WAT     H153777   3.119   5.980   1.930
17845WAT     H253778   3.086   6.075   2.058
17846WAT      O53779   0.567   9.198   1.100
17846WAT     H153780   0.654   9.244   1.083
17846WAT     H253781   0.494   9.247   1.054
17847WAT      O53782   2.567   5.638   0.437
17847WAT     H153783   2.603   5.726   0.407
17847WAT     H253784   2.597   5.618   0.530
17848WAT      O53785   2.784   8.309   6.263
17848WAT     H153786   2.873   8.281   6.229
17848WAT     H253787   2.714   8.245   6.231
17849WAT      O53788   8.742   7.969   2.319
17849WAT     H153789   8.736   8.068   2.307
17849WAT     H253790   8.811   7.932   2.256
17850WAT      O53791   7.452   7.639   0.069
17850WAT     H153792   7.496   7.725   0.096
17850WAT     H253793   7.521   7.569   0.055
17851WAT      O53794   0.991   9.546   3.709
17851WAT     H153795   0.924   9.474   3.690
17851WAT     H253796   0.973   9.586   3.798
17852WAT      O53797   9.792   2.489   6.125
17852WAT     H153798   9.842   2.462   6.207
17852WAT     H253799   9.804   2.418   6.055
17853WAT      O53800   5.971   1.293   5.349
17853WAT     H153801   6.048   1.242   5.309
17853WAT     H253802   5.963   1.270   5.446
17854WAT      O53803   5.120   6.950   4.936
17854WAT     H153804   5.148   7.046   4.933
17854WAT     H253805   5.020   6.945   4.945
17855WAT      O53806   0.009   2.747   5.332
17855WAT     H153807  -0.057   2.768   5.260
17855WAT     H253808  -0.012   2.659   5.373
17856WAT      O53809   0.707   1.420   8.486
17856WAT     H153810   0.746   1.377   8.404
17856WAT     H253811   0.693   1.351   8.557
17857WAT      O53812   1.674   2.115   2.591
17857WAT     H153813   1.591   2.108   2.646
17857WAT     H253814   1.681   2.034   2.532
17858WAT      O53815   7.177   5.924   9.516
17858WAT     H153816   7.244   5.968   9.576
17858WAT     H253817   7.225   5.887   9.436
17859WAT      O53818   7.363   9.126   7.411
17859WAT     H153819   7.425   9.204   7.413
17859WAT     H253820   7.271   9.155   7.435
17860WAT      O53821   9.529   1.870   5.351
17860WAT     H153822   9.505   1.963   5.381
17860WAT     H253823   9.575   1.822   5.425
17861WAT      O53824   7.935   9.007   3.108
17861WAT     H153825   7.919   8.909   3.111
17861WAT     H253826   7.895   9.051   3.189
17862WAT      O53827   1.262   0.536   7.482
17862WAT     H153828   1.278   0.538   7.383
17862WAT     H253829   1.172   0.497   7.500
17863WAT      O53830   6.960   7.438   9.617
17863WAT     H153831   7.002   7.389   9.694
17863WAT     H253832   6.942   7.533   9.643
17864WAT      O53833   2.011   4.796   2.062
17864WAT     H153834   1.942   4.856   2.022
17864WAT     H253835   2.092   4.850   2.087
17865WAT      O53836   0.266   0.246   9.057
17865WAT     H153837   0.226   0.326   9.013
17865WAT     H253838   0.249   0.250   9.156
17866WAT      O53839   9.135   5.828   3.435
17866WAT     H153840   9.084   5.832   3.521
17866WAT     H253841   9.096   5.757   3.376
17867WAT      O53842   3.851   2.758   1.575
17867WAT     H153843   3.937   2.781   1.530
17867WAT     H253844   3.784   2.830   1.559
17868WAT      O53845   4.271   6.895   3.771
17868WAT     H153846   4.248   6.888   3.674
17868WAT     H253847   4.225   6.974   3.811
17869WAT      O53848   2.912   5.290   2.405
17869WAT     H153849   2.835   5.226   2.403
17869WAT     H253850   2.988   5.248   2.455
17870WAT      O53851   2.249   9.179   1.768
17870WAT     H153852   2.327   9.205   1.710
17870WAT     H253853   2.274   9.101   1.825
17871WAT      O53854   7.314   5.964   2.069
17871WAT     H153855   7.301   6.047   2.014
17871WAT     H253856   7.249   5.894   2.039
17872WAT      O53857   2.222   6.987   7.680
17872WAT     H153858   2.268   6.947   7.601
17872WAT     H253859   2.206   6.917   7.749
17873WAT      O53860   4.655   4.369   9.040
17873WAT     H153861   4.622   4.451   9.088
17873WAT     H253862   4.753   4.360   9.053
17874WAT      O53863   5.844   7.644   1.639
17874WAT     H153864   5.835   7.615   1.544
17874WAT     H253865   5.903   7.580   1.688
17875WAT      O53866   6.679   0.791   8.148
17875WAT     H153867   6.656   0.854   8.223
17875WAT     H253868   6.621   0.710   8.154
17876WAT      O53869   9.202   2.135   6.316
17876WAT     H153870   9.263   2.180   6.251
17876WAT     H253871   9.111   2.125   6.275
17877WAT      O53872   9.353   6.765   3.933
17877WAT     H153873   9.440   6.786   3.888
17877WAT     H253874   9.291   6.723   3.867
17878WAT      O53875   9.406   1.309   8.636
17878WAT     H153876   9.439   1.356   8.554
17878WAT     H253877   9.324   1.257   8.614
17879WAT      O53878   6.449   8.278   0.903
17879WAT     H153879   6.475   8.196   0.954
17879WAT     H253880   6.457   8.260   0.805
17880WAT      O53881   2.366   9.250   8.611
17880WAT     H153882   2.389   9.180   8.543
17880WAT     H253883   2.447   9.271   8.666
17881WAT      O53884   1.426   0.218   2.929
17881WAT     H153885   1.389   0.156   2.999
17881WAT     H253886   1.359   0.290   2.911
17882WAT      O53887   1.365   9.397   7.221
17882WAT     H153888   1.314   9.476   7.254
17882WAT     H253889   1.352   9.388   7.122
17883WAT      O53890   1.543   0.511   2.143
17883WAT     H153891   1.628   0.458   2.153
17883WAT     H253892   1.556   0.581   2.074
17884WAT      O53893   6.287   4.282   6.296
17884WAT     H153894   6.376   4.325   6.282
17884WAT     H253895   6.217   4.352   6.302
17885WAT      O53896   6.397   4.752   0.772
17885WAT     H153897   6.455   4.832   0.785
17885WAT     H253898   6.450   4.669   0.792
17886WAT      O53899   9.706   7.062   1.233
17886WAT     H153900   9.637   7.023   1.171
17886WAT     H253901   9.797   7.036   1.201
17887WAT      O53902   9.117   7.063   6.380
17887WAT     H153903   9.160   7.153   6.367
17887WAT     H253904   9.177   7.005   6.436
17888WAT      O53905   6.350   8.566   7.760
17888WAT     H153906   6.373   8.481   7.713
17888WAT     H253907   6.312   8.546   7.850
17889WAT      O53908   3.691   7.915   9.203
17889WAT     H153909   3.750   7.860   9.144
17889WAT     H253910   3.745   7.987   9.247
17890WAT      O53911   1.769   4.382   2.360
17890WAT     H153912   1.767   4.417   2.266
17890WAT     H253913   1.725   4.448   2.421
17891WAT      O53914   2.507   8.631   9.842
17891WAT     H153915   2.496   8.694   9.765
17891WAT     H253916   2.587   8.659   9.897
17892WAT      O53917   9.212   5.317   2.785
17892WAT     H153918   9.221   5.218   2.795
17892WAT     H253919   9.208   5.359   2.876
17893WAT      O53920   5.308   7.266   0.094
17893WAT     H153921   5.373   7.245   0.021
17893WAT     H253922   5.215   7.267   0.057
17894WAT      O53923   3.593   8.459   7.006
17894WAT     H153924   3.644   8.427   7.086
17894WAT     H253925   3.638   8.425   6.923
17895WAT      O53926   8.222   4.483   8.397
17895WAT     H153927   8.301   4.517   8.345
17895WAT     H253928   8.140   4.534   8.370
17896WAT      O53929   3.237   8.815   6.455
17896WAT     H153930   3.223   8.880   6.381
17896WAT     H253931   3.266   8.727   6.418
17897WAT      O53932   8.844   9.009   1.164
17897WAT     H153933   8.909   9.086   1.170
17897WAT     H253934   8.770   9.033   1.102
17898WAT      O53935   0.100   1.800   0.003
17898WAT     H153936   0.048   1.757   0.078
17898WAT     H253937   0.077   1.755  -0.083
17899WAT      O53938   2.182   4.201   1.281
17899WAT     H153939   2.265   4.243   1.318
17899WAT     H253940   2.130   4.159   1.355
17900WAT      O53941   9.304   5.341   8.045
17900WAT     H153942   9.378   5.407   8.033
17900WAT     H253943   9.290   5.323   8.143
17901WAT      O53944   2.482   8.741   4.692
17901WAT     H153945   2.535   8.657   4.687
17901WAT     H253946   2.448   8.764   4.600
17902WAT      O53947   9.446   7.682   3.041
17902WAT     H153948   9.536   7.713   3.012
17902WAT     H253949   9.423   7.722   3.130
17903WAT      O53950   9.567   8.818   7.249
17903WAT     H153951   9.530   8.904   7.215
17903WAT     H253952   9.530   8.799   7.339
17904WAT      O53953   4.693   3.553   9.155
17904WAT     H153954   4.671   3.545   9.252
17904WAT     H253955   4.788   3.584   9.146
17905WAT      O53956   7.805   3.952   3.343
17905WAT     H153957   7.778   4.025   3.406
17905WAT     H253958   7.730   3.932   3.281
17906WAT      O53959   5.267   6.441   8.620
17906WAT     H153960   5.360   6.472   8.601
17906WAT     H253961   5.203   6.516   8.604
17907WAT      O53962   7.453   6.295   4.715
17907WAT     H153963   7.549   6.304   4.741
17907WAT     H253964   7.396   6.337   4.785
17908WAT      O53965   0.788   2.542   1.896
17908WAT     H153966   0.721   2.612   1.870
17908WAT     H253967   0.769   2.458   1.846
17909WAT      O53968   0.449   4.442   8.459
17909WAT     H153969   0.491   4.416   8.372
17909WAT     H253970   0.417   4.537   8.453
17910WAT      O53971   6.448   2.491   6.433
17910WAT     H153972   6.507   2.473   6.512
17910WAT     H253973   6.485   2.443   6.353
17911WAT      O53974   7.902   5.923   2.462
17911WAT     H153975   7.993   5.901   2.426
17911WAT     H253976   7.839   5.935   2.386
17912WAT      O53977   4.499   7.805   3.023
17912WAT     H153978   4.447   7.719   3.024
17912WAT     H253979   4.453   7.871   2.963
17913WAT      O53980   8.172   2.498   5.602
17913WAT     H153981   8.097   2.432   5.607
17913WAT     H253982   8.256   2.457   5.638
17914WAT      O53983   3.519   7.305   0.162
17914WAT     H153984   3.425   7.337   0.150
17914WAT     H253985   3.539   7.298   0.259
17915WAT      O53986   0.783   3.913   8.629
17915WAT     H153987   0.843   3.976   8.581
17915WAT     H253988   0.834   3.832   8.657
17916WAT      O53989   8.739   0.438   6.055
17916WAT     H153990   8.753   0.530   6.019
17916WAT     H253991   8.655   0.435   6.108
17917WAT      O53992   4.337   6.444   9.559
17917WAT     H153993   4.337   6.408   9.466
17917WAT     H253994   4.346   6.544   9.556
17918WAT      O53995   9.784   5.032   3.912
17918WAT     H153996   9.734   4.980   3.981
17918WAT     H253997   9.816   5.118   3.952
17919WAT      O53998   2.029   8.729   8.283
17919WAT     H153999   2.047   8.760   8.376
17919WAT     H254000   1.933   8.747   8.260
17920WAT      O54001   8.883   1.455   8.218
17920WAT     H154002   8.792   1.436   8.183
17920WAT     H254003   8.946   1.471   8.141
17921WAT      O54004   1.765   6.460   7.142
17921WAT     H154005   1.809   6.424   7.224
17921WAT     H254006   1.736   6.554   7.158
17922WAT      O54007   4.483   1.524   1.648
17922WAT     H154008   4.524   1.449   1.701
17922WAT     H254009   4.492   1.504   1.550
17923WAT      O54010   2.234   5.070   5.926
17923WAT     H154011   2.329   5.093   5.907
17923WAT     H254012   2.213   4.979   5.889
17924WAT      O54013   5.530   4.479   7.626
17924WAT     H154014   5.603   4.425   7.669
17924WAT     H254015   5.485   4.535   7.696
17925WAT      O54016   3.994   6.699   8.946
17925WAT     H154017   3.994   6.697   9.046
17925WAT     H254018   3.899   6.704   8.913
17926WAT      O54019   4.088   1.019   2.473
17926WAT     H154020   4.181   1.047   2.493
17926WAT     H254021   4.078   0.921   2.489
17927WAT      O54022   1.927   7.757   4.710
17927WAT     H154023   1.940   7.806   4.624
17927WAT     H254024   2.011   7.762   4.764
17928WAT      O54025   1.829   6.944   4.352
17928WAT     H154026   1.914   6.894   4.337
17928WAT     H254027   1.834   7.033   4.308
17929WAT      O54028   3.167   1.349   6.324
17929WAT     H154029   3.202   1.410   6.252
17929WAT     H254030   3.212   1.260   6.316
17930WAT      O54031   9.027   2.750   6.440
17930WAT     H154032   9.051   2.828   6.497
17930WAT     H254033   8.995   2.782   6.351
17931WAT      O54034   8.706   6.793   6.234
17931WAT     H154035   8.748   6.884   6.242
17931WAT     H254036   8.634   6.796   6.165
17932WAT      O54037   6.715   3.148   8.840
17932WAT     H154038   6.721   3.196   8.753
17932WAT     H254039   6.627   3.102   8.847
17933WAT      O54040   0.680   6.934   0.167
17933WAT     H154041   0.632   7.016   0.199
17933WAT     H254042   0.653   6.855   0.221
17934WAT      O54043   0.979   8.565   6.209
17934WAT     H154044   1.043   8.535   6.139
17934WAT     H254045   0.886   8.539   6.183
17935WAT      O54046   1.328   6.114   5.563
17935WAT     H154047   1.382   6.184   5.609
17935WAT     H254048   1.352   6.111   5.466
17936WAT      O54049   7.873   1.309   2.432
17936WAT     H154050   7.858   1.289   2.529
17936WAT     H254051   7.906   1.227   2.386
17937WAT      O54052   5.832   2.289   5.263
17937WAT     H154053   5.881   2.209   5.228
17937WAT     H254054   5.898   2.351   5.306
17938WAT      O54055   6.533   4.660   0.068
17938WAT     H154056   6.534   4.615  -0.021
17938WAT     H254057   6.439   4.669   0.100
17939WAT      O54058   1.809   6.531   3.805
17939WAT     H154059   1.798   6.615   3.857
17939WAT     H254060   1.854   6.551   3.718
17940WAT      O54061   4.489   6.626   8.442
17940WAT     H154062   4.402   6.631   8.490
17940WAT     H254063   4.555   6.688   8.485
17941WAT      O54064   4.253   1.156   0.650
17941WAT     H154065   4.173   1.101   0.625
17941WAT     H254066   4.318   1.157   0.574
17942WAT      O54067   0.459   1.136   6.812
17942WAT     H154068   0.409   1.148   6.726
17942WAT     H254069   0.456   1.040   6.839
17943WAT      O54070   1.245   2.200   5.501
17943WAT     H154071   1.328   2.193   5.447
17943WAT     H254072   1.179   2.259   5.454
17944WAT      O54073   3.636   0.709   1.222
17944WAT     H154074   3.611   0.789   1.277
17944WAT     H254075   3.735   0.697   1.224
17945WAT      O54076   2.528   8.128   7.702
17945WAT     H154077   2.558   8.083   7.619
17945WAT     H254078   2.429   8.115   7.714
17946WAT      O54079   0.107   3.951   8.874
17946WAT     H154080   0.075   3.895   8.951
17946WAT     H254081   0.188   3.907   8.833
17947WAT      O54082   0.654   4.243   4.206
17947WAT     H154083   0.741   4.217   4.247
17947WAT     H254084   0.653   4.340   4.186
17948WAT      O54085   8.056   7.542   2.129
17948WAT     H154086   8.144   7.572   2.091
17948WAT     H254087   7.997   7.621   2.143
17949WAT      O54088   3.656   1.387   3.715
17949WAT     H154089   3.702   1.396   3.803
17949WAT     H254090   3.723   1.388   3.641
17950WAT      O54091   7.410   1.508   2.680
17950WAT     H154092   7.436   1.434   2.743
17950WAT     H254093   7.490   1.562   2.658
17951WAT      O54094   6.867   3.162   1.145
17951WAT     H154095   6.792   3.224   1.167
17951WAT     H254096   6.854   3.075   1.193
17952WAT      O54097   0.127   4.252   5.175
17952WAT     H154098   0.226   4.251   5.161
17952WAT     H254099   0.107   4.279   5.269
17953WAT      O54100   8.448   9.476   7.369
17953WAT     H154101   8.533   9.433   7.400
17953WAT     H254102   8.377   9.463   7.438
17954WAT      O54103   0.315   1.830   0.966
17954WAT     H154104   0.387   1.898   0.953
17954WAT     H254105   0.350   1.739   0.944
17955WAT      O54106   3.546   0.830   0.254
17955WAT     H154107   3.469   0.799   0.198
17955WAT     H254108   3.520   0.913   0.304
17956WAT      O54109   0.381   9.448   2.530
17956WAT     H154110   0.404   9.545   2.527
17956WAT     H254111   0.363   9.415   2.437
17957WAT      O54112   3.406   7.614   7.413
17957WAT     H154113   3.392   7.710   7.390
17957WAT     H254114   3.330   7.559   7.378
17958WAT      O54115   0.793   7.766   6.940
17958WAT     H154116   0.727   7.815   6.996
17958WAT     H254117   0.745   7.712   6.871
17959WAT      O54118   4.180   6.138   1.894
17959WAT     H154119   4.081   6.128   1.888
17959WAT     H254120   4.218   6.144   1.801
17960WAT      O54121   9.089   9.213   8.448
17960WAT     H154122   9.172   9.238   8.497
17960WAT     H254123   9.096   9.241   8.352
17961WAT      O54124   8.507   7.387   2.072
17961WAT     H154125   8.416   7.351   2.090
17961WAT     H254126   8.531   7.372   1.976
17962WAT      O54127   9.675   6.456   2.803
17962WAT     H154128   9.667   6.371   2.752
17962WAT     H254129   9.608   6.522   2.770
17963WAT      O54130   4.494   9.567   2.842
17963WAT     H154131   4.454   9.652   2.807
17963WAT     H254132   4.484   9.495   2.774
17964WAT      O54133   5.019   3.088   2.857
17964WAT     H154134   5.026   3.171   2.801
17964WAT     H254135   5.072   3.015   2.813
17965WAT      O54136   4.871   3.368   7.113
17965WAT     H154137   4.794   3.323   7.158
17965WAT     H254138   4.949   3.307   7.111
17966WAT      O54139   8.166   1.364   7.977
17966WAT     H154140   8.156   1.300   8.053
17966WAT     H254141   8.171   1.313   7.891
17967WAT      O54142   7.667   1.653   1.959
17967WAT     H154143   7.657   1.750   1.978
17967WAT     H254144   7.716   1.640   1.874
17968WAT      O54145   4.613   6.360   7.450
17968WAT     H154146   4.597   6.319   7.360
17968WAT     H254147   4.560   6.445   7.458
17969WAT      O54148   0.561   6.501   9.119
17969WAT     H154149   0.540   6.599   9.122
17969WAT     H254150   0.613   6.476   9.201
17970WAT      O54151   9.069   7.649   1.389
17970WAT     H154152   9.066   7.664   1.290
17970WAT     H254153   9.076   7.551   1.408
17971WAT      O54154   6.957   2.461   6.132
17971WAT     H154155   6.887   2.409   6.180
17971WAT     H254156   7.029   2.399   6.100
17972WAT      O54157   7.276   4.322   2.665
17972WAT     H154158   7.235   4.234   2.689
17972WAT     H254159   7.230   4.395   2.715
17973WAT      O54160   7.857   4.763   9.591
17973WAT     H154161   7.769   4.720   9.614
17973WAT     H254162   7.927   4.692   9.581
17974WAT      O54163   6.319   5.190   4.950
17974WAT     H154164   6.316   5.104   4.900
17974WAT     H254165   6.400   5.242   4.921
17975WAT      O54166   3.286   7.732   1.938
17975WAT     H154167   3.193   7.699   1.950
17975WAT     H254168   3.314   7.719   1.843
17976WAT      O54169   1.312   5.229   6.475
17976WAT     H154170   1.241   5.160   6.489
17976WAT     H254171   1.383   5.191   6.415
17977WAT      O54172   8.187   1.137   4.949
17977WAT     H154173   8.098   1.113   4.912
17977WAT     H254174   8.177   1.164   5.045
17978WAT      O54175   9.235   4.732   1.093
17978WAT     H154176   9.250   4.747   0.995
17978WAT     H254177   9.163   4.793   1.125
17979WAT      O54178   0.566   4.647   7.154
17979WAT     H154179   0.471   4.662   7.125
17979WAT     H254180   0.615   4.597   7.084
17980WAT      O54181   5.403   8.943   1.080
17980WAT     H154182   5.388   9.042   1.074
17980WAT     H254183   5.379   8.900   0.994
17981WAT      O54184   0.732   9.689   9.089
17981WAT     H154185   0.751   9.594   9.065
17981WAT     H254186   0.815   9.743   9.081
17982WAT      O54187   9.825   0.271   3.195
17982WAT     H154188   9.790   0.292   3.104
17982WAT     H254189   9.789   0.182   3.225
17983WAT      O54190   9.664   1.870   2.089
17983WAT     H154191   9.637   1.917   2.174
17983WAT     H254192   9.585   1.820   2.053
17984WAT      O54193   7.185   5.083   0.817
17984WAT     H154194   7.176   5.066   0.915
17984WAT     H254195   7.239   5.166   0.803
17985WAT      O54196   1.840   7.170   9.462
17985WAT     H154197   1.779   7.106   9.416
17985WAT     H254198   1.852   7.252   9.405
17986WAT      O54199   7.771   2.930   5.286
17986WAT     H154200   7.813   2.976   5.208
17986WAT     H254201   7.801   2.834   5.288
17987WAT      O54202   2.701   3.606   9.786
17987WAT     H154203   2.786   3.571   9.825
17987WAT     H254204   2.717   3.697   9.748
17988WAT      O54205   7.041   4.673   3.105
17988WAT     H154206   7.045   4.712   3.196
17988WAT     H254207   7.103   4.594   3.099
17989WAT      O54208   3.510   1.868   3.151
17989WAT     H154209   3.565   1.791   3.118
17989WAT     H254210   3.434   1.834   3.205
17990WAT      O54211   6.782   2.110   8.207
17990WAT     H154212   6.845   2.066   8.270
17990WAT     H254213   6.817   2.201   8.182
17991WAT      O54214   8.458   4.162   2.215
17991WAT     H154215   8.437   4.258   2.199
17991WAT     H254216   8.383   4.118   2.264
17992WAT      O54217   9.675   7.252   1.511
17992WAT     H154218   9.675   7.287   1.605
17992WAT     H254219   9.733   7.171   1.506
17993WAT      O54220   0.189   5.599   8.942
17993WAT     H154221   0.212   5.696   8.950
17993WAT     H254222   0.151   5.567   9.029
17994WAT      O54223   7.842   2.919   4.972
17994WAT     H154224   7.921   2.979   4.984
17994WAT     H254225   7.867   2.825   4.997
17995WAT      O54226   0.160   8.752   6.062
17995WAT     H154227   0.254   8.726   6.045
17995WAT     H254228   0.107   8.746   5.977
17996WAT      O54229   9.173   0.637   0.395
17996WAT     H154230   9.261   0.590   0.402
17996WAT     H254231   9.125   0.606   0.313
17997WAT      O54232   5.827   7.824   6.535
17997WAT     H154233   5.889   7.778   6.470
17997WAT     H254234   5.819   7.920   6.509
17998WAT      O54235   1.829   1.883   6.200
17998WAT     H154236   1.896   1.951   6.171
17998WAT     H254237   1.876   1.809   6.248
17999WAT      O54238   5.501   1.495   9.341
17999WAT     H154239   5.567   1.550   9.392
17999WAT     H254240   5.488   1.408   9.388
18000WAT      O54241   4.877   7.578   3.042
18000WAT     H154242   4.820   7.623   2.973
18000WAT     H254243   4.933   7.508   2.999
18001WAT      O54244   4.306   2.970   8.349
18001WAT     H154245   4.322   3.033   8.425
18001WAT     H254246   4.272   2.883   8.384
18002WAT      O54247   2.516   1.460   3.959
18002WAT     H154248   2.430   1.428   3.999
18002WAT     H254249   2.593   1.421   4.010
18003WAT      O54250   4.198   4.431   6.633
18003WAT     H154251   4.283   4.472   6.665
18003WAT     H254252   4.128   4.502   6.623
18004WAT      O54253   7.550   8.479   2.023
18004WAT     H154254   7.632   8.430   1.993
18004WAT     H254255   7.469   8.442   1.977
18005WAT      O54256   5.742   3.685   0.864
18005WAT     H154257   5.779   3.671   0.773
18005WAT     H254258   5.657   3.632   0.874
18006WAT      O54259   2.760   4.505   3.335
18006WAT     H154260   2.747   4.587   3.280
18006WAT     H254261   2.796   4.531   3.425
18007WAT      O54262   2.237   4.236   2.226
18007WAT     H154263   2.265   4.314   2.170
18007WAT     H254264   2.231   4.263   2.322
18008WAT      O54265   1.298   2.444   9.395
18008WAT     H154266   1.275   2.446   9.297
18008WAT     H254267   1.283   2.353   9.431
18009WAT      O54268   5.214   4.353   4.020
18009WAT     H154269   5.165   4.440   4.022
18009WAT     H254270   5.280   4.353   3.945
18010WAT      O54271   7.872   0.236   2.413
18010WAT     H154272   7.813   0.248   2.334
18010WAT     H254273   7.817   0.214   2.493
18011WAT      O54274   6.716   7.289   0.290
18011WAT     H154275   6.777   7.354   0.244
18011WAT     H254276   6.750   7.270   0.382
18012WAT      O54277   5.619   6.014   3.477
18012WAT     H154278   5.632   5.917   3.459
18012WAT     H254279   5.708   6.061   3.473
18013WAT      O54280   6.013   1.440   7.079
18013WAT     H154281   6.029   1.506   7.006
18013WAT     H254282   6.042   1.349   7.049
18014WAT      O54283   7.686   0.970   1.838
18014WAT     H154284   7.712   0.897   1.774
18014WAT     H254285   7.594   0.952   1.874
18015WAT      O54286   1.409   5.854   4.943
18015WAT     H154287   1.471   5.927   4.972
18015WAT     H254288   1.327   5.855   4.999
18016WAT      O54289   8.348   6.965   0.290
18016WAT     H154290   8.250   6.949   0.277
18016WAT     H254291   8.382   7.026   0.219
18017WAT      O54292   3.074   6.461   1.711
18017WAT     H154293   3.027   6.430   1.794
18017WAT     H254294   3.009   6.506   1.651
18018WAT      O54295   7.333   8.818   6.294
18018WAT     H154296   7.251   8.794   6.241
18018WAT     H254297   7.391   8.737   6.305
18019WAT      O54298   1.802   2.469   3.310
18019WAT     H154299   1.777   2.547   3.252
18019WAT     H254300   1.719   2.424   3.343
18020WAT      O54301   4.450   7.990   4.944
18020WAT     H154302   4.360   7.961   4.975
18020WAT     H254303   4.441   8.062   4.875
18021WAT      O54304   2.295   0.310   4.907
18021WAT     H154305   2.335   0.237   4.964
18021WAT     H254306   2.322   0.296   4.812
18022WAT      O54307   1.409   2.835   4.317
18022WAT     H154308   1.333   2.789   4.271
18022WAT     H254309   1.477   2.863   4.250
18023WAT      O54310   1.787   0.986   3.097
18023WAT     H154311   1.811   0.948   3.186
18023WAT     H254312   1.749   1.078   3.109
18024WAT      O54313   6.987   0.000   6.461
18024WAT     H154314   6.949   0.091   6.441
18024WAT     H254315   7.085   0.009   6.480
18025WAT      O54316   1.944   8.090   2.839
18025WAT     H154317   1.886   8.170   2.853
18025WAT     H254318   2.011   8.110   2.767
18026WAT      O54319   8.201   8.101   0.418
18026WAT     H154320   8.164   8.085   0.509
18026WAT     H254321   8.251   8.019   0.388
18027WAT      O54322   9.556   5.424   2.959
18027WAT     H154323   9.603   5.346   3.000
18027WAT     H254324   9.619   5.503   2.957
18028WAT      O54325   4.082   2.050   7.483
18028WAT     H154326   4.009   2.000   7.436
18028WAT     H254327   4.147   2.085   7.415
18029WAT      O54328   1.111   3.136   5.146
18029WAT     H154329   1.205   3.139   5.111
18029WAT     H254330   1.059   3.066   5.097
18030WAT      O54331   0.209   3.581   1.737
18030WAT     H154332   0.172   3.503   1.788
18030WAT     H254333   0.277   3.628   1.793
18031WAT      O54334   1.917   8.252   7.280
18031WAT     H154335   1.974   8.328   7.311
18031WAT     H254336   1.871   8.211   7.358
18032WAT      O54337   3.107   4.472   8.391
18032WAT     H154338   3.164   4.528   8.452
18032WAT     H254339   3.152   4.462   8.303
18033WAT      O54340   1.800   6.380   5.916
18033WAT     H154341   1.841   6.324   5.987
18033WAT     H254342   1.716   6.422   5.951
18034WAT      O54343   9.061   0.003   7.694
18034WAT     H154344   9.158  -0.000   7.667
18034WAT     H254345   9.051   0.061   7.775
18035WAT      O54346   0.284   8.004   3.086
18035WAT     H154347   0.270   8.081   3.024
18035WAT     H254348   0.340   8.033   3.163
18036WAT      O54349   6.828   4.552   4.942
18036WAT     H154350   6.756   4.619   4.925
18036WAT     H254351   6.913   4.581   4.899
18037WAT      O54352   3.097   0.740   6.133
18037WAT     H154353   3.147   0.807   6.078
18037WAT     H254354   3.000   0.741   6.108
18038WAT      O54355   7.334   3.712   5.266
18038WAT     H154356   7.361   3.771   5.342
18038WAT     H254357   7.412   3.656   5.238
18039WAT      O54358   5.143   3.911   7.888
18039WAT     H154359   5.185   3.922   7.978
18039WAT     H254360   5.214   3.909   7.818
18040WAT      O54361   0.150   9.358   4.941
18040WAT     H154362   0.091   9.313   5.009
18040WAT     H254363   0.185   9.289   4.878
18041WAT      O54364   7.048   2.977   4.276
18041WAT     H154365   7.124   2.981   4.341
18041WAT     H254366   7.033   3.068   4.237
18042WAT      O54367   8.844   1.106   3.979
18042WAT     H154368   8.861   1.057   4.065
18042WAT     H254369   8.796   1.045   3.915
18043WAT      O54370   3.093   7.346   0.747
18043WAT     H154371   3.033   7.295   0.686
18043WAT     H254372   3.081   7.444   0.732
18044WAT      O54373   7.103   4.592   3.851
18044WAT     H154374   7.152   4.598   3.938
18044WAT     H254375   7.080   4.497   3.832
18045WAT      O54376   4.804   1.111   1.286
18045WAT     H154377   4.865   1.126   1.363
18045WAT     H254378   4.714   1.083   1.319
18046WAT      O54379   2.053   4.180   4.532
18046WAT     H154380   1.999   4.096   4.531
18046WAT     H254381   2.009   4.248   4.473
18047WAT      O54382   6.067   8.814   8.854
18047WAT     H154383   5.998   8.742   8.867
18047WAT     H254384   6.045   8.891   8.914
18048WAT      O54385   8.467   0.403   9.730
18048WAT     H154386   8.444   0.316   9.687
18048WAT     H254387   8.511   0.385   9.818
18049WAT      O54388   7.346   0.705   8.536
18049WAT     H154389   7.373   0.731   8.443
18049WAT     H254390   7.291   0.621   8.532
18050WAT      O54391   3.553   4.738   0.272
18050WAT     H154392   3.620   4.663   0.279
18050WAT     H254393   3.508   4.750   0.360
18051WAT      O54394   1.817   6.947   7.256
18051WAT     H154395   1.782   6.856   7.234
18051WAT     H254396   1.904   6.938   7.303
18052WAT      O54397   4.372   0.219   3.427
18052WAT     H154398   4.448   0.200   3.365
18052WAT     H254399   4.286   0.213   3.376
18053WAT      O54400   5.281   7.506   3.649
18053WAT     H154401   5.239   7.528   3.738
18053WAT     H254402   5.210   7.478   3.585
18054WAT      O54403   2.269   1.432   4.100
18054WAT     H154404   2.278   1.450   4.198
18054WAT     H254405   2.218   1.507   4.057
18055WAT      O54406   0.108   4.335   5.934
18055WAT     H154407   0.137   4.429   5.917
18055WAT     H254408   0.162   4.296   6.008
18056WAT      O54409   0.279   8.382   6.575
18056WAT     H154410   0.300   8.323   6.497
18056WAT     H254411   0.184   8.413   6.569
18057WAT      O54412   7.618   1.703   6.175
18057WAT     H154413   7.534   1.756   6.172
18057WAT     H254414   7.601   1.609   6.145
18058WAT      O54415   4.795   2.463   7.649
18058WAT     H154416   4.718   2.522   7.623
18058WAT     H254417   4.824   2.485   7.742
18059WAT      O54418   1.467   1.571   5.713
18059WAT     H154419   1.508   1.588   5.803
18059WAT     H254420   1.424   1.655   5.680
18060WAT      O54421   9.246   6.097   7.940
18060WAT     H154422   9.193   6.162   7.886
18060WAT     H254423   9.200   6.080   8.027
18061WAT      O54424   8.039   3.012   1.014
18061WAT     H154425   7.944   2.981   1.010
18061WAT     H254426   8.041   3.107   1.045
18062WAT      O54427   6.907   5.157   1.096
18062WAT     H154428   6.874   5.184   1.186
18062WAT     H254429   6.992   5.104   1.106
18063WAT      O54430   0.167   9.126   3.167
18063WAT     H154431   0.135   9.065   3.239
18063WAT     H254432   0.246   9.085   3.120
18064WAT      O54433   9.170   7.620   5.148
18064WAT     H154434   9.104   7.621   5.073
18064WAT     H254435   9.225   7.536   5.144
18065WAT      O54436   2.580   4.494   3.894
18065WAT     H154437   2.560   4.469   3.988
18065WAT     H254438   2.608   4.590   3.890
18066WAT      O54439   9.154   2.516   9.213
18066WAT     H154440   9.228   2.461   9.251
18066WAT     H254441   9.070   2.500   9.265
18067WAT      O54442   1.457   0.406   1.465
18067WAT     H154443   1.408   0.445   1.543
18067WAT     H254444   1.422   0.315   1.445
18068WAT      O54445   8.342   9.312   5.874
18068WAT     H154446   8.286   9.341   5.797
18068WAT     H254447   8.284   9.272   5.945
18069WAT      O54448   9.114   3.867   0.651
18069WAT     H154449   9.168   3.911   0.579
18069WAT     H254450   9.017   3.871   0.626
18070WAT      O54451   2.008   7.714   1.635
18070WAT     H154452   2.013   7.697   1.733
18070WAT     H254453   1.972   7.806   1.618
18071WAT      O54454   6.450   6.704   2.248
18071WAT     H154455   6.367   6.756   2.265
18071WAT     H254456   6.518   6.762   2.204
18072WAT      O54457   1.098   9.546   1.080
18072WAT     H154458   1.173   9.534   1.146
18072WAT     H254459   1.082   9.460   1.032
18073WAT      O54460   5.920   4.974   9.010
18073WAT     H154461   5.860   4.931   9.077
18073WAT     H254462   5.864   5.008   8.934
18074WAT      O54463   2.465   4.743   7.616
18074WAT     H154464   2.485   4.671   7.550
18074WAT     H254465   2.514   4.827   7.589
18075WAT      O54466   0.754   8.591   3.331
18075WAT     H154467   0.842   8.630   3.302
18075WAT     H254468   0.701   8.564   3.251
18076WAT      O54469   6.248   8.000   6.541
18076WAT     H154470   6.231   7.902   6.529
18076WAT     H254471   6.176   8.039   6.599
18077WAT      O54472   5.396   4.675   7.784
18077WAT     H154473   5.330   4.744   7.814
18077WAT     H254474   5.446   4.641   7.863
18078WAT      O54475   4.754   0.536   6.946
18078WAT     H154476   4.783   0.631   6.954
18078WAT     H254477   4.732   0.516   6.850
18079WAT      O54478   5.532   8.257   3.832
18079WAT     H154479   5.452   8.310   3.863
18079WAT     H254480   5.556   8.285   3.739
18080WAT      O54481   2.485   3.291   4.481
18080WAT     H154482   2.571   3.288   4.430
18080WAT     H254483   2.419   3.227   4.440
18081WAT      O54484   0.204   0.264   6.069
18081WAT     H154485   0.215   0.201   6.146
18081WAT     H254486   0.108   0.290   6.060
18082WAT      O54487   8.215   6.038   6.611
18082WAT     H154488   8.197   6.083   6.524
18082WAT     H254489   8.314   6.031   6.624
18083WAT      O54490   9.188   1.910   0.305
18083WAT     H154491   9.165   1.987   0.364
18083WAT     H254492   9.141   1.919   0.217
18084WAT      O54493   9.362   3.610   6.030
18084WAT     H154494   9.345   3.526   6.082
18084WAT     H254495   9.386   3.684   6.094
18085WAT      O54496   1.645   0.627   2.785
18085WAT     H154497   1.627   0.669   2.696
18085WAT     H254498   1.599   0.680   2.856
18086WAT      O54499   1.954   9.637   1.455
18086WAT     H154500   2.037   9.602   1.412
18086WAT     H254501   1.921   9.571   1.522
18087WAT      O54502   5.425   1.079   0.921
18087WAT     H154503   5.341   1.071   0.974
18087WAT     H254504   5.408   1.051   0.827
18088WAT      O54505   7.961   7.027   2.403
18088WAT     H154506   7.939   6.932   2.425
18088WAT     H254507   7.888   7.066   2.348
18089WAT      O54508   5.497   4.544   1.967
18089WAT     H154509   5.452   4.595   2.041
18089WAT     H254510   5.510   4.605   1.889
18090WAT      O54511   6.831   9.016   6.577
18090WAT     H154512   6.819   8.961   6.659
18090WAT     H254513   6.884   9.098   6.600
18091WAT      O54514   4.570   1.668   5.448
18091WAT     H154515   4.562   1.715   5.536
18091WAT     H254516   4.505   1.592   5.444
18092WAT      O54517   2.780   6.116   0.610
18092WAT     H154518   2.847   6.072   0.670
18092WAT     H254519   2.704   6.150   0.664
18093WAT      O54520   5.353   1.023   9.085
18093WAT     H154521   5.431   1.018   9.147
18093WAT     H254522   5.313   0.932   9.075
18094WAT      O54523   8.491   8.585   2.845
18094WAT     H154524   8.422   8.556   2.779
18094WAT     H254525   8.581   8.579   2.804
18095WAT      O54526   5.908   2.739   8.587
18095WAT     H154527   5.832   2.674   8.576
18095WAT     H254528   5.956   2.719   8.673
18096WAT      O54529   3.402   8.727   6.235
18096WAT     H154530   3.493   8.739   6.194
18096WAT     H254531   3.339   8.794   6.196
18097WAT      O54532   2.864   7.592   7.344
18097WAT     H154533   2.843   7.630   7.434
18097WAT     H254534   2.811   7.508   7.330
18098WAT      O54535   8.298   6.156   3.136
18098WAT     H154536   8.394   6.132   3.146
18098WAT     H254537   8.269   6.214   3.213
18099WAT      O54538   6.148   6.852   1.323
18099WAT     H154539   6.236   6.807   1.310
18099WAT     H254540   6.114   6.885   1.235
18100WAT      O54541   7.050   3.563   1.227
18100WAT     H154542   7.047   3.497   1.152
18100WAT     H254543   6.966   3.555   1.281
18101WAT      O54544   0.176   6.010   6.863
18101WAT     H154545   0.235   5.963   6.929
18101WAT     H254546   0.105   5.947   6.832
18102WAT      O54547   5.649   1.125   0.418
18102WAT     H154548   5.667   1.040   0.368
18102WAT     H254549   5.673   1.203   0.359
18103WAT      O54550   1.612   2.738   1.456
18103WAT     H154551   1.640   2.729   1.361
18103WAT     H254552   1.647   2.825   1.492
18104WAT      O54553   3.462   1.978   7.470
18104WAT     H154554   3.388   1.920   7.437
18104WAT     H254555   3.541   1.921   7.493
18105WAT      O54556   2.265   3.235   6.540
18105WAT     H154557   2.351   3.276   6.507
18105WAT     H254558   2.191   3.301   6.527
18106WAT      O54559   8.830   1.516   8.591
18106WAT     H154560   8.925   1.518   8.624
18106WAT     H254561   8.781   1.441   8.634
18107WAT      O54562   6.915   5.260   5.942
18107WAT     H154563   6.938   5.199   5.866
18107WAT     H254564   6.958   5.227   6.026
18108WAT      O54565   8.974   4.962   5.537
18108WAT     H154566   9.016   5.039   5.586
18108WAT     H254567   8.900   4.924   5.591
18109WAT      O54568   9.464   2.830   7.951
18109WAT     H154569   9.409   2.750   7.971
18109WAT     H254570   9.405   2.905   7.923
18110WAT      O54571   4.439   2.241   5.918
18110WAT     H154572   4.342   2.264   5.906
18110WAT     H254573   4.472   2.282   6.003
18111WAT      O54574   2.928   6.716   7.291
18111WAT     H154575   2.854   6.656   7.318
18111WAT     H254576   2.903   6.811   7.310
18112WAT      O54577   0.112   0.025   8.951
18112WAT     H154578   0.149  -0.044   9.014
18112WAT     H254579   0.146   0.115   8.977
18113WAT      O54580   1.342   2.591   3.278
18113WAT     H154581   1.259   2.536   3.290
18113WAT     H254582   1.333   2.645   3.194
18114WAT      O54583   6.536   6.575   5.081
18114WAT     H154584   6.599   6.616   5.015
18114WAT     H254585   6.581   6.570   5.171
18115WAT      O54586   1.551   5.612   4.057
18115WAT     H154587   1.623   5.608   4.127
18115WAT     H254588   1.514   5.520   4.042
18116WAT      O54589   5.005   3.842   3.360
18116WAT     H154590   4.999   3.941   3.347
18116WAT     H254591   5.056   3.822   3.443
18117WAT      O54592   5.524   6.715   3.829
18117WAT     H154593   5.543   6.631   3.778
18117WAT     H254594   5.505   6.790   3.766
18118WAT      O54595   5.415   8.771   2.613
18118WAT     H154596   5.405   8.771   2.712
18118WAT     H254597   5.474   8.847   2.585
18119WAT      O54598   2.748   2.947   4.259
18119WAT     H154599   2.779   2.854   4.276
18119WAT     H254600   2.801   3.011   4.314
18120WAT      O54601   1.709   8.166   7.728
18120WAT     H154602   1.631   8.126   7.776
18120WAT     H254603   1.723   8.260   7.761
18121WAT      O54604   6.048   8.802   2.826
18121WAT     H154605   6.008   8.869   2.763
18121WAT     H254606   6.146   8.819   2.835
18122WAT      O54607   8.867   5.608   6.909
18122WAT     H154608   8.830   5.515   6.912
18122WAT     H254609   8.959   5.609   6.949
18123WAT      O54610   8.969   9.418   7.448
18123WAT     H154611   8.903   9.458   7.512
18123WAT     H254612   9.060   9.420   7.489
18124WAT      O54613   8.257   2.029   2.596
18124WAT     H154614   8.306   1.956   2.643
18124WAT     H254615   8.200   1.990   2.524
18125WAT      O54616   7.887   4.479   0.766
18125WAT     H154617   7.920   4.510   0.677
18125WAT     H254618   7.813   4.413   0.753
18126WAT      O54619   0.642   2.010   5.439
18126WAT     H154620   0.646   1.923   5.488
18126WAT     H254621   0.547   2.035   5.423
18127WAT      O54622   3.738   8.508   8.854
18127WAT     H154623   3.785   8.586   8.896
18127WAT     H254624   3.647   8.536   8.823
18128WAT      O54625   8.814   3.958   8.222
18128WAT     H154626   8.857   4.042   8.256
18128WAT     H254627   8.879   3.882   8.231
18129WAT      O54628   5.531   5.853   6.687
18129WAT     H154629   5.526   5.895   6.777
18129WAT     H254630   5.508   5.756   6.694
18130WAT      O54631   0.369   8.685   0.638
18130WAT     H154632   0.279   8.657   0.603
18130WAT     H254633   0.432   8.696   0.562
18131WAT      O54634   8.708   9.324   1.370
18131WAT     H154635   8.623   9.275   1.387
18131WAT     H254636   8.690   9.422   1.365
18132WAT      O54637   0.833   2.077   7.277
18132WAT     H154638   0.892   1.996   7.285
18132WAT     H254639   0.772   2.081   7.357
18133WAT      O54640   9.214   0.660   8.201
18133WAT     H154641   9.314   0.664   8.212
18133WAT     H254642   9.174   0.612   8.280
18134WAT      O54643   9.743   9.130   3.187
18134WAT     H154644   9.723   9.210   3.245
18134WAT     H254645   9.839   9.133   3.159
18135WAT      O54646   1.888   0.383   2.488
18135WAT     H154647   1.929   0.304   2.444
18135WAT     H254648   1.836   0.353   2.568
18136WAT      O54649   7.649   6.767   9.715
18136WAT     H154650   7.634   6.864   9.733
18136WAT     H254651   7.746   6.746   9.730
18137WAT      O54652   7.774   9.131   7.913
18137WAT     H154653   7.788   9.056   7.850
18137WAT     H254654   7.832   9.208   7.886
18138WAT      O54655   6.332   7.448   2.213
18138WAT     H154656   6.378   7.387   2.277
18138WAT     H254657   6.399   7.510   2.172
18139WAT      O54658   5.200   2.359   0.093
18139WAT     H154659   5.113   2.312   0.079
18139WAT     H254660   5.275   2.294   0.084
18140WAT      O54661   6.389   6.193   6.498
18140WAT     H154662   6.418   6.099   6.515
18140WAT     H254663   6.385   6.209   6.399
18141WAT      O54664   7.723   7.529   4.287
18141WAT     H154665   7.669   7.482   4.357
18141WAT     H254666   7.662   7.565   4.216
18142WAT      O54667   2.649   4.849   2.509
18142WAT     H154668   2.599   4.811   2.431
18142WAT     H254669   2.747   4.842   2.493
18143WAT      O54670   8.468   5.800   7.058
18143WAT     H154671   8.497   5.893   7.034
18143WAT     H254672   8.544   5.751   7.099
18144WAT      O54673   8.541   6.082   7.752
18144WAT     H154674   8.631   6.041   7.755
18144WAT     H254675   8.478   6.022   7.703
18145WAT      O54676   1.392   7.497   5.394
18145WAT     H154677   1.384   7.588   5.435
18145WAT     H254678   1.301   7.463   5.371
18146WAT      O54679   7.978   3.639   7.363
18146WAT     H154680   8.029   3.724   7.371
18146WAT     H254681   7.938   3.616   7.451
18147WAT      O54682   8.787   1.832   0.326
18147WAT     H154683   8.865   1.794   0.374
18147WAT     H254684   8.764   1.774   0.248
18148WAT      O54685   4.578   1.609   9.690
18148WAT     H154686   4.670   1.630   9.657
18148WAT     H254687   4.541   1.688   9.739
18149WAT      O54688   9.652   0.461   5.594
18149WAT     H154689   9.589   0.384   5.585
18149WAT     H254690   9.728   0.435   5.654
18150WAT      O54691   5.566   8.721   1.179
18150WAT     H154692   5.525   8.644   1.228
18150WAT     H254693   5.495   8.770   1.128
18151WAT      O54694   1.182   9.765   6.739
18151WAT     H154695   1.273   9.806   6.737
18151WAT     H254696   1.119   9.821   6.686
18152WAT      O54697   3.116   9.337   9.117
18152WAT     H154698   3.204   9.310   9.077
18152WAT     H254699   3.126   9.423   9.166
18153WAT      O54700   1.980   5.627   1.546
18153WAT     H154701   2.074   5.593   1.553
18153WAT     H254702   1.961   5.654   1.451
18154WAT      O54703   6.988   4.384   0.571
18154WAT     H154704   7.000   4.340   0.482
18154WAT     H254705   7.058   4.455   0.582
18155WAT      O54706   9.662   1.658   7.877
18155WAT     H154707   9.622   1.581   7.926
18155WAT     H254708   9.620   1.743   7.907
18156WAT      O54709   2.259   4.051   7.608
18156WAT     H154710   2.210   3.972   7.644
18156WAT     H254711   2.351   4.054   7.648
18157WAT      O54712   2.446   5.907   2.669
18157WAT     H154713   2.456   5.834   2.601
18157WAT     H254714   2.445   5.995   2.622
18158WAT      O54715   6.023   6.088   4.525
18158WAT     H154716   6.094   6.052   4.585
18158WAT     H254717   6.062   6.104   4.434
18159WAT      O54718   2.106   2.458   1.952
18159WAT     H154719   2.176   2.461   1.880
18159WAT     H254720   2.037   2.391   1.928
18160WAT      O54721   1.028   9.160   0.784
18160WAT     H154722   0.965   9.105   0.729
18160WAT     H254723   1.028   9.128   0.878
18161WAT      O54724   9.694   3.638   7.492
18161WAT     H154725   9.658   3.563   7.547
18161WAT     H254726   9.633   3.655   7.415
18162WAT      O54727   2.424   7.823   6.944
18162WAT     H154728   2.446   7.773   7.028
18162WAT     H254729   2.340   7.785   6.905
18163WAT      O54730   8.170   4.303   9.706
18163WAT     H154731   8.269   4.296   9.692
18163WAT     H254732   8.123   4.234   9.651
18164WAT      O54733   7.305   4.237   4.240
18164WAT     H154734   7.353   4.160   4.283
18164WAT     H254735   7.280   4.304   4.309
18165WAT      O54736   2.992   0.549   4.216
18165WAT     H154737   3.027   0.574   4.306
18165WAT     H254738   2.893   0.564   4.213
18166WAT      O54739   5.673   8.871   2.856
18166WAT     H154740   5.577   8.844   2.863
18166WAT     H254741   5.679   8.971   2.849
18167WAT      O54742   8.764   1.651   9.572
18167WAT     H154743   8.760   1.679   9.476
18167WAT     H254744   8.714   1.565   9.584
18168WAT      O54745   4.150   7.536   5.665
18168WAT     H154746   4.097   7.598   5.606
18168WAT     H254747   4.198   7.469   5.609
18169WAT      O54748   2.720   7.557   2.870
18169WAT     H154749   2.661   7.480   2.896
18169WAT     H254750   2.810   7.523   2.844
18170WAT      O54751   4.720   3.551   6.894
18170WAT     H154752   4.660   3.628   6.870
18170WAT     H254753   4.799   3.585   6.945
18171WAT      O54754   5.617   2.857   2.771
18171WAT     H154755   5.611   2.761   2.740
18171WAT     H254756   5.655   2.860   2.863
18172WAT      O54757   3.376   2.779   2.018
18172WAT     H154758   3.443   2.718   2.059
18172WAT     H254759   3.318   2.818   2.090
18173WAT      O54760   6.672   5.662   1.538
18173WAT     H154761   6.613   5.585   1.512
18173WAT     H254762   6.697   5.713   1.456
18174WAT      O54763   4.169   1.115   0.011
18174WAT     H154764   4.076   1.108   0.046
18174WAT     H254765   4.182   1.049  -0.063
18175WAT      O54766   3.941   9.532   9.275
18175WAT     H154767   4.006   9.456   9.272
18175WAT     H254768   3.892   9.538   9.189
18176WAT      O54769   3.810   9.565   4.309
18176WAT     H154770   3.757   9.489   4.347
18176WAT     H254771   3.903   9.534   4.288
18177WAT      O54772   9.187   6.767   6.066
18177WAT     H154773   9.103   6.745   6.115
18177WAT     H254774   9.169   6.768   5.967
18178WAT      O54775   8.108   5.354   2.089
18178WAT     H154776   8.205   5.370   2.106
18178WAT     H254777   8.096   5.316   1.998
18179WAT      O54778   2.905   6.487   5.276
18179WAT     H154779   2.991   6.513   5.232
18179WAT     H254780   2.925   6.448   5.366
18180WAT      O54781   3.589   2.395   5.623
18180WAT     H154782   3.685   2.377   5.602
18180WAT     H254783   3.578   2.492   5.645
18181WAT      O54784   0.575   3.456   7.566
18181WAT     H154785   0.578   3.390   7.641
18181WAT     H254786   0.510   3.426   7.497
18182WAT      O54787   7.616   3.799   2.388
18182WAT     H154788   7.570   3.871   2.439
18182WAT     H254789   7.657   3.734   2.453
18183WAT      O54790   4.551   9.654   0.535
18183WAT     H154791   4.597   9.680   0.620
18183WAT     H254792   4.585   9.566   0.504
18184WAT      O54793   8.703   1.645   0.704
18184WAT     H154794   8.662   1.656   0.794
18184WAT     H254795   8.802   1.631   0.714
18185WAT      O54796   3.601   2.534   6.803
18185WAT     H154797   3.522   2.530   6.863
18185WAT     H254798   3.631   2.629   6.793
18186WAT      O54799   0.001   0.022   1.002
18186WAT     H154800   0.095  -0.003   1.027
18186WAT     H254801  -0.061  -0.003   1.076
18187WAT      O54802   0.664   2.422   5.497
18187WAT     H154803   0.727   2.433   5.574
18187WAT     H254804   0.702   2.356   5.432
18188WAT      O54805   8.427   2.151   7.809
18188WAT     H154806   8.411   2.134   7.906
18188WAT     H254807   8.496   2.087   7.775
18189WAT      O54808   6.805   9.042   4.730
18189WAT     H154809   6.852   9.109   4.672
18189WAT     H254810   6.820   8.950   4.694
18190WAT      O54811   3.304   1.938   4.477
18190WAT     H154812   3.205   1.937   4.467
18190WAT     H254813   3.344   1.997   4.406
18191WAT      O54814   6.398   1.013   4.183
18191WAT     H154815   6.327   1.083   4.187
18191WAT     H254816   6.481   1.052   4.144
18192WAT      O54817   5.958   7.298   6.482
18192WAT     H154818   6.051   7.301   6.447
18192WAT     H254819   5.898   7.256   6.414
18193WAT      O54820   5.916   2.262   2.986
18193WAT     H154821   5.875   2.184   2.938
18193WAT     H254822   6.001   2.288   2.940
18194WAT      O54823   2.200   6.355   6.244
18194WAT     H154824   2.198   6.261   6.280
18194WAT     H254825   2.265   6.360   6.169
18195WAT      O54826   5.203   4.811   8.145
18195WAT     H154827   5.267   4.745   8.186
18195WAT     H254828   5.235   4.835   8.054
18196WAT      O54829   9.156   8.439   8.019
18196WAT     H154830   9.211   8.455   7.937
18196WAT     H254831   9.064   8.475   8.005
18197WAT      O54832   3.438   7.995   6.393
18197WAT     H154833   3.425   8.019   6.489
18197WAT     H254834   3.350   8.001   6.345
18198WAT      O54835   4.982   8.432   9.370
18198WAT     H154836   5.062   8.457   9.317
18198WAT     H254837   4.934   8.357   9.325
18199WAT      O54838   6.923   8.330   4.224
18199WAT     H154839   6.936   8.235   4.252
18199WAT     H254840   6.974   8.390   4.285
18200WAT      O54841   6.678   0.175   6.997
18200WAT     H154842   6.725   0.263   7.003
18200WAT     H254843   6.586   0.189   6.961
18201WAT      O54844   8.084   4.330   9.159
18201WAT     H154845   8.151   4.294   9.224
18201WAT     H254846   8.112   4.421   9.129
18202WAT      O54847   9.018   1.715   0.393
18202WAT     H154848   9.070   1.799   0.385
18202WAT     H254849   9.080   1.637   0.403
18203WAT      O54850   5.858   5.877   6.895
18203WAT     H154851   5.953   5.883   6.928
18203WAT     H254852   5.832   5.964   6.853
18204WAT      O54853   6.998   2.714   1.978
18204WAT     H154854   6.949   2.641   1.930
18204WAT     H254855   6.937   2.792   1.991
18205WAT      O54856   3.344   2.727   0.136
18205WAT     H154857   3.436   2.756   0.107
18205WAT     H254858   3.277   2.755   0.067
18206WAT      O54859   5.298   3.418   0.910
18206WAT     H154860   5.357   3.361   0.968
18206WAT     H254861   5.259   3.491   0.965
18207WAT      O54862   6.062   8.320   6.927
18207WAT     H154863   6.139   8.369   6.886
18207WAT     H254864   6.052   8.346   7.023
18208WAT      O54865   9.179   4.209   8.643
18208WAT     H154866   9.125   4.215   8.727
18208WAT     H254867   9.147   4.132   8.588
18209WAT      O54868   4.939   4.929   5.058
18209WAT     H154869   4.869   5.000   5.057
18209WAT     H254870   5.000   4.941   4.980
18210WAT      O54871   9.283   0.847   0.537
18210WAT     H154872   9.275   0.752   0.506
18210WAT     H254873   9.229   0.906   0.477
18211WAT      O54874   2.283   2.267   1.546
18211WAT     H154875   2.363   2.226   1.588
18211WAT     H254876   2.201   2.217   1.572
18212WAT      O54877   5.592   8.076   9.725
18212WAT     H154878   5.663   8.053   9.659
18212WAT     H254879   5.633   8.082   9.816
18213WAT      O54880   4.347   0.526   4.547
18213WAT     H154881   4.366   0.441   4.596
18213WAT     H254882   4.335   0.600   4.613
18214WAT      O54883   1.619   3.420   1.085
18214WAT     H154884   1.704   3.368   1.095
18214WAT     H254885   1.545   3.358   1.058
18215WAT      O54886   6.760   9.529   0.791
18215WAT     H154887   6.732   9.433   0.801
18215WAT     H254888   6.857   9.534   0.769
18216WAT      O54889   6.361   0.948   7.406
18216WAT     H154890   6.331   0.910   7.319
18216WAT     H254891   6.327   0.891   7.481
18217WAT      O54892   4.527   8.157   1.618
18217WAT     H154893   4.621   8.184   1.598
18217WAT     H254894   4.478   8.138   1.533
18218WAT      O54895   9.657   3.320   9.615
18218WAT     H154896   9.658   3.220   9.618
18218WAT     H254897   9.627   3.350   9.524
18219WAT      O54898   8.619   4.485   3.545
18219WAT     H154899   8.622   4.410   3.610
18219WAT     H254900   8.525   4.518   3.536
18220WAT      O54901   8.418   9.253   1.522
18220WAT     H154902   8.420   9.290   1.614
18220WAT     H254903   8.472   9.169   1.518
18221WAT      O54904   6.170   5.682   7.752
18221WAT     H154905   6.143   5.748   7.822
18221WAT     H254906   6.124   5.702   7.666
18222WAT      O54907   6.040   8.894   9.700
18222WAT     H154908   6.116   8.948   9.736
18222WAT     H254909   5.966   8.955   9.673
18223WAT      O54910   4.913   6.499   0.916
18223WAT     H154911   4.869   6.515   1.004
18223WAT     H254912   4.992   6.438   0.929
18224WAT      O54913   3.068   9.830   2.687
18224WAT     H154914   3.108   9.847   2.597
18224WAT     H254915   3.010   9.907   2.713
18225WAT      O54916   0.111   6.661   6.503
18225WAT     H154917   0.112   6.619   6.594
18225WAT     H254918   0.056   6.604   6.442
18226WAT      O54919   5.441   0.080   4.590
18226WAT     H154920   5.485  -0.008   4.570
18226WAT     H254921   5.504   0.137   4.643
18227WAT      O54922   1.923   4.696   9.574
18227WAT     H154923   1.979   4.753   9.514
18227WAT     H254924   1.876   4.627   9.519
18228WAT      O54925   8.045   2.262   3.855
18228WAT     H154926   8.073   2.281   3.949
18228WAT     H254927   7.945   2.254   3.852
18229WAT      O54928   8.050   4.502   5.088
18229WAT     H154929   7.962   4.459   5.107
18229WAT     H254930   8.046   4.549   5.000
18230WAT      O54931   6.650   9.387   8.872
18230WAT     H154932   6.625   9.480   8.845
18230WAT     H254933   6.592   9.322   8.824
18231WAT      O54934   1.344   1.899   6.574
18231WAT     H154935   1.392   1.952   6.505
18231WAT     H254936   1.393   1.813   6.591
18232WAT      O54937   9.366   3.048   2.529
18232WAT     H154938   9.453   3.095   2.513
18232WAT     H254939   9.380   2.949   2.528
18233WAT      O54940   2.063   2.737   0.498
18233WAT     H154941   1.999   2.716   0.571
18233WAT     H254942   2.016   2.733   0.410
18234WAT      O54943   9.625   2.855   6.278
18234WAT     H154944   9.628   2.900   6.367
18234WAT     H254945   9.707   2.798   6.267
18235WAT      O54946   7.488   5.564   1.492
18235WAT     H154947   7.494   5.601   1.399
18235WAT     H254948   7.484   5.640   1.557
18236WAT      O54949   7.175   6.435   5.372
18236WAT     H154950   7.093   6.478   5.335
18236WAT     H254951   7.190   6.347   5.326
18237WAT      O54952   6.295   3.622   0.810
18237WAT     H154953   6.372   3.682   0.790
18237WAT     H254954   6.246   3.656   0.890
18238WAT      O54955   1.585   6.095   9.238
18238WAT     H154956   1.568   6.161   9.165
18238WAT     H254957   1.682   6.096   9.262
18239WAT      O54958   1.370   2.556   0.839
18239WAT     H154959   1.284   2.602   0.860
18239WAT     H254960   1.445   2.601   0.888
18240WAT      O54961   3.308   4.023   0.268
18240WAT     H154962   3.352   4.009   0.357
18240WAT     H254963   3.373   4.002   0.195
18241WAT      O54964   7.624   8.411   3.694
18241WAT     H154965   7.561   8.363   3.633
18241WAT     H254966   7.710   8.429   3.646
18242WAT      O54967   7.253   2.447   8.644
18242WAT     H154968   7.340   2.433   8.597
18242WAT     H254969   7.189   2.495   8.583
18243WAT      O54970   1.637   6.509   4.776
18243WAT     H154971   1.725   6.465   4.793
18243WAT     H254972   1.593   6.466   4.697
18244WAT      O54973   3.163   3.170   2.935
18244WAT     H154974   3.238   3.236   2.929
18244WAT     H254975   3.180   3.095   2.871
18245WAT      O54976   5.273   8.192   0.122
18245WAT     H154977   5.359   8.237   0.099
18245WAT     H254978   5.227   8.162   0.038
18246WAT      O54979   7.749   1.137   8.569
18246WAT     H154980   7.713   1.102   8.482
18246WAT     H254981   7.726   1.073   8.642
18247WAT      O54982   5.830   2.587   7.901
18247WAT     H154983   5.831   2.510   7.965
18247WAT     H254984   5.737   2.619   7.888
18248WAT      O54985   5.451   5.629   9.411
18248WAT     H154986   5.550   5.620   9.413
18248WAT     H254987   5.426   5.725   9.422
18249WAT      O54988   0.614   3.815   3.060
18249WAT     H154989   0.710   3.839   3.046
18249WAT     H254990   0.608   3.740   3.127
18250WAT      O54991   8.231   1.785   9.795
18250WAT     H154992   8.131   1.782   9.787
18250WAT     H254993   8.262   1.880   9.795
18251WAT      O54994   3.226   6.930   5.958
18251WAT     H154995   3.293   6.999   5.930
18251WAT     H254996   3.141   6.976   5.987
18252WAT      O54997   8.133   2.480   0.263
18252WAT     H154998   8.204   2.444   0.323
18252WAT     H254999   8.056   2.417   0.261
18253WAT      O55000   7.290   6.364   6.535
18253WAT     H155001   7.379   6.356   6.581
18253WAT     H255002   7.302   6.415   6.450
18254WAT      O55003   1.329   1.614   4.934
18254WAT     H155004   1.415   1.593   4.980
18254WAT     H255005   1.280   1.529   4.915
18255WAT      O55006   5.121   1.739   1.695
18255WAT     H155007   5.126   1.671   1.768
18255WAT     H255008   5.097   1.694   1.609
18256WAT      O55009   5.528   5.697   2.338
18256WAT     H155010   5.450   5.732   2.390
18256WAT     H255011   5.525   5.597   2.337
18257WAT      O55012   4.056   4.780   6.635
18257WAT     H155013   4.011   4.867   6.654
18257WAT     H255014   3.989   4.706   6.643
18258WAT      O55015   2.794   6.338   6.504
18258WAT     H155016   2.862   6.390   6.554
18258WAT     H255017   2.807   6.350   6.406
18259WAT      O55018   2.734   8.345   8.982
18259WAT     H155019   2.764   8.340   9.077
18259WAT     H255020   2.814   8.347   8.922
18260WAT      O55021   2.585   6.173   0.799
18260WAT     H155022   2.502   6.211   0.759
18260WAT     H255023   2.562   6.092   0.853
18261WAT      O55024   2.890   3.780   7.807
18261WAT     H155025   2.939   3.823   7.731
18261WAT     H255026   2.948   3.780   7.888
18262WAT      O55027   4.604   7.650   4.919
18262WAT     H155028   4.643   7.591   4.848
18262WAT     H255029   4.589   7.742   4.882
18263WAT      O55030   9.448   9.710   7.462
18263WAT     H155031   9.459   9.624   7.412
18263WAT     H255032   9.513   9.777   7.428
18264WAT      O55033   3.745   0.826   2.829
18264WAT     H155034   3.723   0.850   2.735
18264WAT     H255035   3.794   0.902   2.872
18265WAT      O55036   8.714   0.565   4.994
18265WAT     H155037   8.655   0.566   5.075
18265WAT     H255038   8.731   0.471   4.966
18266WAT      O55039   5.597   7.570   9.480
18266WAT     H155040   5.696   7.558   9.486
18266WAT     H255041   5.557   7.493   9.430
18267WAT      O55042   5.588   3.706   6.804
18267WAT     H155043   5.518   3.713   6.733
18267WAT     H255044   5.631   3.616   6.799
18268WAT      O55045   4.138   0.159   8.455
18268WAT     H155046   4.209   0.229   8.449
18268WAT     H255047   4.157   0.099   8.532
18269WAT      O55048   2.825   0.263   3.356
18269WAT     H155049   2.762   0.279   3.433
18269WAT     H255050   2.827   0.343   3.297
18270WAT      O55051   3.308   5.873   2.621
18270WAT     H155052   3.250   5.820   2.559
18270WAT     H255053   3.286   5.850   2.716
18271WAT      O55054   9.128   5.591   7.082
18271WAT     H155055   9.124   5.504   7.131
18271WAT     H255056   9.072   5.659   7.130
18272WAT      O55057   0.954   8.542   4.709
18272WAT     H155058   0.908   8.519   4.623
18272WAT     H255059   0.896   8.602   4.763
18273WAT      O55060   1.845   2.396   9.588
18273WAT     H155061   1.841   2.412   9.687
18273WAT     H255062   1.939   2.407   9.557
18274WAT      O55063   6.608   2.130   1.774
18274WAT     H155064   6.541   2.158   1.705
18274WAT     H255065   6.567   2.138   1.865
18275WAT      O55066   5.962   2.498   4.491
18275WAT     H155067   6.035   2.470   4.553
18275WAT     H255068   5.988   2.583   4.445
18276WAT      O55069   0.802   3.479   0.974
18276WAT     H155070   0.797   3.393   0.923
18276WAT     H255071   0.724   3.485   1.037
18277WAT      O55072   7.104   9.775   7.834
18277WAT     H155073   7.042   9.701   7.805
18277WAT     H255074   7.064   9.863   7.811
18278WAT      O55075   1.026   4.127   1.457
18278WAT     H155076   0.938   4.152   1.416
18278WAT     H255077   1.099   4.180   1.414
18279WAT      O55078   5.328   7.006   5.152
18279WAT     H155079   5.311   7.057   5.236
18279WAT     H255080   5.282   6.917   5.156
18280WAT      O55081   1.846   0.477   7.769
18280WAT     H155082   1.895   0.480   7.682
18280WAT     H255083   1.898   0.423   7.835
18281WAT      O55084   8.702   2.580   6.666
18281WAT     H155085   8.732   2.675   6.651
18281WAT     H255086   8.661   2.572   6.757
18282WAT      O55087   6.592   5.761   1.125
18282WAT     H155088   6.628   5.780   1.034
18282WAT     H255089   6.665   5.728   1.184
18283WAT      O55090   3.426   2.805   8.988
18283WAT     H155091   3.482   2.872   8.940
18283WAT     H255092   3.465   2.714   8.977
18284WAT      O55093   1.805   0.420   4.037
18284WAT     H155094   1.780   0.444   3.944
18284WAT     H255095   1.742   0.463   4.101
18285WAT      O55096   2.753   6.932   3.468
18285WAT     H155097   2.796   7.021   3.480
18285WAT     H255098   2.801   6.864   3.524
18286WAT      O55099   8.472   2.235   8.491
18286WAT     H155100   8.483   2.302   8.418
18286WAT     H255101   8.436   2.280   8.573
18287WAT      O55102   6.970   4.606   6.502
18287WAT     H155103   6.951   4.556   6.587
18287WAT     H255104   7.008   4.543   6.435
18288WAT      O55105   0.865   1.319   4.063
18288WAT     H155106   0.903   1.296   3.974
18288WAT     H255107   0.879   1.242   4.126
18289WAT      O55108   6.685   8.785   9.068
18289WAT     H155109   6.670   8.767   9.165
18289WAT     H255110   6.598   8.786   9.020
18290WAT      O55111   5.873   0.280   0.586
18290WAT     H155112   5.833   0.303   0.675
18290WAT     H255113   5.972   0.283   0.592
18291WAT      O55114   6.664   4.701   1.477
18291WAT     H155115   6.593   4.735   1.416
18291WAT     H255116   6.654   4.742   1.568
18292WAT      O55117   6.836   9.236   0.909
18292WAT     H155118   6.769   9.264   0.977
18292WAT     H255119   6.834   9.137   0.898
18293WAT      O55120   3.718   2.149   0.972
18293WAT     H155121   3.686   2.115   0.883
18293WAT     H255122   3.644   2.196   1.018
18294WAT      O55123   8.497   4.471   8.054
18294WAT     H155124   8.400   4.461   8.031
18294WAT     H255125   8.526   4.394   8.111
18295WAT      O55126   5.898   6.349   4.500
18295WAT     H155127   5.828   6.332   4.430
18295WAT     H255128   5.932   6.262   4.534
18296WAT      O55129   3.280   5.029   5.851
18296WAT     H155130   3.280   5.056   5.755
18296WAT     H255131   3.362   5.064   5.895
18297WAT      O55132   7.368   3.413   3.918
18297WAT     H155133   7.407   3.327   3.883
18297WAT     H255134   7.414   3.490   3.874
18298WAT      O55135   4.637   4.490   9.637
18298WAT     H155136   4.539   4.506   9.630
18298WAT     H255137   4.653   4.406   9.689
18299WAT      O55138   7.225   6.630   3.528
18299WAT     H155139   7.220   6.701   3.457
18299WAT     H255140   7.235   6.674   3.617
18300WAT      O55141   3.729   5.707   3.623
18300WAT     H155142   3.816   5.706   3.672
18300WAT     H255143   3.674   5.629   3.652
18301WAT      O55144   1.044   1.690   4.647
18301WAT     H155145   0.966   1.675   4.708
18301WAT     H255146   1.116   1.738   4.697
18302WAT      O55147   2.699   3.184   6.408
18302WAT     H155148   2.786   3.170   6.454
18302WAT     H255149   2.709   3.168   6.310
18303WAT      O55150   5.437   4.068   6.247
18303WAT     H155151   5.409   3.978   6.213
18303WAT     H255152   5.367   4.135   6.225
18304WAT      O55153   8.372   3.128   0.968
18304WAT     H155154   8.349   3.192   0.895
18304WAT     H255155   8.323   3.042   0.954
18305WAT      O55156   9.328   8.577   4.054
18305WAT     H155157   9.394   8.644   4.087
18305WAT     H255158   9.289   8.527   4.131
18306WAT      O55159   8.804   0.973   6.355
18306WAT     H155160   8.731   1.040   6.365
18306WAT     H255161   8.797   0.927   6.267
18307WAT      O55162   1.179   3.620   4.111
18307WAT     H155163   1.186   3.585   4.204
18307WAT     H255164   1.086   3.608   4.077
18308WAT      O55165   5.729   9.079   3.672
18308WAT     H155166   5.739   9.178   3.668
18308WAT     H255167   5.717   9.043   3.579
18309WAT      O55168   8.856   0.259   9.520
18309WAT     H155169   8.803   0.341   9.497
18309WAT     H255170   8.825   0.223   9.608
18310WAT      O55171   0.968   5.135   8.816
18310WAT     H155172   0.999   5.052   8.862
18310WAT     H255173   1.026   5.152   8.736
18311WAT      O55174   4.590   3.120   6.615
18311WAT     H155175   4.571   3.029   6.579
18311WAT     H255176   4.674   3.155   6.575
18312WAT      O55177   0.928   2.253   2.068
18312WAT     H155178   0.926   2.285   1.973
18312WAT     H255179   0.964   2.327   2.126
18313WAT      O55180   2.685   8.656   8.259
18313WAT     H155181   2.625   8.586   8.298
18313WAT     H255182   2.750   8.613   8.197
18314WAT      O55183   2.512   0.751   5.953
18314WAT     H155184   2.528   0.692   6.033
18314WAT     H255185   2.599   0.779   5.913
18315WAT      O55186   2.039   2.355   9.269
18315WAT     H155187   2.077   2.429   9.325
18315WAT     H255188   2.065   2.267   9.309
18316WAT      O55189   1.478   4.345   7.608
18316WAT     H155190   1.396   4.368   7.557
18316WAT     H255191   1.554   4.402   7.577
18317WAT      O55192   1.539   6.706   3.788
18317WAT     H155193   1.486   6.788   3.773
18317WAT     H255194   1.493   6.648   3.856
18318WAT      O55195   6.894   7.674   1.448
18318WAT     H155196   6.971   7.730   1.419
18318WAT     H255197   6.821   7.734   1.481
18319WAT      O55198   8.295   2.679   6.148
18319WAT     H155199   8.373   2.646   6.200
18319WAT     H255200   8.230   2.723   6.211
18320WAT      O55201   3.073   2.644   9.485
18320WAT     H155202   3.010   2.655   9.562
18320WAT     H255203   3.145   2.579   9.510
18321WAT      O55204   5.830   3.003   8.645
18321WAT     H155205   5.919   3.048   8.648
18321WAT     H255206   5.843   2.906   8.627
18322WAT      O55207   3.191   4.653   6.757
18322WAT     H155208   3.174   4.556   6.777
18322WAT     H255209   3.263   4.661   6.688
18323WAT      O55210   6.474   0.765   5.413
18323WAT     H155211   6.520   0.775   5.324
18323WAT     H255212   6.472   0.854   5.459
18324WAT      O55213   1.420   9.103   6.993
18324WAT     H155214   1.407   9.061   7.083
18324WAT     H255215   1.504   9.068   6.952
18325WAT      O55216   2.508   9.576   9.074
18325WAT     H155217   2.458   9.532   8.999
18325WAT     H255218   2.579   9.515   9.107
18326WAT      O55219   8.875   9.024   1.529
18326WAT     H155220   8.884   9.114   1.487
18326WAT     H255221   8.902   9.029   1.625
18327WAT      O55222   8.979   0.008   8.527
18327WAT     H155223   8.890  -0.032   8.546
18327WAT     H255224   9.034  -0.056   8.473
18328WAT      O55225   1.305   1.387   2.997
18328WAT     H155226   1.400   1.418   2.995
18328WAT     H255227   1.270   1.382   2.904
18329WAT      O55228   4.316   7.161   1.423
18329WAT     H155229   4.385   7.193   1.488
18329WAT     H255230   4.348   7.179   1.330
18330WAT      O55231   2.789   2.784   3.668
18330WAT     H155232   2.745   2.767   3.579
18330WAT     H255233   2.736   2.852   3.719
18331WAT      O55234   8.843   8.049   0.972
18331WAT     H155235   8.799   7.966   0.938
18331WAT     H255236   8.798   8.129   0.934
18332WAT      O55237   6.979   8.671   3.514
18332WAT     H155238   6.951   8.703   3.424
18332WAT     H255239   7.000   8.750   3.572
18333WAT      O55240   3.739   8.344   6.795
18333WAT     H155241   3.693   8.360   6.707
18333WAT     H255242   3.823   8.399   6.799
18334WAT      O55243   6.109   8.627   2.428
18334WAT     H155244   6.207   8.645   2.435
18334WAT     H255245   6.066   8.699   2.374
18335WAT      O55246   7.266   1.341   4.177
18335WAT     H155247   7.206   1.344   4.257
18335WAT     H255248   7.311   1.430   4.165
18336WAT      O55249   9.412   2.231   9.481
18336WAT     H155250   9.375   2.141   9.459
18336WAT     H255251   9.414   2.243   9.580
18337WAT      O55252   8.957   2.790   5.180
18337WAT     H155253   8.880   2.816   5.123
18337WAT     H255254   8.928   2.782   5.275
18338WAT      O55255   2.766   5.036   5.373
18338WAT     H155256   2.715   4.950   5.379
18338WAT     H255257   2.773   5.077   5.463
18339WAT      O55258   9.742   3.304   4.610
18339WAT     H155259   9.746   3.280   4.707
18339WAT     H255260   9.817   3.261   4.561
18340WAT      O55261   8.886   1.175   7.088
18340WAT     H155262   8.947   1.141   7.160
18340WAT     H255263   8.902   1.273   7.075
18341WAT      O55264   0.224   6.660   4.592
18341WAT     H155265   0.141   6.636   4.643
18341WAT     H255266   0.301   6.610   4.631
18342WAT      O55267   0.140   2.976   4.620
18342WAT     H155268   0.185   2.915   4.685
18342WAT     H255269   0.126   2.928   4.533
18343WAT      O55270   0.041   9.524   7.244
18343WAT     H155271   0.075   9.595   7.183
18343WAT     H255272   0.108   9.450   7.251
18344WAT      O55273   8.931   2.746   4.099
18344WAT     H155274   8.892   2.765   4.190
18344WAT     H255275   8.856   2.727   4.035
18345WAT      O55276   6.991   7.997   7.701
18345WAT     H155277   6.982   7.910   7.750
18345WAT     H255278   6.965   8.072   7.761
18346WAT      O55279   5.309   1.002   3.063
18346WAT     H155280   5.270   0.950   3.139
18346WAT     H255281   5.305   1.099   3.083
18347WAT      O55282   9.562   6.013   8.800
18347WAT     H155283   9.574   6.112   8.797
18347WAT     H255284   9.476   5.988   8.755
18348WAT      O55285   3.497   6.120   4.131
18348WAT     H155286   3.516   6.217   4.143
18348WAT     H255287   3.413   6.095   4.178
18349WAT      O55288   8.740   5.864   1.622
18349WAT     H155289   8.691   5.787   1.662
18349WAT     H255290   8.839   5.851   1.635
18350WAT      O55291   3.196   2.120   8.300
18350WAT     H155292   3.198   2.038   8.243
18350WAT     H255293   3.235   2.098   8.390
18351WAT      O55294   0.894   7.268   9.675
18351WAT     H155295   0.902   7.367   9.677
18351WAT     H255296   0.984   7.226   9.688
18352WAT      O55297   4.906   0.774   2.281
18352WAT     H155298   5.003   0.775   2.307
18352WAT     H255299   4.882   0.861   2.238
18353WAT      O55300   6.635   2.477   7.726
18353WAT     H155301   6.669   2.557   7.775
18353WAT     H255302   6.661   2.394   7.776
18354WAT      O55303   7.494   6.648   7.393
18354WAT     H155304   7.583   6.605   7.407
18354WAT     H255305   7.472   6.648   7.295
18355WAT      O55306   4.563   4.784   3.729
18355WAT     H155307   4.477   4.774   3.780
18355WAT     H255308   4.580   4.702   3.675
18356WAT      O55309   8.599   0.445   1.438
18356WAT     H155310   8.608   0.537   1.477
18356WAT     H255311   8.601   0.450   1.338
18357WAT      O55312   6.560   6.214   4.890
18357WAT     H155313   6.466   6.188   4.866
18357WAT     H255314   6.585   6.297   4.841
18358WAT      O55315   0.479   1.030   6.259
18358WAT     H155316   0.545   1.040   6.334
18358WAT     H255317   0.420   1.111   6.256
18359WAT      O55318   6.044   0.555   2.608
18359WAT     H155319   5.971   0.564   2.541
18359WAT     H255320   6.112   0.627   2.592
18360WAT      O55321   7.065   7.814   9.055
18360WAT     H155322   7.012   7.899   9.058
18360WAT     H255323   7.161   7.834   9.070
18361WAT      O55324   3.189   7.991   6.264
18361WAT     H155325   3.172   7.907   6.213
18361WAT     H255326   3.129   8.063   6.230
18362WAT      O55327   1.820   0.773   0.554
18362WAT     H155328   1.774   0.842   0.498
18362WAT     H255329   1.880   0.718   0.496
18363WAT      O55330   9.481   1.186   5.408
18363WAT     H155331   9.468   1.173   5.506
18363WAT     H255332   9.410   1.136   5.358
18364WAT      O55333   7.305   8.078   8.411
18364WAT     H155334   7.306   8.094   8.509
18364WAT     H255335   7.362   7.999   8.389
18365WAT      O55336   9.837   2.068   2.655
18365WAT     H155337   9.927   2.034   2.683
18365WAT     H255338   9.841   2.168   2.645
18366WAT      O55339   9.288   3.273   1.633
18366WAT     H155340   9.243   3.354   1.669
18366WAT     H255341   9.371   3.254   1.686
18367WAT      O55342   2.387   3.498   2.851
18367WAT     H155343   2.367   3.590   2.817
18367WAT     H255344   2.358   3.431   2.783
18368WAT      O55345   8.146   8.526   5.381
18368WAT     H155346   8.061   8.579   5.386
18368WAT     H255347   8.210   8.573   5.321
18369WAT      O55348   6.176   2.625   7.266
18369WAT     H155349   6.147   2.720   7.256
18369WAT     H255350   6.108   2.564   7.226
18370WAT      O55351   6.226   5.328   6.473
18370WAT     H155352   6.133   5.345   6.507
18370WAT     H255353   6.292   5.369   6.535
18371WAT      O55354   6.770   7.566   5.767
18371WAT     H155355   6.760   7.467   5.773
18371WAT     H255356   6.690   7.610   5.809
18372WAT      O55357   3.125   0.395   0.711
18372WAT     H155358   3.142   0.434   0.620
18372WAT     H255359   3.201   0.417   0.772
18373WAT      O55360   5.966   4.953   5.557
18373WAT     H155361   6.018   5.035   5.582
18373WAT     H255362   6.004   4.874   5.605
18374WAT      O55363   1.266   8.002   8.903
18374WAT     H155364   1.188   7.970   8.957
18374WAT     H255365   1.345   7.943   8.920
18375WAT      O55366   3.573   6.990   6.410
18375WAT     H155367   3.491   6.951   6.368
18375WAT     H255368   3.655   6.948   6.370
18376WAT      O55369   9.032   1.797   1.120
18376WAT     H155370   9.033   1.855   1.038
18376WAT     H255371   9.056   1.703   1.094
18377WAT      O55372   9.701   5.898   8.184
18377WAT     H155373   9.772   5.959   8.220
18377WAT     H255374   9.718   5.805   8.215
18378WAT      O55375   5.574   6.984   0.098
18378WAT     H155376   5.607   7.002   0.190
18378WAT     H255377   5.649   6.951   0.041
18379WAT      O55378   8.271   6.818   8.949
18379WAT     H155379   8.271   6.899   9.008
18379WAT     H255380   8.357   6.768   8.960
18380WAT      O55381   1.067   7.200   8.995
18380WAT     H155382   1.004   7.130   9.029
18380WAT     H255383   1.069   7.277   9.058
18381WAT      O55384   0.629   8.481   5.434
18381WAT     H155385   0.709   8.540   5.431
18381WAT     H255386   0.546   8.537   5.442
18382WAT      O55387   9.552   7.219   8.476
18382WAT     H155388   9.540   7.291   8.544
18382WAT     H255389   9.546   7.130   8.520
18383WAT      O55390   7.441   1.555   4.193
18383WAT     H155391   7.409   1.640   4.152
18383WAT     H255392   7.460   1.569   4.290
18384WAT      O55393   4.231   8.979   0.305
18384WAT     H155394   4.243   9.010   0.211
18384WAT     H255395   4.318   8.947   0.341
18385WAT      O55396   3.956   7.670   7.699
18385WAT     H155397   3.967   7.716   7.787
18385WAT     H255398   3.919   7.733   7.632
18386WAT      O55399   6.092   8.550   2.728
18386WAT     H155400   6.078   8.634   2.780
18386WAT     H255401   6.054   8.561   2.636
18387WAT      O55402   0.969   5.402   0.053
18387WAT     H155403   1.043   5.409   0.120
18387WAT     H255404   0.921   5.315   0.066
18388WAT      O55405   0.627   0.151   1.925
18388WAT     H155406   0.605   0.067   1.974
18388WAT     H255407   0.561   0.165   1.851
18389WAT      O55408   8.630   3.228   3.264
18389WAT     H155409   8.653   3.256   3.170
18389WAT     H255410   8.618   3.129   3.267
18390WAT      O55411   7.910   1.690   2.999
18390WAT     H155412   7.955   1.661   2.914
18390WAT     H255413   7.812   1.702   2.983
18391WAT      O55414   3.950   1.956   5.451
18391WAT     H155415   3.863   1.912   5.476
18391WAT     H255416   3.989   1.910   5.371
18392WAT      O55417   4.809   0.881   2.554
18392WAT     H155418   4.881   0.822   2.591
18392WAT     H255419   4.721   0.834   2.560
18393WAT      O55420   6.995   4.064   0.354
18393WAT     H155421   7.027   4.039   0.445
18393WAT     H255422   7.067   4.043   0.287
18394WAT      O55423   9.226   5.718   9.185
18394WAT     H155424   9.156   5.778   9.223
18394WAT     H255425   9.249   5.747   9.093
18395WAT      O55426   8.464   5.958   1.325
18395WAT     H155427   8.413   5.896   1.385
18395WAT     H255428   8.561   5.937   1.332
18396WAT      O55429   3.026   3.977   2.850
18396WAT     H155430   2.955   3.925   2.802
18396WAT     H255431   3.109   3.921   2.857
18397WAT      O55432   9.613   8.804   1.837
18397WAT     H155433   9.513   8.795   1.831
18397WAT     H255434   9.656   8.748   1.766
18398WAT      O55435   7.083   1.500   6.476
18398WAT     H155436   7.088   1.432   6.402
18398WAT     H255437   7.084   1.453   6.564
18399WAT      O55438   7.293   3.849   4.005
18399WAT     H155439   7.303   3.796   4.090
18399WAT     H255440   7.246   3.935   4.025
18400WAT      O55441   4.707   2.029   1.866
18400WAT     H155442   4.806   2.021   1.870
18400WAT     H255443   4.673   1.987   1.782
18401WAT      O55444   1.935   7.415   3.295
18401WAT     H155445   1.920   7.463   3.209
18401WAT     H255446   1.896   7.323   3.289
18402WAT      O55447   0.372   8.783   4.099
18402WAT     H155448   0.442   8.779   4.028
18402WAT     H255449   0.315   8.864   4.085
18403WAT      O55450   4.926   3.976   0.188
18403WAT     H155451   4.992   4.020   0.126
18403WAT     H255452   4.975   3.915   0.251
18404WAT      O55453   9.726   3.580   6.540
18404WAT     H155454   9.724   3.680   6.546
18404WAT     H255455   9.640   3.547   6.503
18405WAT      O55456   9.488   3.925   1.109
18405WAT     H155457   9.453   3.961   1.023
18405WAT     H255458   9.438   3.966   1.185
18406WAT      O55459   5.787   0.011   4.014
18406WAT     H155460   5.789   0.013   3.914
18406WAT     H255461   5.775  -0.083   4.045
18407WAT      O55462   7.481   0.974   9.112
18407WAT     H155463   7.515   0.881   9.097
18407WAT     H255464   7.405   0.972   9.177
18408WAT      O55465   6.716   6.938   7.839
18408WAT     H155466   6.764   6.896   7.916
18408WAT     H255467   6.677   6.866   7.781
18409WAT      O55468   9.465   5.993   5.441
18409WAT     H155469   9.445   5.994   5.539
18409WAT     H255470   9.458   6.086   5.405
18410WAT      O55471   1.971   3.112   4.370
18410WAT     H155472   1.917   3.033   4.340
18410WAT     H255473   2.047   3.081   4.427
18411WAT      O55474   7.721   1.305   0.961
18411WAT     H155475   7.677   1.388   0.925
18411WAT     H255476   7.818   1.305   0.936
18412WAT      O55477   8.452   0.963   5.847
18412WAT     H155478   8.532   0.967   5.788
18412WAT     H255479   8.462   0.887   5.911
18413WAT      O55480   7.329   2.544   7.123
18413WAT     H155481   7.423   2.576   7.137
18413WAT     H255482   7.265   2.614   7.156
18414WAT      O55483   7.717   9.602   4.891
18414WAT     H155484   7.686   9.539   4.963
18414WAT     H255485   7.687   9.695   4.914
18415WAT      O55486   2.048   2.007   5.223
18415WAT     H155487   1.958   2.050   5.224
18415WAT     H255488   2.119   2.077   5.236
18416WAT      O55489   7.932   7.388   4.266
18416WAT     H155490   7.956   7.390   4.363
18416WAT     H255491   7.854   7.449   4.251
18417WAT      O55492   4.870   9.696   0.989
18417WAT     H155493   4.867   9.778   1.046
18417WAT     H255494   4.827   9.716   0.901
18418WAT      O55495   7.023   6.230   4.719
18418WAT     H155496   6.962   6.201   4.644
18418WAT     H255497   7.113   6.253   4.682
18419WAT      O55498   3.691   4.669   2.547
18419WAT     H155499   3.682   4.756   2.498
18419WAT     H255500   3.762   4.678   2.617
18420WAT      O55501   9.137   7.546   9.273
18420WAT     H155502   9.123   7.607   9.350
18420WAT     H255503   9.055   7.543   9.217
18421WAT      O55504   4.541   4.959   7.945
18421WAT     H155505   4.470   4.895   7.916
18421WAT     H255506   4.595   4.918   8.018
18422WAT      O55507   4.486   2.402   3.743
18422WAT     H155508   4.412   2.378   3.679
18422WAT     H255509   4.564   2.437   3.691
18423WAT      O55510   9.068   6.762   9.086
18423WAT     H155511   9.117   6.739   9.170
18423WAT     H255512   9.024   6.680   9.049
18424WAT      O55513   0.599   7.345   4.148
18424WAT     H155514   0.505   7.339   4.182
18424WAT     H255515   0.602   7.409   4.070
18425WAT      O55516   5.298   0.663   2.864
18425WAT     H155517   5.321   0.669   2.961
18425WAT     H255518   5.274   0.753   2.830
18426WAT      O55519   3.535   2.595   7.370
18426WAT     H155520   3.608   2.543   7.414
18426WAT     H255521   3.537   2.689   7.404
18427WAT      O55522   9.106   6.231   0.273
18427WAT     H155523   9.166   6.217   0.352
18427WAT     H255524   9.151   6.289   0.206
18428WAT      O55525   3.634   2.511   0.899
18428WAT     H155526   3.633   2.443   0.825
18428WAT     H255527   3.543   2.515   0.941
18429WAT      O55528   3.716   5.760   2.855
18429WAT     H155529   3.773   5.678   2.857
18429WAT     H255530   3.654   5.756   2.777
18430WAT      O55531   3.360   8.015   6.667
18430WAT     H155532   3.442   8.009   6.724
18430WAT     H255533   3.296   8.081   6.706
18431WAT      O55534   0.830   3.076   3.542
18431WAT     H155535   0.898   3.148   3.555
18431WAT     H255536   0.780   3.092   3.457
18432WAT      O55537   3.468   4.085   8.149
18432WAT     H155538   3.433   4.007   8.200
18432WAT     H255539   3.533   4.054   8.080
18433WAT      O55540   1.584   2.324   2.847
18433WAT     H155541   1.647   2.306   2.922
18433WAT     H255542   1.523   2.246   2.834
18434WAT      O55543   6.697   6.870   0.231
18434WAT     H155544   6.724   6.892   0.137
18434WAT     H255545   6.753   6.795   0.265
18435WAT      O55546   9.417   8.185   7.932
18435WAT     H155547   9.357   8.263   7.920
18435WAT     H255548   9.373   8.117   7.990
18436WAT      O55549   7.366   5.803   7.680
18436WAT     H155550   7.388   5.900   7.672
18436WAT     H255551   7.304   5.776   7.606
18437WAT      O55552   8.811   7.539   2.934
18437WAT     H155553   8.905   7.575   2.931
18437WAT     H255554   8.754   7.591   2.870
18438WAT      O55555   8.207   5.039   4.878
18438WAT     H155556   8.144   4.965   4.898
18438WAT     H255557   8.300   5.002   4.869
18439WAT      O55558   1.196   2.452   1.628
18439WAT     H155559   1.102   2.430   1.656
18439WAT     H255560   1.194   2.523   1.558
18440WAT      O55561   6.557   2.877   8.012
18440WAT     H155562   6.507   2.942   7.954
18440WAT     H255563   6.496   2.843   8.083
18441WAT      O55564   4.479   0.160   8.005
18441WAT     H155565   4.413   0.175   7.931
18441WAT     H255566   4.488   0.061   8.022
18442WAT      O55567   5.092   7.923   7.558
18442WAT     H155568   5.007   7.937   7.506
18442WAT     H255569   5.167   7.906   7.495
18443WAT      O55570   3.256   6.637   1.763
18443WAT     H155571   3.205   6.565   1.716
18443WAT     H255572   3.194   6.713   1.784
18444WAT      O55573   5.062   8.456   6.643
18444WAT     H155574   5.111   8.542   6.656
18444WAT     H255575   5.047   8.412   6.731
18445WAT      O55576   5.666   0.751   4.799
18445WAT     H155577   5.664   0.851   4.805
18445WAT     H255578   5.572   0.716   4.801
18446WAT      O55579   4.594   3.483   2.817
18446WAT     H155580   4.502   3.446   2.806
18446WAT     H255581   4.622   3.528   2.732
18447WAT      O55582   8.706   6.284   4.658
18447WAT     H155583   8.785   6.259   4.601
18447WAT     H255584   8.732   6.360   4.717
18448WAT      O55585   5.497   3.314   5.770
18448WAT     H155586   5.495   3.343   5.674
18448WAT     H255587   5.410   3.338   5.813
18449WAT      O55588   5.237   3.627   2.954
18449WAT     H155589   5.254   3.688   2.876
18449WAT     H255590   5.157   3.570   2.935
18450WAT      O55591   1.032   5.829   0.481
18450WAT     H155592   1.052   5.926   0.464
18450WAT     H255593   0.935   5.818   0.504
18451WAT      O55594   9.156   2.217   7.687
18451WAT     H155595   9.163   2.304   7.735
18451WAT     H255596   9.239   2.201   7.634
18452WAT      O55597   7.841   9.302   4.395
18452WAT     H155598   7.827   9.267   4.487
18452WAT     H255599   7.926   9.265   4.358
18453WAT      O55600   6.608   4.047   2.185
18453WAT     H155601   6.624   4.142   2.160
18453WAT     H255602   6.547   4.043   2.264
18454WAT      O55603   5.545   1.641   1.761
18454WAT     H155604   5.546   1.575   1.836
18454WAT     H255605   5.451   1.674   1.747
18455WAT      O55606   1.924   2.255   5.949
18455WAT     H155607   1.920   2.236   6.047
18455WAT     H255608   1.915   2.168   5.899
18456WAT      O55609   2.995   0.062   8.786
18456WAT     H155610   2.998   0.109   8.698
18456WAT     H255611   2.988  -0.037   8.770
18457WAT      O55612   8.976   3.781   1.353
18457WAT     H155613   9.034   3.770   1.433
18457WAT     H255614   9.018   3.737   1.274
18458WAT      O55615   1.155   7.280   5.820
18458WAT     H155616   1.246   7.305   5.787
18458WAT     H255617   1.162   7.233   5.907
18459WAT      O55618   6.226   4.642   6.598
18459WAT     H155619   6.142   4.605   6.559
18459WAT     H255620   6.207   4.728   6.645
18460WAT      O55621   5.746   5.120   5.410
18460WAT     H155622   5.653   5.100   5.381
18460WAT     H255623   5.768   5.068   5.493
18461WAT      O55624   2.889   4.360   1.331
18461WAT     H155625   2.835   4.382   1.250
18461WAT     H255626   2.922   4.265   1.324
18462WAT      O55627   0.550   8.193   5.936
18462WAT     H155628   0.489   8.223   5.863
18462WAT     H255629   0.636   8.245   5.931
18463WAT      O55630   7.278   4.118   8.503
18463WAT     H155631   7.202   4.096   8.563
18463WAT     H255632   7.352   4.053   8.516
18464WAT      O55633   3.270   9.184   6.498
18464WAT     H155634   3.171   9.179   6.482
18464WAT     H255635   3.287   9.196   6.596
18465WAT      O55636   3.326   0.122   5.370
18465WAT     H155637   3.422   0.134   5.394
18465WAT     H255638   3.320   0.098   5.273
18466WAT      O55639   6.996   7.917   5.820
18466WAT     H155640   7.077   7.976   5.818
18466WAT     H255641   6.934   7.944   5.746
18467WAT      O55642   6.221   1.101   2.856
18467WAT     H155643   6.207   1.111   2.954
18467WAT     H255644   6.221   1.004   2.831
18468WAT      O55645   0.327   7.052   7.828
18468WAT     H155646   0.307   6.987   7.755
18468WAT     H255647   0.278   7.138   7.811
18469WAT      O55648   2.247   3.337   5.564
18469WAT     H155649   2.203   3.375   5.645
18469WAT     H255650   2.335   3.382   5.549
18470WAT      O55651   9.590   5.813   7.933
18470WAT     H155652   9.639   5.870   7.866
18470WAT     H255653   9.631   5.825   8.023
18471WAT      O55654   5.304   8.286   4.324
18471WAT     H155655   5.266   8.358   4.383
18471WAT     H255656   5.319   8.323   4.232
18472WAT      O55657   2.275   0.037   1.303
18472WAT     H155658   2.300  -0.056   1.329
18472WAT     H255659   2.181   0.038   1.268
18473WAT      O55660   1.902   3.429   3.921
18473WAT     H155661   1.889   3.351   3.982
18473WAT     H255662   1.998   3.457   3.922
18474WAT      O55663   5.105   1.517   2.525
18474WAT     H155664   5.117   1.419   2.536
18474WAT     H255665   5.188   1.564   2.557
18475WAT      O55666   3.065   8.999   9.844
18475WAT     H155667   2.977   9.038   9.818
18475WAT     H255668   3.131   9.011   9.769
18476WAT      O55669   4.409   7.818   9.469
18476WAT     H155670   4.352   7.758   9.526
18476WAT     H255671   4.501   7.822   9.508
18477WAT      O55672   8.295   6.432   9.373
18477WAT     H155673   8.232   6.356   9.363
18477WAT     H255674   8.271   6.486   9.453
18478WAT      O55675   4.334   1.044   6.309
18478WAT     H155676   4.373   0.952   6.299
18478WAT     H255677   4.266   1.044   6.382
18479WAT      O55678   2.093   2.722   8.392
18479WAT     H155679   2.024   2.784   8.428
18479WAT     H255680   2.178   2.732   8.444
18480WAT      O55681   0.087   1.154   9.361
18480WAT     H155682   0.133   1.242   9.345
18480WAT     H255683   0.055   1.149   9.455
18481WAT      O55684   4.498   7.387   2.061
18481WAT     H155685   4.523   7.405   1.966
18481WAT     H255686   4.581   7.370   2.115
18482WAT      O55687   6.066   4.543   0.144
18482WAT     H155688   5.982   4.520   0.194
18482WAT     H255689   6.099   4.462   0.096
18483WAT      O55690   0.125   2.953   6.355
18483WAT     H155691   0.203   2.902   6.390
18483WAT     H255692   0.052   2.890   6.329
18484WAT      O55693   0.474   0.154   1.703
18484WAT     H155694   0.385   0.141   1.658
18484WAT     H255695   0.527   0.222   1.653
18485WAT      O55696   7.418   3.336   3.252
18485WAT     H155697   7.482   3.412   3.267
18485WAT     H255698   7.448   3.257   3.305
18486WAT      O55699   5.010   8.417   0.831
18486WAT     H155700   4.945   8.458   0.894
18486WAT     H255701   4.999   8.317   0.831
18487WAT      O55702   6.878   0.606   6.863
18487WAT     H155703   6.964   0.656   6.873
18487WAT     H255704   6.828   0.643   6.785
18488WAT      O55705   6.865   7.005   3.571
18488WAT     H155706   6.788   6.964   3.619
18488WAT     H255707   6.912   6.934   3.518
18489WAT      O55708   2.843   7.841   4.350
18489WAT     H155709   2.787   7.902   4.294
18489WAT     H255710   2.920   7.807   4.295
18490WAT      O55711   3.047   8.890   0.414
18490WAT     H155712   3.071   8.960   0.346
18490WAT     H255713   3.130   8.859   0.460
18491WAT      O55714   3.234   6.821   4.080
18491WAT     H155715   3.332   6.823   4.102
18491WAT     H255716   3.221   6.771   3.994
18492WAT      O55717   5.819   9.369   1.031
18492WAT     H155718   5.732   9.370   0.982
18492WAT     H255719   5.849   9.463   1.048
18493WAT      O55720   9.748   6.541   9.822
18493WAT     H155721   9.724   6.594   9.741
18493WAT     H255722   9.801   6.598   9.885
18494WAT      O55723   6.835   0.284   1.962
18494WAT     H155724   6.853   0.205   1.904
18494WAT     H255725   6.919   0.337   1.973
18495WAT      O55726   1.074   0.714   3.750
18495WAT     H155727   1.010   0.721   3.827
18495WAT     H255728   1.033   0.656   3.679
18496WAT      O55729   7.232   2.849   4.460
18496WAT     H155730   7.329   2.850   4.437
18496WAT     H255731   7.219   2.892   4.550
18497WAT      O55732   0.209   2.899   7.869
18497WAT     H155733   0.202   2.811   7.822
18497WAT     H255734   0.301   2.908   7.908
18498WAT      O55735   4.066   5.314   5.876
18498WAT     H155736   4.129   5.326   5.953
18498WAT     H255737   4.028   5.222   5.879
18499WAT      O55738   2.955   6.220   7.144
18499WAT     H155739   2.981   6.124   7.141
18499WAT     H255740   3.037   6.277   7.137
18500WAT      O55741   4.829   6.571   8.020
18500WAT     H155742   4.904   6.619   8.065
18500WAT     H255743   4.828   6.593   7.923
18501WAT      O55744   3.118   6.667   0.300
18501WAT     H155745   3.045   6.598   0.298
18501WAT     H255746   3.128   6.701   0.393
18502WAT      O55747   1.549   5.618   1.371
18502WAT     H155748   1.585   5.641   1.462
18502WAT     H255749   1.561   5.521   1.354
18503WAT      O55750   8.285   2.685   3.115
18503WAT     H155751   8.251   2.729   3.032
18503WAT     H255752   8.295   2.587   3.100
18504WAT      O55753   9.288   9.059   5.933
18504WAT     H155754   9.370   9.093   5.886
18504WAT     H255755   9.310   9.038   6.028
18505WAT      O55756   2.092   8.520   7.318
18505WAT     H155757   2.045   8.565   7.395
18505WAT     H255758   2.180   8.565   7.302
18506WAT      O55759   6.419   4.515   8.754
18506WAT     H155760   6.514   4.533   8.779
18506WAT     H255761   6.382   4.593   8.703
18507WAT      O55762   8.751   3.317   6.835
18507WAT     H155763   8.837   3.276   6.865
18507WAT     H255764   8.762   3.416   6.828
18508WAT      O55765   6.506   3.314   6.584
18508WAT     H155766   6.562   3.391   6.612
18508WAT     H255767   6.518   3.298   6.486
18509WAT      O55768   8.561   6.123   3.154
18509WAT     H155769   8.636   6.186   3.132
18509WAT     H255770   8.552   6.114   3.253
18510WAT      O55771   0.408   5.282   7.126
18510WAT     H155772   0.451   5.361   7.083
18510WAT     H255773   0.430   5.199   7.075
18511WAT      O55774   6.905   9.408   2.032
18511WAT     H155775   6.905   9.500   2.070
18511WAT     H255776   6.990   9.362   2.055
18512WAT      O55777   0.058   7.213   6.395
18512WAT     H155778   0.090   7.282   6.459
18512WAT     H255779   0.044   7.126   6.443
18513WAT      O55780   6.430   2.937   4.755
18513WAT     H155781   6.430   2.924   4.854
18513WAT     H255782   6.437   2.848   4.710
18514WAT      O55783   5.713   2.135   2.593
18514WAT     H155784   5.780   2.198   2.633
18514WAT     H255785   5.756   2.081   2.521
18515WAT      O55786   2.352   8.633   5.745
18515WAT     H155787   2.384   8.627   5.840
18515WAT     H255788   2.267   8.685   5.743
18516WAT      O55789   3.182   5.271   7.471
18516WAT     H155790   3.220   5.279   7.379
18516WAT     H255791   3.086   5.242   7.464
18517WAT      O55792   4.449   1.835   9.766
18517WAT     H155793   4.350   1.848   9.778
18517WAT     H255794   4.496   1.920   9.786
18518WAT      O55795   9.084   1.790   9.152
18518WAT     H155796   9.026   1.756   9.078
18518WAT     H255797   9.162   1.838   9.112
18519WAT      O55798   2.401   5.929   3.954
18519WAT     H155799   2.396   6.023   3.922
18519WAT     H255800   2.415   5.868   3.877
18520WAT      O55801   6.593   7.804   0.735
18520WAT     H155802   6.521   7.758   0.786
18520WAT     H255803   6.594   7.901   0.759
18521WAT      O55804   8.011   9.585   8.323
18521WAT     H155805   8.076   9.622   8.390
18521WAT     H255806   8.061   9.529   8.257
18522WAT      O55807   0.775   2.938   6.783
18522WAT     H155808   0.864   2.910   6.818
18522WAT     H255809   0.703   2.885   6.827
18523WAT      O55810   6.020   8.830   7.446
18523WAT     H155811   6.063   8.915   7.415
18523WAT     H255812   5.946   8.851   7.510
18524WAT      O55813   0.614   9.265   4.227
18524WAT     H155814   0.608   9.357   4.188
18524WAT     H255815   0.658   9.269   4.317
18525WAT      O55816   0.887   4.179   4.297
18525WAT     H155817   0.907   4.268   4.338
18525WAT     H255818   0.939   4.109   4.345
18526WAT      O55819   4.946   9.802   1.463
18526WAT     H155820   5.025   9.750   1.496
18526WAT     H255821   4.902   9.847   1.541
18527WAT      O55822   1.612   4.918   4.782
18527WAT     H155823   1.557   4.893   4.702
18527WAT     H255824   1.702   4.950   4.752
18528WAT      O55825   0.438   9.101   6.571
18528WAT     H155826   0.479   9.053   6.493
18528WAT     H255827   0.453   9.048   6.654
18529WAT      O55828   9.764   1.110   1.990
18529WAT     H155829   9.864   1.106   1.993
18529WAT     H255830   9.729   1.120   2.084
18530WAT      O55831   7.255   1.391   3.820
18530WAT     H155832   7.280   1.482   3.786
18530WAT     H255833   7.326   1.358   3.882
18531WAT      O55834   2.825   9.662   6.104
18531WAT     H155835   2.853   9.654   6.008
18531WAT     H255836   2.763   9.740   6.114
18532WAT      O55837   1.556   1.236   2.731
18532WAT     H155838   1.572   1.140   2.709
18532WAT     H255839   1.470   1.266   2.691
18533WAT      O55840   8.014   5.245   2.878
18533WAT     H155841   8.113   5.228   2.868
18533WAT     H255842   7.981   5.198   2.960
18534WAT      O55843   7.586   8.066   4.165
18534WAT     H155844   7.537   7.979   4.155
18534WAT     H255845   7.667   8.052   4.222
18535WAT      O55846   3.222   9.004   4.324
18535WAT     H155847   3.196   9.034   4.232
18535WAT     H255848   3.165   8.927   4.352
18536WAT      O55849   9.434   5.948   0.816
18536WAT     H155850   9.529   5.967   0.839
18536WAT     H255851   9.395   5.885   0.883
18537WAT      O55852   7.504   1.986   8.298
18537WAT     H155853   7.515   1.990   8.397
18537WAT     H255854   7.527   2.075   8.258
18538WAT      O55855   2.603   7.170   1.984
18538WAT     H155856   2.623   7.091   2.042
18538WAT     H255857   2.531   7.225   2.028
18539WAT      O55858   1.786   2.007   7.338
18539WAT     H155859   1.801   2.094   7.290
18539WAT     H255860   1.699   2.011   7.387
18540WAT      O55861   7.205   3.214   1.259
18540WAT     H155862   7.255   3.138   1.218
18540WAT     H255863   7.221   3.214   1.358
18541WAT      O55864   5.900   7.355   4.402
18541WAT     H155865   5.930   7.279   4.343
18541WAT     H255866   5.971   7.373   4.470
18542WAT      O55867   2.452   3.514   4.182
18542WAT     H155868   2.405   3.523   4.270
18542WAT     H255869   2.491   3.422   4.174
18543WAT      O55870   1.603   3.403   7.143
18543WAT     H155871   1.644   3.351   7.068
18543WAT     H255872   1.602   3.500   7.119
18544WAT      O55873   7.603   7.499   0.680
18544WAT     H155874   7.685   7.516   0.627
18544WAT     H255875   7.538   7.445   0.626
18545WAT      O55876   9.225   6.427   6.154
18545WAT     H155877   9.246   6.459   6.062
18545WAT     H255878   9.133   6.389   6.156
18546WAT      O55879   3.568   7.067   0.044
18546WAT     H155880   3.525   7.157   0.054
18546WAT     H255881   3.666   7.075   0.064
18547WAT      O55882   5.855   4.019   0.649
18547WAT     H155883   5.934   3.967   0.682
18547WAT     H255884   5.862   4.113   0.681
18548WAT      O55885   7.743   3.205   1.535
18548WAT     H155886   7.812   3.141   1.571
18548WAT     H255887   7.666   3.153   1.499
18549WAT      O55888   9.338   7.103   4.910
18549WAT     H155889   9.398   7.162   4.963
18549WAT     H255890   9.253   7.151   4.889
18550WAT      O55891   7.480   4.413   9.500
18550WAT     H155892   7.388   4.442   9.524
18550WAT     H255893   7.481   4.314   9.483
18551WAT      O55894   9.495   0.097   3.903
18551WAT     H155895   9.544   0.079   3.818
18551WAT     H255896   9.440   0.180   3.892
18552WAT      O55897   6.587   7.380   3.644
18552WAT     H155898   6.555   7.389   3.738
18552WAT     H255899   6.584   7.469   3.599
18553WAT      O55900   7.066   1.218   9.024
18553WAT     H155901   7.018   1.143   8.978
18553WAT     H255902   7.164   1.201   9.024
18554WAT      O55903   9.762   1.716   7.273
18554WAT     H155904   9.719   1.702   7.184
18554WAT     H255905   9.797   1.628   7.307
18555WAT      O55906   7.007   6.670   2.901
18555WAT     H155907   6.971   6.651   2.992
18555WAT     H255908   7.092   6.723   2.909
18556WAT      O55909   0.018   9.803   2.803
18556WAT     H155910   0.055   9.791   2.711
18556WAT     H255911   0.090   9.786   2.870
18557WAT      O55912   6.608   9.255   7.496
18557WAT     H155913   6.692   9.287   7.541
18557WAT     H255914   6.623   9.252   7.397
18558WAT      O55915   7.772   4.235   4.165
18558WAT     H155916   7.866   4.201   4.175
18558WAT     H255917   7.712   4.158   4.141
18559WAT      O55918   2.576   8.151   6.214
18559WAT     H155919   2.546   8.171   6.308
18559WAT     H255920   2.550   8.058   6.190
18560WAT      O55921   6.874   5.539   7.564
18560WAT     H155922   6.785   5.519   7.604
18560WAT     H255923   6.946   5.520   7.631
18561WAT      O55924   7.890   6.273   6.082
18561WAT     H155925   7.889   6.182   6.041
18561WAT     H255926   7.805   6.321   6.059
18562WAT      O55927   4.497   2.587   4.621
18562WAT     H155928   4.478   2.516   4.689
18562WAT     H255929   4.414   2.606   4.568
18563WAT      O55930   0.329   6.740   1.558
18563WAT     H155931   0.291   6.735   1.651
18563WAT     H255932   0.326   6.650   1.516
18564WAT      O55933   8.467   6.053   8.546
18564WAT     H155934   8.436   6.024   8.636
18564WAT     H255935   8.393   6.041   8.480
18565WAT      O55936   8.136   4.778   3.111
18565WAT     H155937   8.180   4.826   3.187
18565WAT     H255938   8.039   4.805   3.106
18566WAT      O55939   4.069   3.344   8.316
18566WAT     H155940   4.149   3.396   8.345
18566WAT     H255941   4.047   3.275   8.385
18567WAT      O55942   7.769   3.006   2.682
18567WAT     H155943   7.807   3.018   2.590
18567WAT     H255944   7.759   3.095   2.726
18568WAT      O55945   2.304   4.780   6.595
18568WAT     H155946   2.403   4.777   6.580
18568WAT     H255947   2.263   4.694   6.567
18569WAT      O55948   3.975   8.508   7.313
18569WAT     H155949   4.072   8.486   7.322
18569WAT     H255950   3.945   8.562   7.392
18570WAT      O55951   0.334   4.889   1.960
18570WAT     H155952   0.414   4.949   1.954
18570WAT     H255953   0.251   4.945   1.968
18571WAT      O55954   8.595   9.039   1.468
18571WAT     H155955   8.690   9.026   1.498
18571WAT     H255956   8.535   8.980   1.522
18572WAT      O55957   1.291   4.789   6.828
18572WAT     H155958   1.337   4.820   6.744
18572WAT     H255959   1.220   4.855   6.853
18573WAT      O55960   3.283   9.747   8.660
18573WAT     H155961   3.256   9.689   8.736
18573WAT     H255962   3.359   9.806   8.688
18574WAT      O55963   5.000   7.882   3.158
18574WAT     H155964   4.998   7.884   3.058
18574WAT     H255965   5.039   7.795   3.189
18575WAT      O55966   3.458   0.713   8.106
18575WAT     H155967   3.518   0.708   8.027
18575WAT     H255968   3.509   0.752   8.184
18576WAT      O55969   7.518   7.667   2.774
18576WAT     H155970   7.459   7.633   2.846
18576WAT     H255971   7.607   7.621   2.779
18577WAT      O55972   2.597   4.709   2.963
18577WAT     H155973   2.544   4.765   3.027
18577WAT     H255974   2.588   4.612   2.987
18578WAT      O55975   0.834   5.052   3.191
18578WAT     H155976   0.774   5.036   3.113
18578WAT     H255977   0.794   5.011   3.273
18579WAT      O55978   3.126   7.055   4.113
18579WAT     H155979   3.170   6.966   4.120
18579WAT     H255980   3.195   7.126   4.105
18580WAT      O55981   2.231   6.547   9.645
18580WAT     H155982   2.205   6.540   9.741
18580WAT     H255983   2.326   6.516   9.634
18581WAT      O55984   3.546   9.255   5.878
18581WAT     H155985   3.475   9.282   5.943
18581WAT     H255986   3.510   9.262   5.785
18582WAT      O55987   8.010   3.719   1.789
18582WAT     H155988   7.929   3.707   1.848
18582WAT     H255989   8.074   3.782   1.833
18583WAT      O55990   1.557   1.764   9.446
18583WAT     H155991   1.473   1.725   9.484
18583WAT     H255992   1.631   1.697   9.452
18584WAT      O55993   7.353   3.093   4.311
18584WAT     H155994   7.443   3.133   4.295
18584WAT     H255995   7.345   3.008   4.259
18585WAT      O55996   2.125   1.431   1.598
18585WAT     H155997   2.104   1.396   1.508
18585WAT     H255998   2.181   1.514   1.589
18586WAT      O55999   2.919   6.518   1.495
18586WAT     H156000   2.894   6.425   1.467
18586WAT     H256001   2.844   6.580   1.473
18587WAT      O56002   2.132   0.842   6.744
18587WAT     H156003   2.106   0.766   6.686
18587WAT     H256004   2.226   0.830   6.776
18588WAT      O56005   3.075   8.176   4.666
18588WAT     H156006   3.013   8.130   4.603
18588WAT     H256007   3.095   8.268   4.631
18589WAT      O56008   0.859   3.352   4.931
18589WAT     H156009   0.783   3.287   4.928
18589WAT     H256010   0.825   3.440   4.965
18590WAT      O56011   0.619   8.286   7.366
18590WAT     H156012   0.534   8.244   7.397
18590WAT     H256013   0.646   8.246   7.278
18591WAT      O56014   4.890   0.291   3.162
18591WAT     H156015   4.895   0.378   3.112
18591WAT     H256016   4.963   0.231   3.131
18592WAT      O56017   6.417   6.862   3.935
18592WAT     H156018   6.482   6.933   3.906
18592WAT     H256019   6.365   6.894   4.014
18593WAT      O56020   8.370   9.219   9.593
18593WAT     H156021   8.436   9.259   9.657
18593WAT     H256022   8.394   9.247   9.500
18594WAT      O56023   4.022   5.149   4.118
18594WAT     H156024   3.990   5.112   4.206
18594WAT     H256025   4.044   5.074   4.056
18595WAT      O56026   3.185   5.367   3.940
18595WAT     H156027   3.205   5.269   3.942
18595WAT     H256028   3.186   5.403   4.033
18596WAT      O56029   8.683   8.969   2.201
18596WAT     H156030   8.661   8.896   2.266
18596WAT     H256031   8.663   9.058   2.243
18597WAT      O56032   3.031   8.306   1.781
18597WAT     H156033   3.059   8.292   1.876
18597WAT     H256034   2.997   8.399   1.770
18598WAT      O56035   4.626   0.029   1.813
18598WAT     H156036   4.648  -0.014   1.900
18598WAT     H256037   4.595  -0.041   1.748
18599WAT      O56038   6.805   8.018   2.553
18599WAT     H156039   6.827   8.106   2.595
18599WAT     H256040   6.886   7.981   2.508
18600WAT      O56041   2.328   9.143   6.314
18600WAT     H156042   2.256   9.185   6.258
18600WAT     H256043   2.309   9.045   6.323
18601WAT      O56044   9.771   5.482   0.212
18601WAT     H156045   9.698   5.478   0.144
18601WAT     H256046   9.780   5.392   0.255
18602WAT      O56047   4.169   6.098   2.399
18602WAT     H156048   4.100   6.094   2.327
18602WAT     H256049   4.145   6.170   2.464
18603WAT      O56050   8.368   2.997   0.594
18603WAT     H156051   8.456   3.020   0.635
18603WAT     H256052   8.300   2.985   0.666
18604WAT      O56053   9.768   5.538   7.080
18604WAT     H156054   9.681   5.529   7.030
18604WAT     H256055   9.844   5.527   7.017
18605WAT      O56056   2.763   7.800   3.686
18605WAT     H156057   2.684   7.861   3.681
18605WAT     H256058   2.753   7.739   3.764
18606WAT      O56059   9.153   6.384   9.089
18606WAT     H156060   9.121   6.302   9.135
18606WAT     H256061   9.227   6.361   9.026
18607WAT      O56062   4.137   7.369   2.605
18607WAT     H156063   4.107   7.350   2.512
18607WAT     H256064   4.197   7.296   2.637
18608WAT      O56065   5.005   1.252   6.580
18608WAT     H156066   5.101   1.281   6.580
18608WAT     H256067   4.994   1.173   6.641
18609WAT      O56068   6.339   1.630   2.490
18609WAT     H156069   6.427   1.639   2.536
18609WAT     H256070   6.354   1.592   2.398
18610WAT      O56071   7.299   9.035   1.082
18610WAT     H156072   7.304   8.953   1.025
18610WAT     H256073   7.232   9.098   1.042
18611WAT      O56074   7.306   1.762   1.907
18611WAT     H156075   7.209   1.741   1.915
18611WAT     H256076   7.360   1.683   1.934
18612WAT      O56077   3.245   5.738   2.882
18612WAT     H156078   3.334   5.754   2.924
18612WAT     H256079   3.228   5.639   2.875
18613WAT      O56080   1.106   2.621   5.690
18613WAT     H156081   1.111   2.642   5.592
18613WAT     H256082   1.109   2.706   5.742
18614WAT      O56083   9.577   1.912   5.709
18614WAT     H156084   9.648   1.862   5.759
18614WAT     H256085   9.504   1.850   5.683
18615WAT      O56086   7.477   4.100   5.191
18615WAT     H156087   7.421   4.066   5.116
18615WAT     H256088   7.437   4.185   5.226
18616WAT      O56089   7.210   1.878   5.697
18616WAT     H156090   7.174   1.971   5.685
18616WAT     H256091   7.134   1.814   5.708
18617WAT      O56092   8.155   8.837   2.040
18617WAT     H156093   8.211   8.830   1.958
18617WAT     H256094   8.099   8.920   2.035
18618WAT      O56095   1.016   1.020   3.303
18618WAT     H156096   1.023   0.939   3.244
18618WAT     H256097   0.996   1.100   3.247
18619WAT      O56098   1.153   8.019   1.895
18619WAT     H156099   1.154   8.001   1.797
18619WAT     H256100   1.066   8.061   1.921
18620WAT      O56101   3.059   2.749   1.247
18620WAT     H156102   2.998   2.784   1.318
18620WAT     H256103   3.006   2.725   1.166
18621WAT      O56104   9.297   9.142   0.227
18621WAT     H156105   9.257   9.142   0.135
18621WAT     H256106   9.364   9.068   0.234
18622WAT      O56107   2.105   5.824   9.116
18622WAT     H156108   2.078   5.729   9.135
18622WAT     H256109   2.128   5.870   9.202
18623WAT      O56110   1.256   2.962   1.678
18623WAT     H156111   1.197   3.027   1.631
18623WAT     H256112   1.338   3.009   1.712
18624WAT      O56113   1.013   8.781   6.378
18624WAT     H156114   1.109   8.808   6.382
18624WAT     H256115   1.004   8.696   6.326
18625WAT      O56116   9.809   6.060   0.893
18625WAT     H156117   9.766   5.972   0.871
18625WAT     H256118   9.908   6.052   0.888
18626WAT      O56119   0.385   5.168   1.448
18626WAT     H156120   0.384   5.261   1.485
18626WAT     H256121   0.478   5.130   1.454
18627WAT      O56122   1.979   9.500   0.034
18627WAT     H156123   1.932   9.562   0.096
18627WAT     H256124   1.948   9.516  -0.060
18628WAT      O56125   2.406   0.655   0.883
18628WAT     H156126   2.493   0.700   0.862
18628WAT     H256127   2.415   0.557   0.868
18629WAT      O56128   6.125   1.430   9.402
18629WAT     H156129   6.212   1.383   9.390
18629WAT     H256130   6.078   1.395   9.483
18630WAT      O56131   1.477   7.158   4.323
18630WAT     H156132   1.565   7.177   4.280
18630WAT     H256133   1.422   7.241   4.327
18631WAT      O56134   6.817   4.506   3.696
18631WAT     H156135   6.901   4.452   3.694
18631WAT     H256136   6.743   4.451   3.736
18632WAT      O56137   3.641   3.489   3.597
18632WAT     H156138   3.617   3.509   3.692
18632WAT     H256139   3.672   3.572   3.552
18633WAT      O56140   2.998   4.393   9.034
18633WAT     H156141   3.047   4.352   9.111
18633WAT     H256142   2.971   4.322   8.969
18634WAT      O56143   3.806   8.448   0.937
18634WAT     H156144   3.770   8.356   0.919
18634WAT     H256145   3.865   8.446   1.018
18635WAT      O56146   3.849   6.841   4.373
18635WAT     H156147   3.785   6.910   4.338
18635WAT     H256148   3.918   6.885   4.431
18636WAT      O56149   0.772   0.577   7.933
18636WAT     H156150   0.770   0.555   8.031
18636WAT     H256151   0.680   0.569   7.895
18637WAT      O56152   0.446   7.558   4.411
18637WAT     H156153   0.407   7.504   4.337
18637WAT     H256154   0.545   7.561   4.402
18638WAT      O56155   6.973   8.914   0.672
18638WAT     H156156   6.916   8.849   0.622
18638WAT     H256157   6.930   8.937   0.759
18639WAT      O56158   4.461   6.595   6.167
18639WAT     H156159   4.464   6.601   6.267
18639WAT     H256160   4.534   6.534   6.135
18640WAT      O56161   9.873   0.453   4.650
18640WAT     H156162   9.854   0.548   4.673
18640WAT     H256163   9.943   0.449   4.578
18641WAT      O56164   5.294   3.712   0.609
18641WAT     H156165   5.225   3.642   0.592
18641WAT     H256166   5.276   3.757   0.696
18642WAT      O56167   1.158   0.685   7.946
18642WAT     H156168   1.119   0.607   7.896
18642WAT     H256169   1.256   0.671   7.959
18643WAT      O56170   6.036   7.464   1.743
18643WAT     H156171   6.030   7.436   1.647
18643WAT     H256172   6.029   7.383   1.802
18644WAT      O56173   2.820   1.057   4.420
18644WAT     H156174   2.860   1.111   4.346
18644WAT     H256175   2.745   1.001   4.383
18645WAT      O56176   8.299   3.697   2.207
18645WAT     H156177   8.241   3.703   2.288
18645WAT     H256178   8.393   3.721   2.232
18646WAT      O56179   9.831   5.782   3.691
18646WAT     H156180   9.851   5.786   3.593
18646WAT     H256181   9.801   5.689   3.715
18647WAT      O56182   9.748   4.085   3.415
18647WAT     H156183   9.693   4.002   3.423
18647WAT     H256184   9.838   4.061   3.377
18648WAT      O56185   0.088   9.162   0.486
18648WAT     H156186  -0.001   9.185   0.446
18648WAT     H256187   0.137   9.102   0.423
18649WAT      O56188   8.066   0.067   4.270
18649WAT     H156189   8.144   0.017   4.306
18649WAT     H256190   8.052   0.044   4.174
18650WAT      O56191   0.831   8.550   0.204
18650WAT     H156192   0.924   8.577   0.230
18650WAT     H256193   0.778   8.631   0.182
18651WAT      O56194   5.453   0.656   0.018
18651WAT     H156195   5.547   0.638  -0.013
18651WAT     H256196   5.423   0.581   0.077
18652WAT      O56197   0.438   3.711   9.887
18652WAT     H156198   0.339   3.721   9.889
18652WAT     H256199   0.481   3.800   9.903
18653WAT      O56200   6.785   5.975   2.077
18653WAT     H156201   6.729   5.894   2.093
18653WAT     H256202   6.843   5.991   2.157
18654WAT      O56203   9.200   7.824   2.673
18654WAT     H156204   9.283   7.880   2.667
18654WAT     H256205   9.212   7.754   2.743
18655WAT      O56206   6.294   0.958   0.171
18655WAT     H156207   6.292   0.860   0.150
18655WAT     H256208   6.366   0.977   0.237
18656WAT      O56209   6.594   0.444   8.817
18656WAT     H156210   6.625   0.481   8.729
18656WAT     H256211   6.546   0.358   8.802
18657WAT      O56212   4.840   5.177   3.145
18657WAT     H156213   4.774   5.253   3.147
18657WAT     H256214   4.895   5.183   3.062
18658WAT      O56215   6.583   4.301   8.965
18658WAT     H156216   6.539   4.273   9.050
18658WAT     H256217   6.609   4.397   8.970
18659WAT      O56218   9.866   2.267   6.003
18659WAT     H156219   9.799   2.251   5.931
18659WAT     H256220   9.946   2.209   5.988
18660WAT      O56221   8.319   4.798   4.779
18660WAT     H156222   8.319   4.700   4.760
18660WAT     H256223   8.227   4.835   4.769
18661WAT      O56224   1.526   0.024   2.351
18661WAT     H156225   1.488   0.111   2.318
18661WAT     H256226   1.565   0.038   2.442
18662WAT      O56227   9.642   7.588   2.711
18662WAT     H156228   9.564   7.536   2.675
18662WAT     H256229   9.727   7.538   2.693
18663WAT      O56230   3.411   3.544   5.334
18663WAT     H156231   3.433   3.550   5.236
18663WAT     H256232   3.435   3.631   5.378
18664WAT      O56233   0.776   6.831   4.543
18664WAT     H156234   0.874   6.829   4.523
18664WAT     H256235   0.728   6.774   4.477
18665WAT      O56236   2.274   0.308   2.167
18665WAT     H156237   2.305   0.338   2.257
18665WAT     H256238   2.331   0.350   2.096
18666WAT      O56239   1.394   7.531   8.882
18666WAT     H156240   1.441   7.566   8.802
18666WAT     H256241   1.384   7.603   8.950
18667WAT      O56242   7.941   1.397   2.043
18667WAT     H156243   7.932   1.434   1.950
18667WAT     H256244   8.037   1.374   2.060
18668WAT      O56245   6.252   6.065   0.258
18668WAT     H156246   6.235   6.025   0.348
18668WAT     H256247   6.175   6.123   0.232
18669WAT      O56248   2.711   7.784   5.052
18669WAT     H156249   2.621   7.775   5.010
18669WAT     H256250   2.770   7.841   4.995
18670WAT      O56251   7.697   4.427   1.470
18670WAT     H156252   7.650   4.341   1.451
18670WAT     H256253   7.655   4.471   1.549
18671WAT      O56254   0.477   2.463   6.588
18671WAT     H156255   0.506   2.391   6.525
18671WAT     H256256   0.553   2.486   6.649
18672WAT      O56257   4.831   1.034   2.191
18672WAT     H156258   4.742   1.043   2.146
18672WAT     H256259   4.860   1.123   2.224
18673WAT      O56260   4.278   6.820   9.135
18673WAT     H156261   4.369   6.861   9.128
18673WAT     H256262   4.217   6.862   9.068
18674WAT      O56263   5.078   3.181   4.946
18674WAT     H156264   4.979   3.177   4.955
18674WAT     H256265   5.104   3.168   4.850
18675WAT      O56266   1.474   3.013   1.995
18675WAT     H156267   1.496   2.918   1.972
18675WAT     H256268   1.536   3.074   1.947
18676WAT      O56269   9.816   0.513   2.616
18676WAT     H156270   9.828   0.611   2.635
18676WAT     H256271   9.719   0.492   2.613
18677WAT      O56272   9.460   8.895   0.920
18677WAT     H156273   9.419   8.924   0.834
18677WAT     H256274   9.517   8.969   0.957
18678WAT      O56275   9.486   4.427   4.003
18678WAT     H156276   9.560   4.389   3.947
18678WAT     H256277   9.525   4.468   4.086
18679WAT      O56278   6.697   5.449   5.508
18679WAT     H156279   6.754   5.370   5.531
18679WAT     H256280   6.683   5.453   5.409
18680WAT      O56281   0.173   4.215   2.183
18680WAT     H156282   0.243   4.152   2.147
18680WAT     H256283   0.208   4.309   2.178
18681WAT      O56284   8.235   3.943   3.805
18681WAT     H156285   8.311   3.904   3.753
18681WAT     H256286   8.268   3.982   3.890
18682WAT      O56287   1.568   8.939   8.773
18682WAT     H156288   1.512   8.959   8.693
18682WAT     H256289   1.619   9.021   8.800
18683WAT      O56290   9.090   4.739   2.694
18683WAT     H156291   9.188   4.749   2.712
18683WAT     H256292   9.044   4.707   2.777
18684WAT      O56293   8.641   4.279   4.037
18684WAT     H156294   8.616   4.376   4.033
18684WAT     H256295   8.672   4.249   3.947
18685WAT      O56296   0.709   1.811   4.578
18685WAT     H156297   0.788   1.863   4.547
18685WAT     H256298   0.666   1.765   4.500
18686WAT      O56299   0.910   1.775   3.000
18686WAT     H156300   0.919   1.861   3.050
18686WAT     H256301   0.993   1.721   3.011
18687WAT      O56302   6.207   6.903   8.551
18687WAT     H156303   6.173   6.922   8.459
18687WAT     H256304   6.131   6.905   8.616
18688WAT      O56305   0.263   9.050   6.929
18688WAT     H156306   0.228   9.056   6.836
18688WAT     H256307   0.356   9.087   6.932
18689WAT      O56308   6.173   6.289   3.780
18689WAT     H156309   6.269   6.306   3.802
18689WAT     H256310   6.166   6.208   3.722
18690WAT      O56311   6.485   9.506   5.281
18690WAT     H156312   6.483   9.437   5.209
18690WAT     H256313   6.401   9.500   5.336
18691WAT      O56314   1.127   0.451   9.252
18691WAT     H156315   1.089   0.450   9.344
18691WAT     H256316   1.141   0.546   9.222
18692WAT      O56317   5.450   5.451   9.687
18692WAT     H156318   5.527   5.508   9.657
18692WAT     H256319   5.474   5.404   9.772
18693WAT      O56320   7.869   1.301   7.347
18693WAT     H156321   7.901   1.385   7.303
18693WAT     H256322   7.871   1.226   7.280
18694WAT      O56323   5.314   5.204   2.935
18694WAT     H156324   5.336   5.106   2.934
18694WAT     H256325   5.346   5.246   2.850
18695WAT      O56326   5.271   1.468   5.889
18695WAT     H156327   5.296   1.463   5.792
18695WAT     H256328   5.213   1.390   5.912
18696WAT      O56329   8.193   8.578   7.383
18696WAT     H156330   8.224   8.673   7.382
18696WAT     H256331   8.273   8.518   7.380
18697WAT      O56332   1.444   8.317   2.087
18697WAT     H156333   1.512   8.339   2.157
18697WAT     H256334   1.386   8.397   2.071
18698WAT      O56335   8.930   3.586   5.108
18698WAT     H156336   8.936   3.607   5.011
18698WAT     H256337   8.981   3.654   5.160
18699WAT      O56338   8.570   3.857   8.992
18699WAT     H156339   8.519   3.802   9.057
18699WAT     H256340   8.508   3.923   8.947
18700WAT      O56341   7.114   6.755   9.848
18700WAT     H156342   7.149   6.726   9.759
18700WAT     H256343   7.109   6.677   9.909
18701WAT      O56344   1.642   4.594   4.415
18701WAT     H156345   1.705   4.574   4.491
18701WAT     H256346   1.559   4.637   4.452
18702WAT      O56347   8.545   0.464   6.232
18702WAT     H156348   8.555   0.381   6.287
18702WAT     H256349   8.449   0.477   6.208
18703WAT      O56350   6.852   0.155   8.506
18703WAT     H156351   6.892   0.147   8.415
18703WAT     H256352   6.868   0.070   8.557
18704WAT      O56353   0.349   6.624   8.551
18704WAT     H156354   0.249   6.621   8.543
18704WAT     H256355   0.378   6.582   8.636
18705WAT      O56356   7.098   4.884   9.364
18705WAT     H156357   7.174   4.825   9.336
18705WAT     H256358   7.134   4.968   9.405
18706WAT      O56359   9.538   9.653   4.634
18706WAT     H156360   9.634   9.625   4.631
18706WAT     H256361   9.481   9.575   4.661
18707WAT      O56362   2.638   2.423   4.851
18707WAT     H156363   2.692   2.432   4.935
18707WAT     H256364   2.541   2.426   4.874
18708WAT      O56365   2.925   9.051   3.857
18708WAT     H156366   2.849   9.094   3.906
18708WAT     H256367   2.960   8.974   3.911
18709WAT      O56368   0.263   0.179   6.867
18709WAT     H156369   0.235   0.217   6.779
18709WAT     H256370   0.227   0.236   6.941
18710WAT      O56371   7.503   5.067   8.978
18710WAT     H156372   7.597   5.074   8.945
18710WAT     H256373   7.445   5.028   8.907
18711WAT      O56374   9.778   8.997   5.026
18711WAT     H156375   9.723   9.048   4.960
18711WAT     H256376   9.805   8.909   4.987
18712WAT      O56377   4.407   5.313   7.550
18712WAT     H156378   4.388   5.218   7.525
18712WAT     H256379   4.371   5.331   7.642
18713WAT      O56380   6.082   0.792   4.258
18713WAT     H156381   6.102   0.863   4.324
18713WAT     H256382   5.990   0.756   4.274
18714WAT      O56383   2.642   1.515   5.025
18714WAT     H156384   2.572   1.484   4.960
18714WAT     H256385   2.598   1.543   5.110
18715WAT      O56386   8.836   5.104   7.799
18715WAT     H156387   8.882   5.186   7.766
18715WAT     H256388   8.845   5.098   7.898
18716WAT      O56389   5.771   3.496   2.853
18716WAT     H156390   5.693   3.476   2.793
18716WAT     H256391   5.749   3.471   2.947
18717WAT      O56392   8.557   4.944   7.563
18717WAT     H156393   8.460   4.947   7.542
18717WAT     H256394   8.575   4.990   7.649
18718WAT      O56395   7.292   3.110   2.683
18718WAT     H156396   7.299   3.017   2.647
18718WAT     H256397   7.299   3.107   2.783
18719WAT      O56398   1.275   9.318   4.618
18719WAT     H156399   1.218   9.360   4.547
18719WAT     H256400   1.253   9.220   4.625
18720WAT      O56401   7.478   1.335   5.612
18720WAT     H156402   7.528   1.262   5.659
18720WAT     H256403   7.420   1.383   5.677
18721WAT      O56404   8.974   0.514   2.121
18721WAT     H156405   8.915   0.458   2.063
18721WAT     H256406   8.978   0.607   2.084
18722WAT      O56407   2.353   9.666   2.734
18722WAT     H156408   2.410   9.747   2.750
18722WAT     H256409   2.410   9.584   2.740
18723WAT      O56410   6.428   7.062   2.904
18723WAT     H156411   6.482   7.015   2.974
18723WAT     H256412   6.472   7.148   2.881
18724WAT      O56413   1.920   3.219   4.099
18724WAT     H156414   1.907   3.206   4.197
18724WAT     H256415   2.016   3.239   4.080
18725WAT      O56416   8.842   4.647   4.222
18725WAT     H156417   8.894   4.709   4.282
18725WAT     H256418   8.758   4.619   4.268
18726WAT      O56419   5.211   8.035   8.822
18726WAT     H156420   5.268   7.952   8.828
18726WAT     H256421   5.209   8.080   8.911
18727WAT      O56422   1.224   9.457   6.682
18727WAT     H156423   1.215   9.381   6.618
18727WAT     H256424   1.133   9.495   6.703
18728WAT      O56425   6.974   6.543   5.239
18728WAT     H156426   6.885   6.547   5.284
18728WAT     H256427   6.992   6.630   5.193
18729WAT      O56428   7.333   0.771   1.406
18729WAT     H156429   7.281   0.759   1.491
18729WAT     H256430   7.362   0.866   1.398
18730WAT      O56431   8.119   7.746   5.262
18730WAT     H156432   8.128   7.790   5.352
18730WAT     H256433   8.024   7.748   5.233
18731WAT      O56434   6.670   8.063   6.840
18731WAT     H156435   6.713   8.047   6.929
18731WAT     H256436   6.648   8.160   6.830
18732WAT      O56437   1.044   2.443   4.855
18732WAT     H156438   0.989   2.401   4.927
18732WAT     H256439   1.141   2.422   4.870
18733WAT      O56440   6.488   6.240   0.436
18733WAT     H156441   6.421   6.310   0.462
18733WAT     H256442   6.500   6.241   0.337
18734WAT      O56443   5.373   0.493   1.406
18734WAT     H156444   5.398   0.544   1.324
18734WAT     H256445   5.341   0.402   1.380
18735WAT      O56446   1.964   9.632   9.239
18735WAT     H156447   1.932   9.546   9.278
18735WAT     H256448   1.932   9.708   9.295
18736WAT      O56449   7.601   8.419   3.359
18736WAT     H156450   7.691   8.400   3.397
18736WAT     H256451   7.609   8.435   3.261
18737WAT      O56452   8.540   7.062   6.191
18737WAT     H156453   8.529   7.128   6.116
18737WAT     H256454   8.556   7.111   6.276
18738WAT      O56455   7.786   5.894   3.722
18738WAT     H156456   7.693   5.860   3.733
18738WAT     H256457   7.840   5.828   3.669
18739WAT      O56458   7.931   0.246   6.250
18739WAT     H156459   7.846   0.257   6.199
18739WAT     H256460   8.002   0.210   6.189
18740WAT      O56461   7.024   4.204   1.524
18740WAT     H156462   7.015   4.282   1.463
18740WAT     H256463   7.012   4.233   1.619
18741WAT      O56464   2.219   0.416   8.166
18741WAT     H156465   2.313   0.440   8.142
18741WAT     H256466   2.212   0.318   8.183
18742WAT      O56467   5.407   6.851   5.857
18742WAT     H156468   5.345   6.927   5.836
18742WAT     H256469   5.493   6.887   5.892
18743WAT      O56470   9.811   1.865   0.477
18743WAT     H156471   9.718   1.832   0.494
18743WAT     H256472   9.849   1.901   0.562
18744WAT      O56473   7.292   7.130   2.526
18744WAT     H156474   7.208   7.183   2.542
18744WAT     H256475   7.298   7.107   2.429
18745WAT      O56476   8.354   5.194   7.207
18745WAT     H156477   8.299   5.112   7.191
18745WAT     H256478   8.375   5.237   7.119
18746WAT      O56479   0.079   1.976   9.501
18746WAT     H156480   0.052   1.977   9.598
18746WAT     H256481   0.147   2.048   9.485
18747WAT      O56482   3.814   1.058   5.857
18747WAT     H156483   3.720   1.032   5.880
18747WAT     H256484   3.822   1.158   5.856
18748WAT      O56485   2.206   3.049   9.283
18748WAT     H156486   2.150   3.131   9.278
18748WAT     H256487   2.165   2.977   9.226
18749WAT      O56488   7.207   6.929   5.170
18749WAT     H156489   7.266   7.005   5.198
18749WAT     H256490   7.156   6.956   5.088
18750WAT      O56491   4.955   4.349   9.856
18750WAT     H156492   4.945   4.391   9.766
18750WAT     H256493   4.972   4.419   9.924
18751WAT      O56494   2.971   3.441   5.196
18751WAT     H156495   3.048   3.377   5.192
18751WAT     H256496   2.998   3.529   5.157
18752WAT      O56497   6.643   6.494   2.298
18752WAT     H156498   6.650   6.459   2.391
18752WAT     H256499   6.611   6.588   2.299
18753WAT      O56500   8.697   6.198   7.398
18753WAT     H156501   8.627   6.269   7.406
18753WAT     H256502   8.663   6.123   7.341
18754WAT      O56503   6.630   1.593   8.806
18754WAT     H156504   6.575   1.544   8.874
18754WAT     H256505   6.687   1.528   8.756
18755WAT      O56506   5.649   2.999   9.238
18755WAT     H156507   5.571   3.001   9.176
18755WAT     H256508   5.712   2.927   9.210
18756WAT      O56509   5.761   2.311   1.732
18756WAT     H156510   5.713   2.227   1.754
18756WAT     H256511   5.798   2.352   1.815
18757WAT      O56512   6.426   0.439   3.928
18757WAT     H156513   6.413   0.518   3.869
18757WAT     H256514   6.521   0.436   3.959
18758WAT      O56515   1.384   6.136   7.938
18758WAT     H156516   1.376   6.036   7.938
18758WAT     H256517   1.455   6.164   8.002
18759WAT      O56518   1.619   6.388   3.251
18759WAT     H156519   1.668   6.314   3.205
18759WAT     H256520   1.682   6.441   3.307
18760WAT      O56521   8.950   5.498   3.041
18760WAT     H156522   9.040   5.455   3.046
18760WAT     H256523   8.880   5.429   3.057
18761WAT      O56524   4.529   6.772   5.959
18761WAT     H156525   4.627   6.763   5.977
18761WAT     H256526   4.478   6.718   6.027
18762WAT      O56527   9.594   6.302   4.789
18762WAT     H156528   9.524   6.357   4.835
18762WAT     H256529   9.636   6.239   4.854
18763WAT      O56530   3.056   2.692   6.906
18763WAT     H156531   3.025   2.608   6.863
18763WAT     H256532   3.140   2.724   6.861
18764WAT      O56533   0.414   9.265   5.807
18764WAT     H156534   0.469   9.294   5.885
18764WAT     H256535   0.401   9.166   5.809
18765WAT      O56536   0.597   2.043   2.744
18765WAT     H156537   0.565   2.071   2.653
18765WAT     H256538   0.519   2.007   2.796
18766WAT      O56539   2.398   0.927   6.161
18766WAT     H156540   2.299   0.920   6.156
18766WAT     H256541   2.439   0.851   6.111
18767WAT      O56542   3.615   5.170   4.206
18767WAT     H156543   3.565   5.133   4.283
18767WAT     H256544   3.674   5.245   4.237
18768WAT      O56545   3.935   5.296   7.398
18768WAT     H156546   3.878   5.365   7.353
18768WAT     H256547   4.029   5.303   7.365
18769WAT      O56548   5.306   2.000   3.259
18769WAT     H156549   5.317   2.050   3.345
18769WAT     H256550   5.306   2.065   3.183
18770WAT      O56551   1.437   7.069   1.993
18770WAT     H156552   1.433   7.068   1.894
18770WAT     H256553   1.530   7.046   2.023
18771WAT      O56554   4.629   0.980   8.947
18771WAT     H156555   4.538   0.951   8.976
18771WAT     H256556   4.649   1.070   8.985
18772WAT      O56557   4.001   1.688   1.663
18772WAT     H156558   4.072   1.759   1.661
18772WAT     H256559   4.042   1.602   1.691
18773WAT      O56560   7.130   0.802   4.241
18773WAT     H156561   7.168   0.715   4.210
18773WAT     H256562   7.201   0.857   4.283
18774WAT      O56563   0.145   4.141   6.584
18774WAT     H156564   0.154   4.240   6.598
18774WAT     H256565   0.106   4.100   6.667
18775WAT      O56566   8.236   8.072   8.445
18775WAT     H156567   8.288   8.024   8.515
18775WAT     H256568   8.232   8.169   8.466
18776WAT      O56569   5.506   5.061   9.338
18776WAT     H156570   5.509   5.096   9.244
18776WAT     H256571   5.469   5.132   9.398
18777WAT      O56572   3.017   3.063   2.195
18777WAT     H156573   2.956   3.125   2.147
18777WAT     H256574   2.990   3.056   2.290
18778WAT      O56575   6.278   6.775   2.984
18778WAT     H156576   6.304   6.761   3.080
18778WAT     H256577   6.292   6.871   2.960
18779WAT      O56578   4.877   0.352   4.484
18779WAT     H156579   4.812   0.419   4.447
18779WAT     H256580   4.830   0.291   4.548
18780WAT      O56581   2.067   0.809   5.436
18780WAT     H156582   2.010   0.752   5.378
18780WAT     H256583   2.045   0.906   5.419
18781WAT      O56584   4.851   6.685   3.439
18781WAT     H156585   4.773   6.634   3.477
18781WAT     H256586   4.855   6.776   3.481
18782WAT      O56587   0.514   1.255   5.116
18782WAT     H156588   0.588   1.322   5.115
18782WAT     H256589   0.534   1.183   5.183
18783WAT      O56590   2.965   2.454   1.185
18783WAT     H156591   3.040   2.429   1.123
18783WAT     H256592   2.925   2.540   1.155
18784WAT      O56593   5.119   4.637   0.403
18784WAT     H156594   5.173   4.593   0.332
18784WAT     H256595   5.030   4.592   0.410
18785WAT      O56596   8.519   5.066   3.398
18785WAT     H156597   8.462   5.138   3.360
18785WAT     H256598   8.560   5.097   3.484
18786WAT      O56599   6.718   1.919   6.555
18786WAT     H156600   6.729   1.853   6.629
18786WAT     H256601   6.770   1.888   6.475
18787WAT      O56602   4.767   8.242   8.955
18787WAT     H156603   4.697   8.184   8.997
18787WAT     H256604   4.752   8.245   8.856
18788WAT      O56605   1.289   6.026   5.850
18788WAT     H156606   1.302   6.066   5.759
18788WAT     H256607   1.377   6.018   5.895
18789WAT      O56608   3.719   4.950   3.004
18789WAT     H156609   3.746   5.046   2.995
18789WAT     H256610   3.739   4.902   2.918
18790WAT      O56611   8.563   8.991   2.686
18790WAT     H156612   8.512   9.051   2.623
18790WAT     H256613   8.656   8.979   2.652
18791WAT      O56614   7.463   2.846   0.282
18791WAT     H156615   7.408   2.930   0.281
18791WAT     H256616   7.451   2.797   0.195
18792WAT      O56617   4.988   0.337   8.903
18792WAT     H156618   4.941   0.278   8.968
18792WAT     H256619   4.999   0.289   8.816
18793WAT      O56620   3.440   8.851   1.495
18793WAT     H156621   3.391   8.766   1.513
18793WAT     H256622   3.472   8.853   1.401
18794WAT      O56623   4.309   0.664   2.237
18794WAT     H156624   4.277   0.668   2.142
18794WAT     H256625   4.262   0.590   2.285
18795WAT      O56626   2.485   1.724   3.921
18795WAT     H156627   2.502   1.627   3.934
18795WAT     H256628   2.422   1.757   3.991
18796WAT      O56629   3.016   6.925   0.810
18796WAT     H156630   3.102   6.957   0.769
18796WAT     H256631   3.022   6.932   0.909
18797WAT      O56632   2.996   3.427   4.668
18797WAT     H156633   2.902   3.393   4.665
18797WAT     H256634   3.034   3.431   4.576
18798WAT      O56635   2.961   6.674   5.842
18798WAT     H156636   3.055   6.641   5.832
18798WAT     H256637   2.963   6.772   5.864
18799WAT      O56638   3.710   3.256   8.053
18799WAT     H156639   3.624   3.280   8.009
18799WAT     H256640   3.762   3.340   8.072
18800WAT      O56641   4.957   1.295   0.992
18800WAT     H156642   5.038   1.318   1.047
18800WAT     H256643   4.979   1.220   0.930
18801WAT      O56644   6.830   0.651   2.762
18801WAT     H156645   6.748   0.607   2.725
18801WAT     H256646   6.811   0.685   2.854
18802WAT      O56647   7.763   8.323   4.992
18802WAT     H156648   7.849   8.273   4.978
18802WAT     H256649   7.775   8.390   5.065
18803WAT      O56650   4.296   5.011   0.088
18803WAT     H156651   4.392   4.995   0.111
18803WAT     H256652   4.274   4.961   0.004
18804WAT      O56653   5.913   0.324   2.195
18804WAT     H156654   5.896   0.234   2.154
18804WAT     H256655   5.840   0.387   2.171
18805WAT      O56656   3.643   7.735   2.816
18805WAT     H156657   3.734   7.702   2.840
18805WAT     H256658   3.649   7.828   2.782
18806WAT      O56659   9.113   3.495   9.214
18806WAT     H156660   9.172   3.414   9.217
18806WAT     H256661   9.033   3.480   9.272
18807WAT      O56662   2.313   4.958   2.608
18807WAT     H156663   2.362   4.871   2.603
18807WAT     H256664   2.221   4.943   2.644
18808WAT      O56665   7.305   0.698   7.315
18808WAT     H156666   7.250   0.695   7.399
18808WAT     H256667   7.362   0.616   7.309
18809WAT      O56668   7.568   0.586   8.712
18809WAT     H156669   7.653   0.535   8.703
18809WAT     H256670   7.545   0.628   8.624
18810WAT      O56671   9.091   7.157   3.614
18810WAT     H156672   9.187   7.171   3.590
18810WAT     H256673   9.034   7.222   3.563
18811WAT      O56674   6.894   0.079   1.781
18811WAT     H156675   6.944   0.015   1.839
18811WAT     H256676   6.827   0.030   1.726
18812WAT      O56677   2.100   5.609   6.460
18812WAT     H156678   2.030   5.679   6.472
18812WAT     H256679   2.178   5.630   6.519
18813WAT      O56680   1.100   1.123   7.079
18813WAT     H156681   1.051   1.113   6.993
18813WAT     H256682   1.178   1.061   7.081
18814WAT      O56683   9.659   3.847   3.431
18814WAT     H156684   9.586   3.782   3.451
18814WAT     H256685   9.737   3.799   3.391
18815WAT      O56686   1.285   0.293   4.878
18815WAT     H156687   1.382   0.309   4.892
18815WAT     H256688   1.269   0.265   4.783
18816WAT      O56689   4.916   0.674   7.317
18816WAT     H156690   4.952   0.670   7.224
18816WAT     H256691   4.989   0.698   7.380
18817WAT      O56692   8.289   9.300   0.889
18817WAT     H156693   8.289   9.218   0.945
18817WAT     H256694   8.330   9.376   0.940
18818WAT      O56695   4.508   8.957   9.219
18818WAT     H156696   4.435   8.967   9.287
18818WAT     H256697   4.537   9.047   9.188
18819WAT      O56698   8.718   4.097   8.976
18819WAT     H156699   8.679   4.009   9.003
18819WAT     H256700   8.814   4.101   9.002
18820WAT      O56701   4.195   5.013   2.215
18820WAT     H156702   4.097   5.017   2.195
18820WAT     H256703   4.244   4.979   2.135
18821WAT      O56704   3.725   9.474   8.391
18821WAT     H156705   3.651   9.520   8.440
18821WAT     H256706   3.686   9.417   8.319
18822WAT      O56707   3.413   4.785   5.122
18822WAT     H156708   3.498   4.812   5.076
18822WAT     H256709   3.432   4.769   5.219
18823WAT      O56710   9.379   8.308   6.700
18823WAT     H156711   9.461   8.349   6.739
18823WAT     H256712   9.405   8.238   6.633
18824WAT      O56713   1.142   5.353   6.869
18824WAT     H156714   1.107   5.298   6.793
18824WAT     H256715   1.116   5.311   6.955
18825WAT      O56716   4.716   4.346   2.182
18825WAT     H156717   4.802   4.396   2.184
18825WAT     H256718   4.730   4.251   2.210
18826WAT      O56719   2.449   0.247   3.885
18826WAT     H156720   2.482   0.246   3.979
18826WAT     H256721   2.504   0.310   3.830
18827WAT      O56722   4.237   9.635   0.262
18827WAT     H156723   4.178   9.558   0.238
18827WAT     H256724   4.269   9.680   0.179
18828WAT      O56725   3.752   7.808   3.782
18828WAT     H156726   3.851   7.794   3.786
18828WAT     H256727   3.706   7.726   3.817
18829WAT      O56728   7.868   3.147   3.808
18829WAT     H156729   7.850   3.222   3.872
18829WAT     H256730   7.907   3.070   3.858
18830WAT      O56731   9.416   5.969   1.853
18830WAT     H156732   9.372   5.920   1.778
18830WAT     H256733   9.401   6.067   1.842
18831WAT      O56734   2.159   5.959   2.439
18831WAT     H156735   2.109   5.886   2.486
18831WAT     H256736   2.097   6.036   2.424
18832WAT      O56737   0.409   5.349   6.548
18832WAT     H156738   0.371   5.395   6.468
18832WAT     H256739   0.497   5.390   6.571
18833WAT      O56740   0.527   6.906   9.258
18833WAT     H156741   0.431   6.881   9.271
18833WAT     H256742   0.552   6.978   9.323
18834WAT      O56743   7.006   7.793   8.508
18834WAT     H156744   6.911   7.823   8.514
18834WAT     H256745   7.050   7.803   8.598
18835WAT      O56746   1.247   8.854   0.728
18835WAT     H156747   1.328   8.843   0.670
18835WAT     H256748   1.268   8.822   0.820
18836WAT      O56749   8.304   5.256   1.669
18836WAT     H156750   8.398   5.283   1.646
18836WAT     H256751   8.302   5.158   1.690
18837WAT      O56752   6.894   0.742   2.426
18837WAT     H156753   6.957   0.816   2.399
18837WAT     H256754   6.923   0.704   2.514
18838WAT      O56755   6.591   8.550   0.709
18838WAT     H156756   6.675   8.517   0.666
18838WAT     H256757   6.513   8.532   0.648
18839WAT      O56758   7.809   8.417   4.738
18839WAT     H156759   7.781   8.367   4.819
18839WAT     H256760   7.794   8.361   4.657
18840WAT      O56761   8.374   8.198   6.542
18840WAT     H156762   8.357   8.201   6.640
18840WAT     H256763   8.309   8.135   6.498
18841WAT      O56764   5.206   6.343   5.266
18841WAT     H156765   5.225   6.440   5.278
18841WAT     H256766   5.117   6.320   5.305
18842WAT      O56767   3.151   3.025   4.717
18842WAT     H156768   3.068   2.975   4.694
18842WAT     H256769   3.132   3.088   4.793
18843WAT      O56770   0.064   8.911   5.777
18843WAT     H156771   0.086   8.963   5.859
18843WAT     H256772   0.149   8.885   5.730
18844WAT      O56773   7.699   6.632   6.361
18844WAT     H156774   7.743   6.547   6.392
18844WAT     H256775   7.748   6.711   6.399
18845WAT      O56776   4.934   3.416   2.638
18845WAT     H156777   5.014   3.458   2.595
18845WAT     H256778   4.853   3.432   2.581
18846WAT      O56779   5.937   3.877   1.719
18846WAT     H156780   5.852   3.878   1.665
18846WAT     H256781   5.918   3.908   1.812
18847WAT      O56782   9.111   4.862   1.644
18847WAT     H156783   9.033   4.812   1.682
18847WAT     H256784   9.169   4.800   1.594
18848WAT      O56785   0.079   2.623   0.534
18848WAT     H156786   0.019   2.599   0.610
18848WAT     H256787   0.034   2.690   0.475
18849WAT      O56788   1.713   3.547   9.385
18849WAT     H156789   1.806   3.543   9.347
18849WAT     H256790   1.647   3.524   9.314
18850WAT      O56791   2.140   5.665   6.911
18850WAT     H156792   2.134   5.590   6.845
18850WAT     H256793   2.096   5.637   6.996
18851WAT      O56794   5.703   3.947   7.953
18851WAT     H156795   5.771   4.005   7.998
18851WAT     H256796   5.627   4.003   7.922
18852WAT      O56797   0.165   1.335   5.770
18852WAT     H156798   0.123   1.328   5.680
18852WAT     H256799   0.188   1.244   5.804
18853WAT      O56800   7.002   9.763   9.882
18853WAT     H156801   7.084   9.760   9.940
18853WAT     H256802   7.003   9.685   9.819
18854WAT      O56803   3.613   0.696   0.682
18854WAT     H156804   3.605   0.724   0.777
18854WAT     H256805   3.554   0.753   0.625
18855WAT      O56806   5.154   5.382   6.753
18855WAT     H156807   5.156   5.334   6.665
18855WAT     H256808   5.229   5.350   6.810
18856WAT      O56809   9.253   5.676   0.830
18856WAT     H156810   9.306   5.630   0.759
18856WAT     H256811   9.157   5.647   0.824
18857WAT      O56812   6.459   9.449   6.208
18857WAT     H156813   6.394   9.519   6.239
18857WAT     H256814   6.494   9.475   6.118
18858WAT      O56815   3.238   5.582   7.603
18858WAT     H156816   3.204   5.611   7.692
18858WAT     H256817   3.195   5.637   7.531
18859WAT      O56818   9.792   7.560   1.851
18859WAT     H156819   9.883   7.589   1.881
18859WAT     H256820   9.773   7.599   1.760
18860WAT      O56821   7.632   8.994   5.093
18860WAT     H156822   7.655   9.091   5.080
18860WAT     H256823   7.701   8.951   5.151
18861WAT      O56824   1.916   7.967   1.563
18861WAT     H156825   1.947   8.020   1.642
18861WAT     H256826   1.824   7.998   1.537
18862WAT      O56827   8.613   4.381   6.030
18862WAT     H156828   8.589   4.383   6.127
18862WAT     H256829   8.535   4.346   5.977
18863WAT      O56830   5.734   8.373   4.676
18863WAT     H156831   5.722   8.360   4.774
18863WAT     H256832   5.710   8.289   4.627
18864WAT      O56833   8.848   8.114   5.767
18864WAT     H156834   8.802   8.062   5.839
18864WAT     H256835   8.851   8.211   5.793
18865WAT      O56836   5.840   4.523   7.975
18865WAT     H156837   5.891   4.593   7.923
18865WAT     H256838   5.889   4.501   8.059
18866WAT      O56839   3.861   0.557   7.756
18866WAT     H156840   3.863   0.587   7.661
18866WAT     H256841   3.901   0.466   7.764
18867WAT      O56842   8.895   9.748   7.509
18867WAT     H156843   8.820   9.814   7.511
18867WAT     H256844   8.965   9.776   7.575
18868WAT      O56845   3.768   1.976   8.967
18868WAT     H156846   3.682   1.952   9.011
18868WAT     H256847   3.752   1.991   8.869
18869WAT      O56848   0.310   3.117   5.307
18869WAT     H156849   0.384   3.137   5.371
18869WAT     H256850   0.233   3.076   5.357
18870WAT      O56851   4.417   6.697   1.784
18870WAT     H156852   4.461   6.630   1.724
18870WAT     H256853   4.473   6.709   1.866
18871WAT      O56854   4.449   3.663   7.203
18871WAT     H156855   4.428   3.693   7.296
18871WAT     H256856   4.501   3.735   7.157
18872WAT      O56857   5.617   1.984   3.128
18872WAT     H156858   5.703   1.958   3.086
18872WAT     H256859   5.541   1.956   3.069
18873WAT      O56860   7.632   3.845   3.123
18873WAT     H156861   7.678   3.757   3.114
18873WAT     H256862   7.565   3.855   3.050
18874WAT      O56863   8.087   8.074   4.366
18874WAT     H156864   8.136   7.987   4.363
18874WAT     H256865   8.055   8.098   4.274
18875WAT      O56866   8.535   2.348   8.249
18875WAT     H156867   8.568   2.258   8.218
18875WAT     H256868   8.453   2.373   8.197
18876WAT      O56869   4.940   8.027   5.734
18876WAT     H156870   4.882   8.006   5.813
18876WAT     H256871   4.935   8.125   5.714
18877WAT      O56872   5.236   4.903   0.776
18877WAT     H156873   5.331   4.879   0.798
18877WAT     H256874   5.191   4.937   0.858
18878WAT      O56875   0.645   0.435   7.648
18878WAT     H156876   0.609   0.521   7.611
18878WAT     H256877   0.629   0.432   7.747
18879WAT      O56878   8.010   5.987   2.909
18879WAT     H156879   8.079   6.058   2.899
18879WAT     H256880   7.973   5.989   3.002
18880WAT      O56881   8.734   2.123   5.076
18880WAT     H156882   8.764   2.030   5.099
18880WAT     H256883   8.644   2.118   5.032
18881WAT      O56884   3.102   8.976   3.343
18881WAT     H156885   3.072   9.015   3.431
18881WAT     H256886   3.023   8.964   3.283
18882WAT      O56887   3.361   6.873   7.551
18882WAT     H156888   3.295   6.836   7.486
18882WAT     H256889   3.446   6.896   7.503
18883WAT      O56890   6.149   8.734   0.428
18883WAT     H156891   6.198   8.822   0.425
18883WAT     H256892   6.188   8.676   0.499
18884WAT      O56893   6.608   1.455   9.379
18884WAT     H156894   6.653   1.473   9.291
18884WAT     H256895   6.569   1.540   9.414
18885WAT      O56896   0.919   3.226   2.311
18885WAT     H156897   1.019   3.228   2.302
18885WAT     H256898   0.883   3.148   2.260
18886WAT      O56899   4.339   4.121   2.822
18886WAT     H156900   4.429   4.165   2.830
18886WAT     H256901   4.272   4.173   2.875
18887WAT      O56902   5.546   9.685   9.738
18887WAT     H156903   5.538   9.588   9.718
18887WAT     H256904   5.625   9.701   9.798
18888WAT      O56905   3.314   7.575   6.808
18888WAT     H156906   3.401   7.531   6.785
18888WAT     H256907   3.289   7.639   6.735
18889WAT      O56908   4.126   1.100   0.959
18889WAT     H156909   4.172   1.162   0.896
18889WAT     H256910   4.075   1.153   1.027
18890WAT      O56911   0.869   2.107   3.987
18890WAT     H156912   0.916   2.120   3.900
18890WAT     H256913   0.844   2.011   3.999
18891WAT      O56914   4.547   1.207   3.029
18891WAT     H156915   4.590   1.119   3.012
18891WAT     H256916   4.590   1.251   3.107
18892WAT      O56917   8.239   3.214   2.808
18892WAT     H156918   8.294   3.248   2.732
18892WAT     H256919   8.150   3.260   2.808
18893WAT      O56920   9.252   2.227   2.466
18893WAT     H156921   9.188   2.288   2.513
18893WAT     H256922   9.206   2.142   2.441
18894WAT      O56923   1.875   6.433   6.879
18894WAT     H156924   1.849   6.448   6.975
18894WAT     H256925   1.911   6.341   6.868
18895WAT      O56926   1.398   0.258   3.491
18895WAT     H156927   1.445   0.346   3.493
18895WAT     H256928   1.390   0.222   3.584
18896WAT      O56929   8.063   5.917   4.078
18896WAT     H156930   8.049   6.011   4.109
18896WAT     H256931   8.127   5.871   4.139
18897WAT      O56932   4.414   9.314   4.525
18897WAT     H156933   4.344   9.283   4.590
18897WAT     H256934   4.497   9.340   4.575
18898WAT      O56935   4.691   7.119   1.741
18898WAT     H156936   4.734   7.179   1.675
18898WAT     H256937   4.724   7.140   1.833
18899WAT      O56938   9.693   6.722   2.374
18899WAT     H156939   9.701   6.785   2.297
18899WAT     H256940   9.680   6.629   2.340
18900WAT      O56941   1.368   0.978   5.295
18900WAT     H156942   1.454   0.963   5.246
18900WAT     H256943   1.292   0.947   5.239
18901WAT      O56944   8.096   4.662   8.234
18901WAT     H156945   8.055   4.582   8.191
18901WAT     H256946   8.171   4.696   8.177
18902WAT      O56947   2.830   7.901   4.029
18902WAT     H156948   2.799   7.936   4.117
18902WAT     H256949   2.794   7.808   4.015
18903WAT      O56950   0.097   8.545   4.910
18903WAT     H156951   0.079   8.483   4.987
18903WAT     H256952   0.195   8.565   4.906
18904WAT      O56953   8.348   2.984   9.463
18904WAT     H156954   8.274   3.050   9.461
18904WAT     H256955   8.385   2.977   9.555
18905WAT      O56956   3.218   3.919   7.826
18905WAT     H156957   3.149   3.886   7.890
18905WAT     H256958   3.233   4.017   7.840
18906WAT      O56959   6.511   0.022   3.794
18906WAT     H156960   6.580   0.022   3.721
18906WAT     H256961   6.557   0.024   3.883
18907WAT      O56962   6.822   0.973   9.266
18907WAT     H156963   6.768   1.048   9.304
18907WAT     H256964   6.884   0.938   9.335
18908WAT      O56965   5.125   9.669   1.632
18908WAT     H156966   5.111   9.675   1.731
18908WAT     H256967   5.077   9.589   1.597
18909WAT      O56968   1.271   9.184   7.386
18909WAT     H156969   1.202   9.212   7.454
18909WAT     H256970   1.320   9.265   7.354
18910WAT      O56971   9.500   2.201   1.812
18910WAT     H156972   9.543   2.267   1.874
18910WAT     H256973   9.424   2.156   1.860
18911WAT      O56974   4.217   4.729   1.051
18911WAT     H156975   4.125   4.762   1.075
18911WAT     H256976   4.276   4.807   1.031
18912WAT      O56977   6.567   8.245   4.803
18912WAT     H156978   6.656   8.240   4.757
18912WAT     H256979   6.531   8.338   4.796
18913WAT      O56980   5.422   0.582   1.143
18913WAT     H156981   5.456   0.666   1.101
18913WAT     H256982   5.354   0.540   1.083
18914WAT      O56983   4.131   9.821   6.069
18914WAT     H156984   4.044   9.842   6.113
18914WAT     H256985   4.149   9.886   5.996
18915WAT      O56986   6.585   7.260   2.834
18915WAT     H156987   6.609   7.287   2.740
18915WAT     H256988   6.656   7.292   2.897
18916WAT      O56989   8.776   4.655   3.713
18916WAT     H156990   8.731   4.612   3.635
18916WAT     H256991   8.755   4.753   3.715
18917WAT      O56992   4.942   3.360   5.473
18917WAT     H156993   4.871   3.342   5.405
18917WAT     H256994   4.973   3.455   5.464
18918WAT      O56995   4.398   6.794   4.731
18918WAT     H156996   4.350   6.734   4.666
18918WAT     H256997   4.344   6.802   4.815
18919WAT      O56998   1.660   6.511   0.436
18919WAT     H156999   1.685   6.596   0.390
18919WAT     H257000   1.730   6.488   0.504
18920WAT      O57001   1.940   1.171   7.574
18920WAT     H157002   2.010   1.120   7.524
18920WAT     H257003   1.856   1.117   7.576
18921WAT      O57004   9.674   4.170   0.510
18921WAT     H157005   9.749   4.106   0.522
18921WAT     H257006   9.680   4.243   0.578
18922WAT      O57007   5.757   0.652   0.380
18922WAT     H157008   5.712   0.564   0.367
18922WAT     H257009   5.783   0.661   0.477
18923WAT      O57010   6.766   6.160   3.414
18923WAT     H157011   6.796   6.228   3.480
18923WAT     H257012   6.838   6.145   3.346
18924WAT      O57013   8.981   0.595   2.704
18924WAT     H157014   9.015   0.581   2.611
18924WAT     H257015   8.933   0.682   2.708
18925WAT      O57016   1.916   6.767   2.409
18925WAT     H157017   1.823   6.802   2.413
18925WAT     H257018   1.980   6.842   2.392
18926WAT      O57019   3.885   3.845   8.777
18926WAT     H157020   3.804   3.901   8.759
18926WAT     H257021   3.962   3.904   8.801
18927WAT      O57022   4.179   0.184   1.164
18927WAT     H157023   4.080   0.192   1.174
18927WAT     H257024   4.199   0.111   1.098
18928WAT      O57025   6.638   9.745   8.240
18928WAT     H157026   6.583   9.828   8.243
18928WAT     H257027   6.630   9.696   8.327
18929WAT      O57028   2.404   5.173   1.021
18929WAT     H157029   2.321   5.118   1.020
18929WAT     H257030   2.413   5.221   0.934
18930WAT      O57031   0.820   9.653   0.775
18930WAT     H157032   0.776   9.571   0.813
18930WAT     H257033   0.750   9.718   0.746
18931WAT      O57034   1.088   7.847   9.038
18931WAT     H157035   1.043   7.793   9.109
18931WAT     H257036   1.042   7.935   9.028
18932WAT      O57037   6.244   8.770   0.147
18932WAT     H157038   6.208   8.693   0.200
18932WAT     H257039   6.330   8.800   0.186
18933WAT      O57040   3.185   6.658   3.860
18933WAT     H157041   3.245   6.623   3.932
18933WAT     H257042   3.138   6.582   3.816
18934WAT      O57043   2.124   3.759   2.997
18934WAT     H157044   2.158   3.793   3.085
18934WAT     H257045   2.118   3.659   3.000
18935WAT      O57046   0.787   6.373   7.895
18935WAT     H157047   0.830   6.291   7.858
18935WAT     H257048   0.721   6.347   7.966
18936WAT      O57049   8.234   7.037   6.410
18936WAT     H157050   8.263   7.088   6.492
18936WAT     H257051   8.236   6.939   6.429
18937WAT      O57052   3.477   7.666   9.627
18937WAT     H157053   3.539   7.722   9.681
18937WAT     H257054   3.528   7.615   9.558
18938WAT      O57055   1.604   6.402   6.817
18938WAT     H157056   1.571   6.311   6.790
18938WAT     H257057   1.703   6.400   6.826
18939WAT      O57058   8.157   4.258   0.832
18939WAT     H157059   8.083   4.243   0.766
18939WAT     H257060   8.217   4.178   0.834
18940WAT      O57061   0.999   4.448   1.706
18940WAT     H157062   0.950   4.503   1.774
18940WAT     H257063   1.086   4.493   1.683
18941WAT      O57064   0.315   8.525   8.143
18941WAT     H157065   0.274   8.450   8.090
18941WAT     H257066   0.380   8.575   8.087
18942WAT      O57067   9.314   3.979   8.772
18942WAT     H157068   9.378   3.947   8.842
18942WAT     H257069   9.315   4.079   8.770
18943WAT      O57070   5.281   7.675   7.154
18943WAT     H157071   5.182   7.671   7.148
18943WAT     H257072   5.321   7.671   7.063
18944WAT      O57073   4.384   2.567   1.819
18944WAT     H157074   4.427   2.623   1.890
18944WAT     H257075   4.377   2.473   1.852
18945WAT      O57076   9.661   2.686   7.717
18945WAT     H157077   9.584   2.624   7.708
18945WAT     H257078   9.628   2.779   7.733
18946WAT      O57079   0.721   5.257   1.855
18946WAT     H157080   0.795   5.191   1.845
18946WAT     H257081   0.751   5.332   1.914
18947WAT      O57082   9.296   6.767   5.642
18947WAT     H157083   9.369   6.719   5.691
18947WAT     H257084   9.315   6.766   5.544
18948WAT      O57085   1.273   8.945   6.804
18948WAT     H157086   1.309   9.011   6.871
18948WAT     H257087   1.262   8.856   6.848
18949WAT      O57088   0.977   4.580   9.736
18949WAT     H157089   1.064   4.615   9.701
18949WAT     H257090   0.990   4.487   9.770
18950WAT      O57091   4.130   6.340   8.918
18950WAT     H157092   4.229   6.351   8.915
18950WAT     H257093   4.097   6.358   9.011
18951WAT      O57094   3.586   5.726   3.381
18951WAT     H157095   3.639   5.722   3.466
18951WAT     H257096   3.509   5.662   3.387
18952WAT      O57097   3.598   4.236   6.818
18952WAT     H157098   3.579   4.272   6.910
18952WAT     H257099   3.692   4.258   6.793
18953WAT      O57100   7.048   9.316   7.212
18953WAT     H157101   7.063   9.281   7.304
18953WAT     H257102   7.047   9.416   7.213
18954WAT      O57103   9.368   1.658   2.426
18954WAT     H157104   9.315   1.681   2.508
18954WAT     H257105   9.366   1.735   2.362
18955WAT      O57106   8.032   0.614   9.254
18955WAT     H157107   8.073   0.564   9.177
18955WAT     H257108   8.052   0.565   9.339
18956WAT      O57109   0.752   0.207   9.475
18956WAT     H157110   0.851   0.194   9.477
18956WAT     H257111   0.724   0.268   9.549
18957WAT      O57112   1.867   0.539   7.453
18957WAT     H157113   1.811   0.621   7.466
18957WAT     H257114   1.815   0.471   7.401
18958WAT      O57115   2.327   0.243   7.480
18958WAT     H157116   2.325   0.235   7.381
18958WAT     H257117   2.308   0.338   7.506
18959WAT      O57118   9.212   1.319   3.048
18959WAT     H157119   9.174   1.372   2.972
18959WAT     H257120   9.273   1.248   3.012
18960WAT      O57121   9.020   6.705   0.760
18960WAT     H157122   8.950   6.636   0.741
18960WAT     H257123   9.101   6.687   0.705
18961WAT      O57124   1.189   7.841   6.244
18961WAT     H157125   1.274   7.794   6.220
18961WAT     H257126   1.116   7.810   6.183
18962WAT      O57127   4.266   6.472   5.494
18962WAT     H157128   4.184   6.498   5.546
18962WAT     H257129   4.268   6.373   5.484
18963WAT      O57130   5.106   0.504   0.512
18963WAT     H157131   5.122   0.572   0.583
18963WAT     H257132   5.013   0.513   0.477
18964WAT      O57133   0.100   9.601   4.566
18964WAT     H157134   0.150   9.514   4.567
18964WAT     H257135   0.160   9.674   4.598
18965WAT      O57136   3.498   7.730   2.085
18965WAT     H157137   3.410   7.750   2.042
18965WAT     H257138   3.569   7.726   2.014
18966WAT      O57139   4.709   8.005   6.906
18966WAT     H157140   4.694   7.910   6.934
18966WAT     H257141   4.789   8.011   6.846
18967WAT      O57142   2.376   1.927   2.146
18967WAT     H157143   2.343   1.840   2.184
18967WAT     H257144   2.413   1.912   2.055
18968WAT      O57145   4.897   9.035   4.504
18968WAT     H157146   4.933   9.128   4.518
18968WAT     H257147   4.972   8.972   4.487
18969WAT      O57148   3.735   4.311   4.919
18969WAT     H157149   3.713   4.215   4.902
18969WAT     H257150   3.816   4.336   4.866
18970WAT      O57151   3.162   3.375   6.847
18970WAT     H157152   3.081   3.408   6.799
18970WAT     H257153   3.176   3.428   6.930
18971WAT      O57154   7.560   0.878   6.493
18971WAT     H157155   7.491   0.947   6.518
18971WAT     H257156   7.521   0.815   6.426
18972WAT      O57157   6.652   3.723   4.546
18972WAT     H157158   6.740   3.686   4.519
18972WAT     H257159   6.637   3.811   4.500
18973WAT      O57160   6.080   8.103   8.386
18973WAT     H157161   6.038   8.192   8.404
18973WAT     H257162   6.029   8.031   8.434
18974WAT      O57163   9.253   1.538  -0.000
18974WAT     H157164   9.226   1.537   0.096
18974WAT     H257165   9.282   1.631  -0.025
18975WAT      O57166   2.474   6.102   6.439
18975WAT     H157167   2.564   6.061   6.423
18975WAT     H257168   2.481   6.201   6.430
18976WAT      O57169   0.379   8.453   0.882
18976WAT     H157170   0.375   8.468   0.981
18976WAT     H257171   0.287   8.457   0.844
18977WAT      O57172   5.518   1.173   1.133
18977WAT     H157173   5.456   1.199   1.208
18977WAT     H257174   5.464   1.148   1.053
18978WAT      O57175   5.796   7.873   4.395
18978WAT     H157176   5.860   7.932   4.347
18978WAT     H257177   5.812   7.777   4.369
18979WAT      O57178   2.306   0.480   9.121
18979WAT     H157179   2.320   0.558   9.181
18979WAT     H257180   2.303   0.510   9.026
18980WAT      O57181   8.907   5.580   2.581
18980WAT     H157182   8.987   5.635   2.608
18980WAT     H257183   8.843   5.638   2.530
18981WAT      O57184   5.772   6.600   0.743
18981WAT     H157185   5.690   6.639   0.701
18981WAT     H257186   5.792   6.512   0.700
18982WAT      O57187   9.022   9.424   5.744
18982WAT     H157188   8.967   9.403   5.825
18982WAT     H257189   9.098   9.483   5.770
18983WAT      O57190   9.132   0.594   3.689
18983WAT     H157191   9.210   0.656   3.696
18983WAT     H257192   9.156   0.518   3.629
18984WAT      O57193   9.837   1.799   0.940
18984WAT     H157194   9.878   1.716   0.903
18984WAT     H257195   9.738   1.786   0.950
18985WAT      O57196   2.582   9.608   6.437
18985WAT     H157197   2.633   9.578   6.517
18985WAT     H257198   2.528   9.689   6.460
18986WAT      O57199   4.180   5.678   1.443
18986WAT     H157200   4.142   5.624   1.368
18986WAT     H257201   4.174   5.626   1.528
18987WAT      O57202   2.874   3.223   9.105
18987WAT     H157203   2.885   3.165   9.024
18987WAT     H257204   2.854   3.166   9.185
18988WAT      O57205   9.270   9.710   5.509
18988WAT     H157206   9.249   9.739   5.415
18988WAT     H257207   9.311   9.619   5.507
18989WAT      O57208   2.311   3.889   4.030
18989WAT     H157209   2.244   3.918   3.961
18989WAT     H257210   2.277   3.913   4.121
18990WAT      O57211   5.390   6.992   0.406
18990WAT     H157212   5.350   6.988   0.314
18990WAT     H257213   5.322   7.027   0.471
18991WAT      O57214   4.179   5.610   9.659
18991WAT     H157215   4.235   5.568   9.730
18991WAT     H257216   4.162   5.543   9.587
18992WAT      O57217   8.823   1.171   0.227
18992WAT     H157218   8.858   1.105   0.161
18992WAT     H257219   8.799   1.124   0.312
18993WAT      O57220   5.146   5.690   0.764
18993WAT     H157221   5.233   5.701   0.715
18993WAT     H257222   5.139   5.759   0.836
18994WAT      O57223   3.293   7.683   1.143
18994WAT     H157224   3.282   7.584   1.132
18994WAT     H257225   3.303   7.726   1.054
18995WAT      O57226   8.257   9.065   1.010
18995WAT     H157227   8.334   9.017   1.053
18995WAT     H257228   8.172   9.018   1.033
18996WAT      O57229   7.613   0.946   1.330
18996WAT     H157230   7.655   0.991   1.251
18996WAT     H257231   7.529   0.995   1.355
18997WAT      O57232   1.044   7.937   8.670
18997WAT     H157233   1.095   7.853   8.689
18997WAT     H257234   0.947   7.923   8.693
18998WAT      O57235   8.906   5.317   9.316
18998WAT     H157236   8.832   5.354   9.260
18998WAT     H257237   8.885   5.222   9.340
18999WAT      O57238   2.091   2.148   3.708
18999WAT     H157239   2.023   2.218   3.729
18999WAT     H257240   2.171   2.191   3.667
19000WAT      O57241   9.846   1.457   0.297
19000WAT     H157242   9.832   1.495   0.206
19000WAT     H257243   9.863   1.359   0.290
19001WAT      O57244   5.930   8.663   0.783
19001WAT     H157245   5.882   8.745   0.751
19001WAT     H257246   5.922   8.658   0.883
19002WAT      O57247   3.370   2.943   1.408
19002WAT     H157248   3.430   3.021   1.425
19002WAT     H257249   3.338   2.946   1.314
19003WAT      O57250   9.304   6.647   1.850
19003WAT     H157251   9.387   6.591   1.857
19003WAT     H257252   9.318   6.734   1.897
19004WAT      O57253   8.256   2.406   6.364
19004WAT     H157254   8.335   2.464   6.383
19004WAT     H257255   8.187   2.420   6.435
19005WAT      O57256   6.743   5.623   4.708
19005WAT     H157257   6.661   5.664   4.670
19005WAT     H257258   6.720   5.572   4.792
19006WAT      O57259   2.454   7.198   2.342
19006WAT     H157260   2.421   7.258   2.270
19006WAT     H257261   2.429   7.236   2.431
19007WAT      O57262   1.647   2.345   1.621
19007WAT     H157263   1.550   2.327   1.634
19007WAT     H257264   1.699   2.260   1.633
19008WAT      O57265   1.342   6.255   8.371
19008WAT     H157266   1.284   6.209   8.438
19008WAT     H257267   1.392   6.329   8.417
19009WAT      O57268   9.786   0.872   4.380
19009WAT     H157269   9.753   0.917   4.297
19009WAT     H257270   9.870   0.917   4.411
19010WAT      O57271   8.379   6.019   9.770
19010WAT     H157272   8.300   6.037   9.829
19010WAT     H257273   8.443   6.096   9.775
19011WAT      O57274   7.786   3.323   6.183
19011WAT     H157275   7.771   3.311   6.085
19011WAT     H257276   7.702   3.304   6.233
19012WAT      O57277   8.930   3.606   4.825
19012WAT     H157278   8.939   3.683   4.761
19012WAT     H257279   9.015   3.554   4.826
19013WAT      O57280   0.780   0.939   7.434
19013WAT     H157281   0.815   1.027   7.404
19013WAT     H257282   0.852   0.870   7.425
19014WAT      O57283   2.398   9.014   4.396
19014WAT     H157284   2.346   9.100   4.399
19014WAT     H257285   2.473   9.019   4.462
19015WAT      O57286   0.752   9.130   5.154
19015WAT     H157287   0.838   9.081   5.166
19015WAT     H257288   0.676   9.064   5.154
19016WAT      O57289   7.824   0.462   7.912
19016WAT     H157290   7.735   0.451   7.956
19016WAT     H257291   7.895   0.464   7.982
19017WAT      O57292   1.581   3.046   8.607
19017WAT     H157293   1.635   3.114   8.557
19017WAT     H257294   1.643   2.982   8.653
19018WAT      O57295   4.887   7.061   4.321
19018WAT     H157296   4.947   6.984   4.299
19018WAT     H257297   4.802   7.054   4.269
19019WAT      O57298   4.655   9.142   9.080
19019WAT     H157299   4.683   9.059   9.032
19019WAT     H257300   4.736   9.192   9.110
19020WAT      O57301   3.797   1.448   4.745
19020WAT     H157302   3.820   1.522   4.808
19020WAT     H257303   3.705   1.414   4.765
19021WAT      O57304   1.417   0.066   6.700
19021WAT     H157305   1.516   0.054   6.709
19021WAT     H257306   1.395   0.089   6.606
19022WAT      O57307   4.304   5.290   7.856
19022WAT     H157308   4.342   5.382   7.864
19022WAT     H257309   4.230   5.289   7.789
19023WAT      O57310   3.587   5.052   0.246
19023WAT     H157311   3.591   4.952   0.236
19023WAT     H257312   3.498   5.079   0.281
19024WAT      O57313   3.809   0.189   4.227
19024WAT     H157314   3.770   0.097   4.222
19024WAT     H257315   3.892   0.186   4.282
19025WAT      O57316   2.546   9.526   8.286
19025WAT     H157317   2.597   9.447   8.254
19025WAT     H257318   2.463   9.495   8.333
19026WAT      O57319   1.473   7.710   1.088
19026WAT     H157320   1.439   7.791   1.041
19026WAT     H257321   1.454   7.717   1.186
19027WAT      O57322   9.072   0.763   5.223
19027WAT     H157323   9.067   0.693   5.152
19027WAT     H257324   9.146   0.742   5.286
19028WAT      O57325   4.015   7.156   3.269
19028WAT     H157326   4.011   7.173   3.171
19028WAT     H257327   4.091   7.208   3.310
19029WAT      O57328   0.926   6.269   7.066
19029WAT     H157329   0.873   6.261   6.981
19029WAT     H257330   0.985   6.188   7.076
19030WAT      O57331   6.124   1.442   6.630
19030WAT     H157332   6.174   1.446   6.717
19030WAT     H257333   6.162   1.509   6.566
19031WAT      O57334   7.920   8.374   6.549
19031WAT     H157335   7.909   8.275   6.533
19031WAT     H257336   8.012   8.392   6.584
19032WAT      O57337   1.998   3.422   6.581
19032WAT     H157338   1.924   3.364   6.615
19032WAT     H257339   1.972   3.462   6.494
19033WAT      O57340   5.798   2.794   5.774
19033WAT     H157341   5.723   2.748   5.822
19033WAT     H257342   5.856   2.726   5.730
19034WAT      O57343   9.629   5.819   0.528
19034WAT     H157344   9.644   5.723   0.553
19034WAT     H257345   9.534   5.845   0.548
19035WAT      O57346   7.098   8.299   5.905
19035WAT     H157347   7.012   8.249   5.907
19035WAT     H257348   7.114   8.336   5.814
19036WAT      O57349   8.919   8.889   9.006
19036WAT     H157350   8.882   8.877   9.099
19036WAT     H257351   8.852   8.938   8.950
19037WAT      O57352   4.006   0.363   1.770
19037WAT     H157353   4.021   0.355   1.671
19037WAT     H257354   3.929   0.305   1.796
19038WAT      O57355   8.408   7.893   8.272
19038WAT     H157356   8.489   7.891   8.332
19038WAT     H257357   8.341   7.956   8.309
19039WAT      O57358   9.740   1.912   6.126
19039WAT     H157359   9.775   1.832   6.176
19039WAT     H257360   9.709   1.883   6.036
19040WAT      O57361   7.632   5.832   7.314
19040WAT     H157362   7.712   5.801   7.366
19040WAT     H257363   7.651   5.825   7.216
19041WAT      O57364   9.295   9.002   6.946
19041WAT     H157365   9.264   9.096   6.932
19041WAT     H257366   9.280   8.949   6.863
19042WAT      O57367   1.522   2.927   2.861
19042WAT     H157368   1.531   2.969   2.951
19042WAT     H257369   1.610   2.931   2.814
19043WAT      O57370   1.450   0.751   6.514
19043WAT     H157371   1.434   0.849   6.515
19043WAT     H257372   1.476   0.720   6.606
19044WAT      O57373   3.926   9.693   4.543
19044WAT     H157374   3.849   9.737   4.590
19044WAT     H257375   3.898   9.670   4.450
19045WAT      O57376   1.503   8.224   4.510
19045WAT     H157377   1.517   8.319   4.537
19045WAT     H257378   1.416   8.216   4.462
19046WAT      O57379   4.054   8.061   1.979
19046WAT     H157380   4.098   8.115   2.052
19046WAT     H257381   4.045   7.966   2.008
19047WAT      O57382   9.787   7.432   4.183
19047WAT     H157383   9.860   7.389   4.130
19047WAT     H257384   9.704   7.438   4.127
19048WAT      O57385   3.754   4.575   3.466
19048WAT     H157386   3.782   4.640   3.536
19048WAT     H257387   3.748   4.622   3.378
19049WAT      O57388   6.981   8.917   6.885
19049WAT     H157389   7.067   8.869   6.904
19049WAT     H257390   6.910   8.884   6.946
19050WAT      O57391   7.427   9.733   5.032
19050WAT     H157392   7.386   9.665   5.092
19050WAT     H257393   7.514   9.765   5.071
19051WAT      O57394   1.615   5.331   1.081
19051WAT     H157395   1.673   5.400   1.036
19051WAT     H257396   1.594   5.360   1.174
19052WAT      O57397   8.418   8.543   6.263
19052WAT     H157398   8.510   8.530   6.226
19052WAT     H257399   8.380   8.629   6.227
19053WAT      O57400   0.991   2.656   0.659
19053WAT     H157401   0.999   2.737   0.601
19053WAT     H257402   1.025   2.576   0.610
19054WAT      O57403   5.664   2.895   3.853
19054WAT     H157404   5.670   2.988   3.818
19054WAT     H257405   5.569   2.875   3.878
19055WAT      O57406   8.896   0.915   1.404
19055WAT     H157407   8.967   0.894   1.471
19055WAT     H257408   8.932   0.901   1.312
19056WAT      O57409   0.580   0.205   7.882
19056WAT     H157410   0.663   0.185   7.830
19056WAT     H257411   0.538   0.120   7.913
19057WAT      O57412   3.465   3.198   2.251
19057WAT     H157413   3.507   3.256   2.181
19057WAT     H257414   3.383   3.156   2.213
19058WAT      O57415   5.378   6.007   8.345
19058WAT     H157416   5.375   6.061   8.429
19058WAT     H257417   5.349   6.063   8.268
19059WAT      O57418   8.487   4.887   2.235
19059WAT     H157419   8.461   4.984   2.236
19059WAT     H257420   8.409   4.832   2.265
19060WAT      O57421   0.298   3.048   5.054
19060WAT     H157422   0.334   3.054   5.147
19060WAT     H257423   0.200   3.066   5.055
19061WAT      O57424   4.333   4.685   8.520
19061WAT     H157425   4.320   4.762   8.456
19061WAT     H257426   4.421   4.696   8.567
19062WAT      O57427   7.921   1.469   3.403
19062WAT     H157428   7.919   1.569   3.416
19062WAT     H257429   7.837   1.429   3.441
19063WAT      O57430   3.354   4.444   0.281
19063WAT     H157431   3.341   4.544   0.285
19063WAT     H257432   3.419   4.422   0.208
19064WAT      O57433   7.230   4.426   9.629
19064WAT     H157434   7.232   4.501   9.695
19064WAT     H257435   7.150   4.436   9.570
19065WAT      O57436   2.940   3.322   6.015
19065WAT     H157437   2.952   3.395   6.083
19065WAT     H257438   3.015   3.324   5.950
19066WAT      O57439   7.518   6.314   8.294
19066WAT     H157440   7.593   6.319   8.228
19066WAT     H257441   7.553   6.334   8.385
19067WAT      O57442   6.918   7.314   0.784
19067WAT     H157443   6.904   7.227   0.832
19067WAT     H257444   7.015   7.326   0.763
19068WAT      O57445   2.594   3.892   0.042
19068WAT     H157446   2.635   3.873   0.131
19068WAT     H257447   2.515   3.832   0.028
19069WAT      O57448   1.559   6.745   4.935
19069WAT     H157449   1.589   6.669   4.878
19069WAT     H257450   1.634   6.774   4.995
19070WAT      O57451   5.620   2.275   0.870
19070WAT     H157452   5.622   2.331   0.953
19070WAT     H257453   5.679   2.315   0.801
19071WAT      O57454   3.035   5.187   4.224
19071WAT     H157455   3.022   5.160   4.319
19071WAT     H257456   3.075   5.279   4.221
19072WAT      O57457   0.405   7.132   9.662
19072WAT     H157458   0.473   7.198   9.692
19072WAT     H257459   0.356   7.096   9.742
19073WAT      O57460   1.031   5.189   7.456
19073WAT     H157461   0.949   5.229   7.417
19073WAT     H257462   1.050   5.101   7.413
19074WAT      O57463   2.010   0.289   4.864
19074WAT     H157464   2.015   0.258   4.769
19074WAT     H257465   2.102   0.290   4.903
19075WAT      O57466   2.079   5.562   9.204
19075WAT     H157467   2.055   5.521   9.292
19075WAT     H257468   2.073   5.492   9.133
19076WAT      O57469   5.731   2.858   2.987
19076WAT     H157470   5.813   2.914   2.988
19076WAT     H257471   5.666   2.892   3.055
19077WAT      O57472   9.481   2.646   5.207
19077WAT     H157473   9.540   2.567   5.192
19077WAT     H257474   9.434   2.636   5.295
19078WAT      O57475   6.374   8.330   4.223
19078WAT     H157476   6.413   8.422   4.225
19078WAT     H257477   6.407   8.278   4.302
19079WAT      O57478   6.326   3.459   1.929
19079WAT     H157479   6.335   3.393   1.854
19079WAT     H257480   6.414   3.470   1.975
19080WAT      O57481   6.376   7.146   8.458
19080WAT     H157482   6.375   7.107   8.366
19080WAT     H257483   6.320   7.090   8.518
19081WAT      O57484   4.207   4.285   8.548
19081WAT     H157485   4.234   4.352   8.479
19081WAT     H257486   4.274   4.211   8.550
19082WAT      O57487   5.267   2.197   1.535
19082WAT     H157488   5.262   2.098   1.545
19082WAT     H257489   5.362   2.224   1.517
19083WAT      O57490   2.238   0.443   0.325
19083WAT     H157491   2.268   0.474   0.234
19083WAT     H257492   2.303   0.376   0.360
19084WAT      O57493   7.917   2.938   9.435
19084WAT     H157494   7.891   3.023   9.388
19084WAT     H257495   7.947   2.959   9.528
19085WAT      O57496   2.367   4.477   5.731
19085WAT     H157497   2.275   4.444   5.710
19085WAT     H257498   2.364   4.576   5.743
19086WAT      O57499   5.287   9.009   9.510
19086WAT     H157500   5.295   8.940   9.582
19086WAT     H257501   5.365   9.002   9.448
19087WAT      O57502   8.895   7.242   0.384
19087WAT     H157503   8.944   7.220   0.299
19087WAT     H257504   8.807   7.282   0.362
19088WAT      O57505   8.996   3.149   3.637
19088WAT     H157506   8.982   3.162   3.735
19088WAT     H257507   9.046   3.063   3.621
19089WAT      O57508   0.682   6.724   9.457
19089WAT     H157509   0.605   6.786   9.443
19089WAT     H257510   0.720   6.737   9.548
19090WAT      O57511   1.651   5.025   4.127
19090WAT     H157512   1.618   5.065   4.042
19090WAT     H257513   1.735   5.072   4.155
19091WAT      O57514   1.541   0.310   4.189
19091WAT     H157515   1.546   0.409   4.204
19091WAT     H257516   1.447   0.279   4.203
19092WAT      O57517   0.713   4.594   8.045
19092WAT     H157518   0.735   4.511   7.994
19092WAT     H257519   0.746   4.585   8.139
19093WAT      O57520   0.517   0.522   3.725
19093WAT     H157521   0.531   0.610   3.679
19093WAT     H257522   0.441   0.474   3.682
19094WAT      O57523   6.372   2.661   8.594
19094WAT     H157524   6.467   2.631   8.603
19094WAT     H257525   6.336   2.633   8.505
19095WAT      O57526   0.034   6.675   9.471
19095WAT     H157527   0.063   6.582   9.493
19095WAT     H257528  -0.063   6.674   9.447
19096WAT      O57529   3.386   0.926   9.203
19096WAT     H157530   3.466   0.869   9.223
19096WAT     H257531   3.318   0.914   9.276
19097WAT      O57532   0.559   1.401   8.988
19097WAT     H157533   0.498   1.380   9.065
19097WAT     H257534   0.532   1.489   8.948
19098WAT      O57535   0.506   6.955   5.581
19098WAT     H157536   0.565   6.995   5.652
19098WAT     H257537   0.449   7.027   5.541
19099WAT      O57538   3.552   2.336   5.062
19099WAT     H157539   3.516   2.429   5.070
19099WAT     H257540   3.571   2.300   5.153
19100WAT      O57541   7.343   1.912   9.791
19100WAT     H157542   7.344   1.956   9.702
19100WAT     H257543   7.403   1.832   9.790
19101WAT      O57544   7.950   6.404   6.763
19101WAT     H157545   7.921   6.482   6.818
19101WAT     H257546   7.932   6.319   6.812
19102WAT      O57547   0.678   2.605   9.147
19102WAT     H157548   0.738   2.582   9.223
19102WAT     H257549   0.658   2.523   9.093
19103WAT      O57550   7.056   6.472   9.624
19103WAT     H157551   7.031   6.400   9.689
19103WAT     H257552   7.019   6.449   9.534
19104WAT      O57553   1.617   3.202   0.090
19104WAT     H157554   1.665   3.116   0.106
19104WAT     H257555   1.642   3.268   0.160
19105WAT      O57556   9.170   1.668   4.900
19105WAT     H157557   9.173   1.673   4.801
19105WAT     H257558   9.083   1.706   4.933
19106WAT      O57559   9.099   2.537   1.949
19106WAT     H157560   9.078   2.464   1.884
19106WAT     H257561   9.039   2.529   2.029
19107WAT      O57562   7.690   8.088   1.522
19107WAT     H157563   7.757   8.059   1.590
19107WAT     H257564   7.669   8.185   1.534
19108WAT      O57565   4.430   4.931   3.071
19108WAT     H157566   4.527   4.919   3.092
19108WAT     H257567   4.381   4.957   3.154
19109WAT      O57568   5.869   6.012   0.115
19109WAT     H157569   5.803   5.967   0.054
19109WAT     H257570   5.865   6.111   0.101
19110WAT      O57571   0.934   9.068   4.481
19110WAT     H157572   0.905   9.097   4.572
19110WAT     H257573   0.885   8.984   4.455
19111WAT      O57574   3.881   2.235   2.715
19111WAT     H157575   3.848   2.281   2.798
19111WAT     H257576   3.981   2.245   2.710
19112WAT      O57577   7.941   2.948   7.048
19112WAT     H157578   7.885   3.017   7.094
19112WAT     H257579   7.919   2.857   7.084
19113WAT      O57580   9.070   2.836   7.528
19113WAT     H157581   9.166   2.865   7.531
19113WAT     H257582   9.033   2.854   7.437
19114WAT      O57583   7.762   7.949   5.303
19114WAT     H157584   7.780   7.947   5.204
19114WAT     H257585   7.773   7.857   5.341
19115WAT      O57586   8.462   5.084   1.303
19115WAT     H157587   8.497   4.993   1.327
19115WAT     H257588   8.509   5.117   1.222
19116WAT      O57589   8.775   7.223   8.973
19116WAT     H157590   8.676   7.227   8.987
19116WAT     H257591   8.801   7.132   8.939
19117WAT      O57592   5.602   1.638   6.863
19117WAT     H157593   5.681   1.586   6.830
19117WAT     H257594   5.518   1.595   6.829
19118WAT      O57595   2.855   9.557   5.009
19118WAT     H157596   2.801   9.494   5.065
19118WAT     H257597   2.827   9.550   4.914
19119WAT      O57598   6.916   4.165   9.103
19119WAT     H157599   6.928   4.075   9.063
19119WAT     H257600   6.921   4.235   9.031
19120WAT      O57601   9.835   6.507   6.372
19120WAT     H157602   9.827   6.418   6.417
19120WAT     H257603   9.792   6.503   6.282
19121WAT      O57604   4.338   4.728   3.856
19121WAT     H157605   4.302   4.708   3.947
19121WAT     H257606   4.288   4.805   3.816
19122WAT      O57607   5.107   9.669   2.453
19122WAT     H157608   5.194   9.650   2.499
19122WAT     H257609   5.110   9.760   2.411
19123WAT      O57610   8.464   5.487   6.991
19123WAT     H157611   8.458   5.535   6.903
19123WAT     H257612   8.533   5.531   7.048
19124WAT      O57613   1.767   0.763   4.297
19124WAT     H157614   1.795   0.788   4.205
19124WAT     H257615   1.831   0.696   4.335
19125WAT      O57616   1.968   5.324   0.489
19125WAT     H157617   1.944   5.394   0.422
19125WAT     H257618   1.887   5.270   0.511
19126WAT      O57619   7.752   7.639   5.986
19126WAT     H157620   7.669   7.593   6.018
19126WAT     H257621   7.767   7.722   6.041
19127WAT      O57622   6.074   3.049   6.784
19127WAT     H157623   6.128   3.013   6.708
19127WAT     H257624   5.984   3.076   6.751
19128WAT      O57625   3.420   1.702   4.743
19128WAT     H157626   3.386   1.643   4.669
19128WAT     H257627   3.406   1.798   4.719
19129WAT      O57628   7.867   3.418   9.133
19129WAT     H157629   7.886   3.357   9.210
19129WAT     H257630   7.939   3.408   9.065
19130WAT      O57631   2.082   6.518   9.284
19130WAT     H157632   2.154   6.497   9.219
19130WAT     H257633   2.095   6.611   9.320
19131WAT      O57634   0.987   9.045   4.183
19131WAT     H157635   0.944   9.115   4.126
19131WAT     H257636   1.025   9.087   4.265
19132WAT      O57637   8.180   0.763   1.817
19132WAT     H157638   8.195   0.860   1.835
19132WAT     H257639   8.216   0.709   1.893
19133WAT      O57640   1.829   1.690   1.801
19133WAT     H157641   1.913   1.738   1.825
19133WAT     H257642   1.774   1.746   1.739
19134WAT      O57643   9.612   8.056   0.263
19134WAT     H157644   9.536   8.006   0.222
19134WAT     H257645   9.691   8.053   0.201
19135WAT      O57646   3.717   9.524   5.871
19135WAT     H157647   3.796   9.552   5.925
19135WAT     H257648   3.708   9.424   5.874
19136WAT      O57649   5.450   1.731   7.530
19136WAT     H157650   5.464   1.664   7.457
19136WAT     H257651   5.536   1.744   7.580
19137WAT      O57652   2.692   1.370   1.063
19137WAT     H157653   2.736   1.460   1.066
19137WAT     H257654   2.668   1.341   1.156
19138WAT      O57655   2.765   2.992   1.782
19138WAT     H157656   2.736   2.958   1.871
19138WAT     H257657   2.810   3.081   1.794
19139WAT      O57658   3.980   3.050   7.577
19139WAT     H157659   3.947   3.118   7.641
19139WAT     H257660   4.058   3.001   7.617
19140WAT      O57661   0.401   4.697   9.316
19140WAT     H157662   0.492   4.688   9.274
19140WAT     H257663   0.397   4.782   9.368
19141WAT      O57664   6.356   6.222   0.823
19141WAT     H157665   6.381   6.303   0.875
19141WAT     H257666   6.437   6.165   0.808
19142WAT      O57667   2.196   8.317   0.782
19142WAT     H157668   2.263   8.388   0.807
19142WAT     H257669   2.120   8.359   0.732
19143WAT      O57670   8.080   3.601   0.714
19143WAT     H157671   8.178   3.592   0.732
19143WAT     H257672   8.063   3.687   0.667
19144WAT      O57673   9.861   7.805   4.727
19144WAT     H157674   9.777   7.771   4.769
19144WAT     H257675   9.937   7.743   4.750
19145WAT      O57676   5.236   7.957   6.154
19145WAT     H157677   5.218   7.899   6.074
19145WAT     H257678   5.297   8.031   6.128
19146WAT      O57679   3.675   8.110   4.605
19146WAT     H157680   3.576   8.113   4.593
19146WAT     H257681   3.697   8.046   4.678
19147WAT      O57682   8.538   3.177   3.703
19147WAT     H157683   8.591   3.093   3.715
19147WAT     H257684   8.551   3.236   3.782
19148WAT      O57685   5.634   5.553   4.667
19148WAT     H157686   5.549   5.500   4.670
19148WAT     H257687   5.700   5.506   4.608
19149WAT      O57688   6.214   6.473   0.279
19149WAT     H157689   6.142   6.412   0.247
19149WAT     H257690   6.256   6.519   0.201
19150WAT      O57691   5.976   4.483   2.188
19150WAT     H157692   5.936   4.426   2.260
19150WAT     H257693   6.051   4.433   2.145
19151WAT      O57694   5.553   7.855   6.780
19151WAT     H157695   5.632   7.888   6.832
19151WAT     H257696   5.583   7.785   6.715
19152WAT      O57697   1.263   2.813   4.806
19152WAT     H157698   1.312   2.886   4.852
19152WAT     H257699   1.251   2.835   4.710
19153WAT      O57700   8.143   2.012   1.422
19153WAT     H157701   8.095   1.989   1.507
19153WAT     H257702   8.076   2.040   1.353
19154WAT      O57703   6.440   4.526   5.713
19154WAT     H157704   6.428   4.523   5.812
19154WAT     H257705   6.423   4.619   5.680
19155WAT      O57706   2.506   1.056   0.145
19155WAT     H157707   2.419   1.074   0.099
19155WAT     H257708   2.497   1.078   0.242
19156WAT      O57709   8.850   7.575   5.562
19156WAT     H157710   8.819   7.515   5.635
19156WAT     H257711   8.937   7.542   5.526
19157WAT      O57712   1.934   8.535   4.424
19157WAT     H157713   1.942   8.458   4.360
19157WAT     H257714   1.883   8.609   4.381
19158WAT      O57715   3.797   0.811   4.275
19158WAT     H157716   3.815   0.896   4.226
19158WAT     H257717   3.789   0.830   4.373
19159WAT      O57718   9.602   8.373   6.826
19159WAT     H157719   9.622   8.402   6.920
19159WAT     H257720   9.677   8.318   6.792
19160WAT      O57721   5.751   0.356   0.330
19160WAT     H157722   5.832   0.324   0.280
19160WAT     H257723   5.743   0.305   0.415
19161WAT      O57724   8.361   4.425   2.262
19161WAT     H157725   8.433   4.480   2.218
19161WAT     H257726   8.378   4.421   2.361
19162WAT      O57727   7.971   5.650   4.331
19162WAT     H157728   8.064   5.643   4.295
19162WAT     H257729   7.972   5.625   4.428
19163WAT      O57730   0.762   5.419   8.546
19163WAT     H157731   0.691   5.427   8.475
19163WAT     H257732   0.747   5.489   8.616
19164WAT      O57733   5.253   0.763   9.054
19164WAT     H157734   5.280   0.680   9.102
19164WAT     H257735   5.207   0.825   9.117
19165WAT      O57736   4.416   9.805   2.735
19165WAT     H157737   4.359   9.845   2.807
19165WAT     H257738   4.481   9.874   2.703
19166WAT      O57739   5.086   0.525   8.643
19166WAT     H157740   5.177   0.540   8.681
19166WAT     H257741   5.056   0.432   8.664
19167WAT      O57742   0.392   1.202   4.583
19167WAT     H157743   0.448   1.282   4.564
19167WAT     H257744   0.383   1.190   4.682
19168WAT      O57745   6.557   7.124   7.960
19168WAT     H157746   6.615   7.066   7.904
19168WAT     H257747   6.613   7.179   8.022
19169WAT      O57748   8.578   6.434   2.295
19169WAT     H157749   8.668   6.426   2.337
19169WAT     H257750   8.515   6.476   2.361
19170WAT      O57751   7.498   3.496   5.221
19170WAT     H157752   7.495   3.405   5.180
19170WAT     H257753   7.563   3.554   5.171
19171WAT      O57754   6.544   0.183   2.912
19171WAT     H157755   6.543   0.137   2.823
19171WAT     H257756   6.638   0.210   2.934
19172WAT      O57757   6.337   2.323   8.878
19172WAT     H157758   6.342   2.224   8.891
19172WAT     H257759   6.427   2.357   8.851
19173WAT      O57760   6.768   5.974   7.872
19173WAT     H157761   6.708   6.054   7.864
19173WAT     H257762   6.828   5.985   7.951
19174WAT      O57763   5.242   8.348   3.824
19174WAT     H157764   5.203   8.440   3.816
19174WAT     H257765   5.230   8.299   3.737
19175WAT      O57766   2.095   7.688   3.426
19175WAT     H157767   2.020   7.746   3.394
19175WAT     H257768   2.070   7.592   3.413
19176WAT      O57769   4.152   4.323   4.226
19176WAT     H157770   4.179   4.253   4.292
19176WAT     H257771   4.159   4.286   4.134
19177WAT      O57772   8.870   4.655   6.361
19177WAT     H157773   8.943   4.721   6.378
19177WAT     H257774   8.907   4.563   6.359
19178WAT      O57775   0.141   4.913   1.156
19178WAT     H157776   0.197   4.953   1.084
19178WAT     H257777   0.195   4.902   1.239
19179WAT      O57778   4.854   3.645   7.138
19179WAT     H157779   4.861   3.547   7.122
19179WAT     H257780   4.758   3.669   7.155
19180WAT      O57781   5.780   1.045   7.944
19180WAT     H157782   5.743   1.092   7.864
19180WAT     H257783   5.723   0.967   7.966
19181WAT      O57784   8.082   0.768   0.033
19181WAT     H157785   8.092   0.817  -0.053
19181WAT     H257786   8.153   0.798   0.097
19182WAT      O57787   9.597   9.081   8.218
19182WAT     H157788   9.616   9.111   8.125
19182WAT     H257789   9.593   8.981   8.221
19183WAT      O57790   0.064   2.238   5.033
19183WAT     H157791   0.091   2.224   4.938
19183WAT     H257792   0.065   2.336   5.054
19184WAT      O57793   0.883   3.727   8.058
19184WAT     H157794   0.804   3.757   8.005
19184WAT     H257795   0.945   3.676   7.998
19185WAT      O57796   9.109   3.735   2.028
19185WAT     H157797   9.119   3.791   1.946
19185WAT     H257798   9.069   3.647   2.004
19186WAT      O57799   2.630   3.753   6.764
19186WAT     H157800   2.604   3.790   6.675
19186WAT     H257801   2.679   3.668   6.752
19187WAT      O57802   6.800   9.554   1.814
19187WAT     H157803   6.839   9.482   1.872
19187WAT     H257804   6.815   9.530   1.718
19188WAT      O57805   1.643   4.875   1.086
19188WAT     H157806   1.652   4.890   1.185
19188WAT     H257807   1.703   4.938   1.037
19189WAT      O57808   2.774   2.168   8.155
19189WAT     H157809   2.845   2.234   8.181
19189WAT     H257810   2.806   2.076   8.175
19190WAT      O57811   8.100   6.744   1.465
19190WAT     H157812   8.015   6.774   1.508
19190WAT     H257813   8.178   6.781   1.515
19191WAT      O57814   4.494   0.345   6.554
19191WAT     H157815   4.477   0.399   6.471
19191WAT     H257816   4.591   0.348   6.577
19192WAT      O57817   2.651   3.799   7.347
19192WAT     H157818   2.700   3.723   7.389
19192WAT     H257819   2.576   3.764   7.291
19193WAT      O57820   6.245   2.695   5.185
19193WAT     H157821   6.277   2.649   5.268
19193WAT     H257822   6.212   2.628   5.120
19194WAT      O57823   1.866   7.710   4.434
19194WAT     H157824   1.855   7.810   4.431
19194WAT     H257825   1.776   7.667   4.437
19195WAT      O57826   6.637   7.069   0.771
19195WAT     H157827   6.662   7.012   0.694
19195WAT     H257828   6.550   7.116   0.751
19196WAT      O57829   7.336   2.615   9.729
19196WAT     H157830   7.260   2.633   9.666
19196WAT     H257831   7.340   2.518   9.749
19197WAT      O57832   4.780   2.484   1.033
19197WAT     H157833   4.811   2.548   0.962
19197WAT     H257834   4.739   2.535   1.109
19198WAT      O57835   5.580   7.741   0.780
19198WAT     H157836   5.655   7.804   0.761
19198WAT     H257837   5.556   7.691   0.696
19199WAT      O57838   1.852   4.577   9.089
19199WAT     H157839   1.853   4.559   9.187
19199WAT     H257840   1.772   4.631   9.065
19200WAT      O57841   3.974   7.187   3.006
19200WAT     H157842   3.887   7.228   2.978
19200WAT     H257843   3.994   7.108   2.948
19201WAT      O57844   1.052   7.074   8.753
19201WAT     H157845   1.074   7.137   8.828
19201WAT     H257846   0.976   7.111   8.700
19202WAT      O57847   7.434   9.367   1.517
19202WAT     H157848   7.510   9.306   1.542
19202WAT     H257849   7.384   9.328   1.440
19203WAT      O57850   8.983   1.454   2.168
19203WAT     H157851   8.886   1.450   2.144
19203WAT     H257852   8.996   1.521   2.241
19204WAT      O57853   0.258   0.435   3.574
19204WAT     H157854   0.215   0.422   3.484
19204WAT     H257855   0.189   0.461   3.641
19205WAT      O57856   9.768   2.936   3.269
19205WAT     H157857   9.785   2.857   3.328
19205WAT     H257858   9.796   3.020   3.316
19206WAT      O57859   1.451   5.611   2.244
19206WAT     H157860   1.533   5.668   2.237
19206WAT     H257861   1.370   5.670   2.245
19207WAT      O57862   8.071   6.471   2.982
19207WAT     H157863   8.023   6.385   2.963
19207WAT     H257864   8.137   6.457   3.056
19208WAT      O57865   1.726   2.702   7.739
19208WAT     H157866   1.786   2.739   7.810
19208WAT     H257867   1.634   2.742   7.749
19209WAT      O57868   6.296   0.731   3.140
19209WAT     H157869   6.236   0.682   3.077
19209WAT     H257870   6.289   0.691   3.231
19210WAT      O57871   3.089   7.161   3.668
19210WAT     H157872   3.025   7.118   3.732
19210WAT     H257873   3.171   7.104   3.659
19211WAT      O57874   2.849   2.141   7.149
19211WAT     H157875   2.888   2.079   7.081
19211WAT     H257876   2.768   2.186   7.111
19212WAT      O57877   8.543   8.660   4.944
19212WAT     H157878   8.491   8.704   5.017
19212WAT     H257879   8.519   8.701   4.856
19213WAT      O57880   3.073   1.145   2.584
19213WAT     H157881   3.083   1.244   2.569
19213WAT     H257882   3.058   1.100   2.496
19214WAT      O57883   5.142   9.373   2.416
19214WAT     H157884   5.203   9.405   2.488
19214WAT     H257885   5.095   9.451   2.374
19215WAT      O57886   0.230   1.638   0.315
19215WAT     H157887   0.205   1.616   0.221
19215WAT     H257888   0.185   1.722   0.344
19216WAT      O57889   3.179   6.366   6.361
19216WAT     H157890   3.153   6.402   6.271
19216WAT     H257891   3.174   6.439   6.429
19217WAT      O57892   9.130   5.074   0.936
19217WAT     H157893   9.100   5.168   0.915
19217WAT     H257894   9.206   5.050   0.875
19218WAT      O57895   1.419   0.107   3.746
19218WAT     H157896   1.367   0.032   3.707
19218WAT     H257897   1.371   0.142   3.827
19219WAT      O57898   6.518   5.713   7.712
19219WAT     H157899   6.578   5.740   7.787
19219WAT     H257900   6.423   5.733   7.736
19220WAT      O57901   5.668   6.627   9.149
19220WAT     H157902   5.590   6.570   9.125
19220WAT     H257903   5.682   6.696   9.077
19221WAT      O57904   2.488   6.674   9.738
19221WAT     H157905   2.582   6.706   9.748
19221WAT     H257906   2.455   6.639   9.825
19222WAT      O57907   1.032   0.745   9.470
19222WAT     H157908   0.955   0.775   9.413
19222WAT     H257909   1.019   0.780   9.563
19223WAT      O57910   6.309   1.936   4.341
19223WAT     H157911   6.232   1.969   4.395
19223WAT     H257912   6.296   1.839   4.320
19224WAT      O57913   9.609   9.412   4.818
19224WAT     H157914   9.675   9.411   4.743
19224WAT     H257915   9.557   9.326   4.818
19225WAT      O57916   3.814   0.752   8.341
19225WAT     H157917   3.871   0.765   8.422
19225WAT     H257918   3.719   0.776   8.363
19226WAT      O57919   6.047   8.818   9.417
19226WAT     H157920   5.978   8.872   9.370
19226WAT     H257921   6.044   8.836   9.515
19227WAT      O57922   2.771   3.870   9.713
19227WAT     H157923   2.736   3.917   9.632
19227WAT     H257924   2.714   3.892   9.792
19228WAT      O57925   4.697   8.457   7.572
19228WAT     H157926   4.747   8.530   7.525
19228WAT     H257927   4.638   8.496   7.642
19229WAT      O57928   3.738   3.720   2.414
19229WAT     H157929   3.829   3.724   2.455
19229WAT     H257930   3.695   3.810   2.422
19230WAT      O57931   2.835   3.990   0.203
19230WAT     H157932   2.920   3.949   0.170
19230WAT     H257933   2.800   3.936   0.280
19231WAT      O57934   9.198   3.394   7.039
19231WAT     H157935   9.275   3.453   7.015
19231WAT     H257936   9.210   3.360   7.132
19232WAT      O57937   3.986   9.788   0.930
19232WAT     H157938   4.010   9.870   0.878
19232WAT     H257939   3.906   9.744   0.889
19233WAT      O57940   7.764   6.940   8.760
19233WAT     H157941   7.842   6.990   8.798
19233WAT     H257942   7.767   6.845   8.792
19234WAT      O57943   2.301   7.333   1.628
19234WAT     H157944   2.382   7.294   1.584
19234WAT     H257945   2.306   7.433   1.623
19235WAT      O57946   2.730   9.415   5.877
19235WAT     H157947   2.655   9.473   5.846
19235WAT     H257948   2.732   9.331   5.823
19236WAT      O57949   5.412   8.072   0.939
19236WAT     H157950   5.393   8.153   0.883
19236WAT     H257951   5.509   8.049   0.933
19237WAT      O57952   6.467   6.383   8.475
19237WAT     H157953   6.434   6.401   8.383
19237WAT     H257954   6.567   6.376   8.474
19238WAT      O57955   1.429   4.119   7.945
19238WAT     H157956   1.523   4.088   7.927
19238WAT     H257957   1.367   4.040   7.940
19239WAT      O57958   3.213   9.059   5.570
19239WAT     H157959   3.275   9.010   5.632
19239WAT     H257960   3.119   9.046   5.601
19240WAT      O57961   7.073   3.473   8.151
19240WAT     H157962   7.144   3.439   8.213
19240WAT     H257963   7.105   3.556   8.106
19241WAT      O57964   6.558   1.403   7.261
19241WAT     H157965   6.585   1.355   7.344
19241WAT     H257966   6.459   1.416   7.261
19242WAT      O57967   8.092   0.378   2.099
19242WAT     H157968   8.104   0.477   2.086
19242WAT     H257969   8.056   0.361   2.191
19243WAT      O57970   8.878   7.700   5.045
19243WAT     H157971   8.869   7.609   5.005
19243WAT     H257972   8.887   7.768   4.972
19244WAT      O57973   4.984   0.750   6.183
19244WAT     H157974   4.941   0.699   6.108
19244WAT     H257975   5.039   0.688   6.238
19245WAT      O57976   2.383   6.559   8.262
19245WAT     H157977   2.468   6.594   8.301
19245WAT     H257978   2.403   6.482   8.202
19246WAT      O57979   2.112   5.725   2.079
19246WAT     H157980   2.189   5.766   2.128
19246WAT     H257981   2.139   5.709   1.983
19247WAT      O57982   7.702   7.203   7.876
19247WAT     H157983   7.653   7.234   7.795
19247WAT     H257984   7.771   7.272   7.901
19248WAT      O57985   1.347   9.310   9.858
19248WAT     H157986   1.267   9.252   9.874
19248WAT     H257987   1.424   9.253   9.828
19249WAT      O57988   2.373   9.378   4.508
19249WAT     H157989   2.295   9.326   4.474
19249WAT     H257990   2.341   9.454   4.565
19250WAT      O57991   2.186   3.225   4.035
19250WAT     H157992   2.222   3.263   3.950
19250WAT     H257993   2.214   3.129   4.043
19251WAT      O57994   3.085   7.351   1.950
19251WAT     H157995   3.069   7.448   1.969
19251WAT     H257996   3.179   7.327   1.975
19252WAT      O57997   0.557   3.019   7.092
19252WAT     H157998   0.624   3.067   7.034
19252WAT     H257999   0.471   3.070   7.092
19253WAT      O58000   4.187   1.075   5.736
19253WAT     H158001   4.266   1.046   5.681
19253WAT     H258002   4.219   1.116   5.821
19254WAT      O58003   4.171   4.655   2.018
19254WAT     H158004   4.172   4.637   1.920
19254WAT     H258005   4.080   4.686   2.045
19255WAT      O58006   4.195   4.328   5.655
19255WAT     H158007   4.142   4.248   5.684
19255WAT     H258008   4.134   4.405   5.639
19256WAT      O58009   8.133   8.050   1.209
19256WAT     H158010   8.195   8.011   1.278
19256WAT     H258011   8.159   8.145   1.191
19257WAT      O58012   7.653   2.234   0.129
19257WAT     H158013   7.557   2.210   0.114
19257WAT     H258014   7.658   2.323   0.175
19258WAT      O58015   5.975   8.147   5.800
19258WAT     H158016   6.048   8.146   5.868
19258WAT     H258017   5.887   8.166   5.844
19259WAT      O58018   5.561   8.740   1.686
19259WAT     H158019   5.657   8.760   1.665
19259WAT     H258020   5.550   8.642   1.700
19260WAT      O58021   6.767   0.968   0.213
19260WAT     H158022   6.798   0.995   0.304
19260WAT     H258023   6.831   1.004   0.144
19261WAT      O58024   1.843   7.062   8.517
19261WAT     H158025   1.906   7.023   8.449
19261WAT     H258026   1.749   7.041   8.491
19262WAT      O58027   7.822   3.878   0.535
19262WAT     H158028   7.765   3.894   0.615
19262WAT     H258029   7.793   3.794   0.489
19263WAT      O58030   8.997   2.782   2.412
19263WAT     H158031   9.030   2.831   2.331
19263WAT     H258032   9.044   2.694   2.419
19264WAT      O58033   3.903   3.685   2.857
19264WAT     H158034   3.901   3.777   2.895
19264WAT     H258035   3.826   3.673   2.794
19265WAT      O58036   9.686   2.355   3.145
19265WAT     H158037   9.598   2.367   3.099
19265WAT     H258038   9.701   2.259   3.165
19266WAT      O58039   0.117   3.470   7.848
19266WAT     H158040   0.173   3.534   7.797
19266WAT     H258041   0.051   3.520   7.904
19267WAT      O58042   8.139   9.578   4.614
19267WAT     H158043   8.216   9.563   4.676
19267WAT     H258044   8.170   9.570   4.520
19268WAT      O58045   2.629   2.548   5.439
19268WAT     H158046   2.556   2.532   5.506
19268WAT     H258047   2.674   2.462   5.417
19269WAT      O58048   6.186   5.430   1.717
19269WAT     H158049   6.280   5.395   1.715
19269WAT     H258050   6.188   5.527   1.740
19270WAT      O58051   0.491   4.021   1.734
19270WAT     H158052   0.416   4.076   1.696
19270WAT     H258053   0.536   4.072   1.807
19271WAT      O58054   5.986   8.760   5.863
19271WAT     H158055   5.995   8.788   5.767
19271WAT     H258056   6.072   8.777   5.911
19272WAT      O58057   6.998   5.178   7.004
19272WAT     H158058   7.068   5.114   7.036
19272WAT     H258059   7.042   5.253   6.955
19273WAT      O58060   5.960   6.975   6.889
19273WAT     H158061   5.954   6.887   6.936
19273WAT     H258062   6.051   6.984   6.848
19274WAT      O58063   3.624   9.394   7.738
19274WAT     H158064   3.603   9.363   7.831
19274WAT     H258065   3.723   9.401   7.726
19275WAT      O58066   4.825   9.761   0.681
19275WAT     H158067   4.853   9.691   0.615
19275WAT     H258068   4.817   9.849   0.635
19276WAT      O58069   7.737   9.394   1.782
19276WAT     H158070   7.720   9.371   1.878
19276WAT     H258071   7.676   9.467   1.754
19277WAT      O58072   3.430   1.247   3.637
19277WAT     H158073   3.498   1.308   3.676
19277WAT     H258074   3.457   1.220   3.545
19278WAT      O58075   0.941   2.429   7.041
19278WAT     H158076   0.855   2.380   7.056
19278WAT     H258077   1.016   2.379   7.083
19279WAT      O58078   6.435   6.890   3.430
19279WAT     H158079   6.445   6.799   3.471
19279WAT     H258080   6.482   6.958   3.486
19280WAT      O58081   2.899   5.301   7.427
19280WAT     H158082   2.862   5.265   7.513
19280WAT     H258083   2.871   5.242   7.352
19281WAT      O58084   7.156   5.121   8.809
19281WAT     H158085   7.215   5.040   8.808
19281WAT     H258086   7.095   5.117   8.888
19282WAT      O58087   1.981   1.098   4.016
19282WAT     H158088   2.034   1.178   3.989
19282WAT     H258089   1.928   1.065   3.937
19283WAT      O58090   5.157   2.794   0.955
19283WAT     H158091   5.231   2.860   0.962
19283WAT     H258092   5.141   2.772   0.859
19284WAT      O58093   9.787   9.262   9.308
19284WAT     H158094   9.693   9.280   9.278
19284WAT     H258095   9.842   9.346   9.298
19285WAT      O58096   4.720   4.857   8.129
19285WAT     H158097   4.792   4.862   8.059
19285WAT     H258098   4.750   4.798   8.204
19286WAT      O58099   0.126   1.511   4.365
19286WAT     H158100   0.125   1.434   4.429
19286WAT     H258101   0.112   1.596   4.415
19287WAT      O58102   4.206   9.772   8.274
19287WAT     H158103   4.167   9.863   8.261
19287WAT     H258104   4.275   9.776   8.346
19288WAT      O58105   6.396   4.610   1.885
19288WAT     H158106   6.297   4.607   1.880
19288WAT     H258107   6.433   4.650   1.801
19289WAT      O58108   7.389   5.028   5.356
19289WAT     H158109   7.405   4.936   5.321
19289WAT     H258110   7.407   5.095   5.283
19290WAT      O58111   5.186   1.991   7.270
19290WAT     H158112   5.234   2.076   7.251
19290WAT     H258113   5.194   1.970   7.368
19291WAT      O58114   8.634   1.522   5.538
19291WAT     H158115   8.562   1.535   5.606
19291WAT     H258116   8.593   1.497   5.450
19292WAT      O58117   8.319   0.304   2.361
19292WAT     H158118   8.340   0.353   2.446
19292WAT     H258119   8.266   0.363   2.300
19293WAT      O58120   3.577   6.855   9.466
19293WAT     H158121   3.554   6.763   9.431
19293WAT     H258122   3.661   6.886   9.423
19294WAT      O58123   0.280   5.284   0.233
19294WAT     H158124   0.305   5.370   0.188
19294WAT     H258125   0.243   5.303   0.323
19295WAT      O58126   6.298   3.236   4.121
19295WAT     H158127   6.338   3.322   4.091
19295WAT     H258128   6.365   3.162   4.112
19296WAT      O58129   3.346   3.364   2.877
19296WAT     H158130   3.293   3.398   2.799
19296WAT     H258131   3.419   3.428   2.898
19297WAT      O58132   1.357   6.239   2.948
19297WAT     H158133   1.267   6.206   2.920
19297WAT     H258134   1.355   6.261   3.046
19298WAT      O58135   6.174   4.590   2.662
19298WAT     H158136   6.209   4.673   2.619
19298WAT     H258137   6.250   4.538   2.702
19299WAT      O58138   8.895   9.360   8.114
19299WAT     H158139   8.869   9.344   8.019
19299WAT     H258140   8.989   9.331   8.129
19300WAT      O58141   3.886   1.224   2.880
19300WAT     H158142   3.857   1.215   2.785
19300WAT     H258143   3.934   1.141   2.909
19301WAT      O58144   7.943   3.411   8.295
19301WAT     H158145   7.998   3.470   8.354
19301WAT     H258146   7.847   3.412   8.325
19302WAT      O58147   8.407   1.887   9.089
19302WAT     H158148   8.384   1.791   9.102
19302WAT     H258149   8.326   1.943   9.104
19303WAT      O58150   9.657   2.402   8.251
19303WAT     H158151   9.578   2.352   8.287
19303WAT     H258152   9.696   2.351   8.174
19304WAT      O58153   4.874   3.257   8.087
19304WAT     H158154   4.947   3.198   8.120
19304WAT     H258155   4.909   3.349   8.072
19305WAT      O58156   4.317   0.220   1.417
19305WAT     H158157   4.351   0.267   1.498
19305WAT     H258158   4.373   0.244   1.338
19306WAT      O58159   0.445   8.670   5.420
19306WAT     H158160   0.398   8.702   5.337
19306WAT     H258161   0.479   8.749   5.471
19307WAT      O58162   5.674   7.636   4.072
19307WAT     H158163   5.726   7.698   4.013
19307WAT     H258164   5.581   7.670   4.083
19308WAT      O58165   0.920   9.218   0.298
19308WAT     H158166   0.969   9.265   0.226
19308WAT     H258167   0.966   9.234   0.386
19309WAT      O58168   0.179   5.986   2.393
19309WAT     H158169   0.083   6.012   2.387
19309WAT     H258170   0.231   6.060   2.435
19310WAT      O58171   7.356   4.912   6.390
19310WAT     H158172   7.342   4.932   6.487
19310WAT     H258173   7.398   4.822   6.381
19311WAT      O58174   7.732   7.469   2.230
19311WAT     H158175   7.810   7.469   2.292
19311WAT     H258176   7.724   7.380   2.186
19312WAT      O58177   4.354   2.159   3.336
19312WAT     H158178   4.378   2.091   3.267
19312WAT     H258179   4.397   2.246   3.314
19313WAT      O58180   5.256   7.213   2.124
19313WAT     H158181   5.297   7.128   2.157
19313WAT     H258182   5.327   7.269   2.080
19314WAT      O58183   5.762   3.915   6.867
19314WAT     H158184   5.732   3.963   6.950
19314WAT     H258185   5.711   3.831   6.856
19315WAT      O58186   4.573   8.800   4.484
19315WAT     H158187   4.584   8.702   4.464
19315WAT     H258188   4.545   8.810   4.580
19316WAT      O58189   8.003   8.932   0.789
19316WAT     H158190   8.036   8.925   0.883
19316WAT     H258191   8.010   9.027   0.758
19317WAT      O58192   3.040   0.994   7.937
19317WAT     H158193   3.101   0.920   7.965
19317WAT     H258194   3.077   1.039   7.856
19318WAT      O58195   4.041   8.444   5.446
19318WAT     H158196   4.111   8.374   5.455
19318WAT     H258197   4.003   8.442   5.354
19319WAT      O58198   7.783   6.326   0.525
19319WAT     H158199   7.702   6.385   0.525
19319WAT     H258200   7.841   6.349   0.603
19320WAT      O58201   7.066   9.100   8.492
19320WAT     H158202   7.074   9.071   8.587
19320WAT     H258203   7.154   9.087   8.446
19321WAT      O58204   2.670   6.755   5.484
19321WAT     H158205   2.758   6.768   5.439
19321WAT     H258206   2.616   6.688   5.433
19322WAT      O58207   5.574   8.934   0.652
19322WAT     H158208   5.571   8.903   0.557
19322WAT     H258209   5.520   9.018   0.662
19323WAT      O58210   6.074   4.451   6.206
19323WAT     H158211   5.974   4.456   6.216
19323WAT     H258212   6.108   4.538   6.169
19324WAT      O58213   9.631   6.282   3.200
19324WAT     H158214   9.660   6.216   3.132
19324WAT     H258215   9.704   6.349   3.215
19325WAT      O58216   2.767   3.394   1.561
19325WAT     H158217   2.839   3.349   1.613
19325WAT     H258218   2.758   3.489   1.593
19326WAT      O58219   4.126   5.539   0.878
19326WAT     H158220   4.079   5.616   0.921
19326WAT     H258221   4.064   5.460   0.875
19327WAT      O58222   7.227   6.677   9.634
19327WAT     H158223   7.269   6.695   9.545
19327WAT     H258224   7.166   6.598   9.627
19328WAT      O58225   7.614   0.871   4.593
19328WAT     H158226   7.555   0.791   4.607
19328WAT     H258227   7.577   0.927   4.519
19329WAT      O58228   8.167   4.478   5.324
19329WAT     H158229   8.128   4.499   5.234
19329WAT     H258230   8.116   4.403   5.366
19330WAT      O58231   6.860   1.016   2.996
19330WAT     H158232   6.899   1.097   3.039
19330WAT     H258233   6.856   1.029   2.897
19331WAT      O58234   6.458   4.443   2.067
19331WAT     H158235   6.427   4.511   2.000
19331WAT     H258236   6.558   4.443   2.069
19332WAT      O58237   0.677   3.190   6.920
19332WAT     H158238   0.605   3.259   6.926
19332WAT     H258239   0.678   3.150   6.828
19333WAT      O58240   7.137   9.109   4.679
19333WAT     H158241   7.168   9.204   4.686
19333WAT     H258242   7.139   9.067   4.770
19334WAT      O58243   2.859   5.647   3.772
19334WAT     H158244   2.786   5.713   3.793
19334WAT     H258245   2.932   5.657   3.839
19335WAT      O58246   3.023   5.139   5.535
19335WAT     H158247   3.086   5.211   5.567
19335WAT     H258248   2.929   5.169   5.549
19336WAT      O58249   2.087   1.041   6.520
19336WAT     H158250   2.127   0.976   6.585
19336WAT     H258251   2.126   1.131   6.535
19337WAT      O58252   2.311   3.718   3.694
19337WAT     H158253   2.376   3.689   3.764
19337WAT     H258254   2.229   3.661   3.699
19338WAT      O58255   4.404   6.623   8.179
19338WAT     H158256   4.478   6.565   8.145
19338WAT     H258257   4.422   6.650   8.273
19339WAT      O58258   8.253   8.825   1.323
19339WAT     H158259   8.257   8.762   1.245
19339WAT     H258260   8.209   8.779   1.400
19340WAT      O58261   0.118   9.812   3.366
19340WAT     H158262   0.073   9.733   3.325
19340WAT     H258263   0.213   9.790   3.387
19341WAT      O58264   9.440   9.475   5.539
19341WAT     H158265   9.522   9.418   5.537
19341WAT     H258266   9.388   9.462   5.454
19342WAT      O58267   4.925   5.268   2.887
19342WAT     H158268   4.988   5.345   2.884
19342WAT     H258269   4.963   5.191   2.835
19343WAT      O58270   0.534   0.625   2.137
19343WAT     H158271   0.459   0.560   2.134
19343WAT     H258272   0.621   0.576   2.135
19344WAT      O58273   1.315   3.157   0.134
19344WAT     H158274   1.305   3.084   0.202
19344WAT     H258275   1.412   3.171   0.115
19345WAT      O58276   7.859   2.740   7.263
19345WAT     H158277   7.949   2.782   7.252
19345WAT     H258278   7.869   2.653   7.312
19346WAT      O58279   2.337   1.622   8.645
19346WAT     H158280   2.398   1.644   8.721
19346WAT     H258281   2.390   1.625   8.559
19347WAT      O58282   8.057   1.070   5.354
19347WAT     H158283   8.012   0.982   5.369
19347WAT     H258284   8.002   1.125   5.291
19348WAT      O58285   9.763   6.605   7.814
19348WAT     H158286   9.793   6.700   7.814
19348WAT     H258287   9.788   6.561   7.901
19349WAT      O58288   7.752   2.941   4.676
19349WAT     H158289   7.787   2.908   4.763
19349WAT     H258290   7.664   2.899   4.657
19350WAT      O58291   6.809   8.911   8.844
19350WAT     H158292   6.842   8.946   8.932
19350WAT     H258293   6.788   8.814   8.853
19351WAT      O58294   4.478   1.278   3.719
19351WAT     H158295   4.494   1.185   3.754
19351WAT     H258296   4.491   1.279   3.620
19352WAT      O58297   4.736   3.931   9.724
19352WAT     H158298   4.701   3.892   9.638
19352WAT     H258299   4.836   3.937   9.720
19353WAT      O58300   8.841   4.001   1.985
19353WAT     H158301   8.845   3.904   1.964
19353WAT     H258302   8.858   4.054   1.901
19354WAT      O58303   2.933   9.044   1.050
19354WAT     H158304   3.029   9.028   1.028
19354WAT     H258305   2.900   8.971   1.109
19355WAT      O58306   7.366   4.780   5.218
19355WAT     H158307   7.442   4.716   5.204
19355WAT     H258308   7.332   4.811   5.129
19356WAT      O58309   0.315   2.211   1.341
19356WAT     H158310   0.268   2.237   1.426
19356WAT     H258311   0.265   2.246   1.263
19357WAT      O58312   8.878   9.074   2.045
19357WAT     H158313   8.803   9.038   2.100
19357WAT     H258314   8.893   9.170   2.068
19358WAT      O58315   4.883   6.032   5.062
19358WAT     H158316   4.839   5.994   5.143
19358WAT     H258317   4.968   5.982   5.043
19359WAT      O58318   6.932   4.163   1.997
19359WAT     H158319   6.857   4.213   2.041
19359WAT     H258320   6.894   4.093   1.936
19360WAT      O58321   0.808   6.883   6.475
19360WAT     H158322   0.864   6.815   6.523
19360WAT     H258323   0.851   6.905   6.387
19361WAT      O58324   4.671   5.269   5.629
19361WAT     H158325   4.583   5.269   5.676
19361WAT     H258326   4.742   5.236   5.692
19362WAT      O58327   7.305   0.814   3.433
19362WAT     H158328   7.340   0.900   3.471
19362WAT     H258329   7.346   0.798   3.343
19363WAT      O58330   4.331   5.898   4.701
19363WAT     H158331   4.234   5.876   4.711
19363WAT     H258332   4.364   5.939   4.786
19364WAT      O58333   8.166   7.579   8.417
19364WAT     H158334   8.217   7.558   8.334
19364WAT     H258335   8.155   7.495   8.470
19365WAT      O58336   6.121   3.325   8.273
19365WAT     H158337   6.126   3.225   8.275
19365WAT     H258338   6.079   3.354   8.187
19366WAT      O58339   6.641   7.281   8.183
19366WAT     H158340   6.674   7.203   8.237
19366WAT     H258341   6.552   7.310   8.219
19367WAT      O58342   4.784   8.123   0.103
19367WAT     H158343   4.736   8.153   0.020
19367WAT     H258344   4.800   8.025   0.099
19368WAT      O58345   9.654   9.813   8.615
19368WAT     H158346   9.673   9.723   8.654
19368WAT     H258347   9.611   9.803   8.525
19369WAT      O58348   8.999   0.050   3.060
19369WAT     H158349   8.996  -0.050   3.050
19369WAT     H258350   8.911   0.088   3.033
19370WAT      O58351   4.167   0.319   9.158
19370WAT     H158352   4.108   0.291   9.234
19370WAT     H258353   4.169   0.248   9.088
19371WAT      O58354   9.652   7.370   1.107
19371WAT     H158355   9.622   7.443   1.046
19371WAT     H258356   9.751   7.378   1.121
19372WAT      O58357   8.958   3.047   5.421
19372WAT     H158358   8.937   3.089   5.509
19372WAT     H258359   9.042   3.087   5.384
19373WAT      O58360   3.096   9.148   0.714
19373WAT     H158361   3.081   9.192   0.625
19373WAT     H258362   3.192   9.156   0.739
19374WAT      O58363   2.032   4.985   8.836
19374WAT     H158364   2.094   4.920   8.791
19374WAT     H258365   1.942   4.942   8.848
19375WAT      O58366   0.846   5.509   8.136
19375WAT     H158367   0.824   5.429   8.081
19375WAT     H258368   0.890   5.480   8.221
19376WAT      O58369   0.135   5.337   8.226
19376WAT     H158370   0.045   5.294   8.219
19376WAT     H258371   0.196   5.299   8.156
19377WAT      O58372   6.750   1.356   1.874
19377WAT     H158373   6.779   1.375   1.968
19377WAT     H258374   6.826   1.317   1.823
19378WAT      O58375   2.112   0.872   4.665
19378WAT     H158376   2.039   0.818   4.622
19378WAT     H258377   2.089   0.969   4.657
19379WAT      O58378   5.401   0.856   6.544
19379WAT     H158379   5.419   0.763   6.577
19379WAT     H258380   5.461   0.920   6.591
19380WAT      O58381   3.278   2.909   9.403
19380WAT     H158382   3.342   2.934   9.475
19380WAT     H258383   3.221   2.833   9.433
19381WAT      O58384   4.141   3.099   2.318
19381WAT     H158385   4.084   3.038   2.373
19381WAT     H258386   4.099   3.110   2.227
19382WAT      O58387   5.498   8.105   4.353
19382WAT     H158388   5.429   8.177   4.344
19382WAT     H258389   5.535   8.083   4.263
19383WAT      O58390   1.862   3.584   4.558
19383WAT     H158391   1.879   3.559   4.463
19383WAT     H258392   1.904   3.672   4.577
19384WAT      O58393   9.331   0.891   7.166
19384WAT     H158394   9.391   0.865   7.091
19384WAT     H258395   9.382   0.889   7.252
19385WAT      O58396   4.894   2.036   0.713
19385WAT     H158397   4.987   2.008   0.693
19385WAT     H258398   4.874   2.022   0.810
19386WAT      O58399   6.354   0.627   3.703
19386WAT     H158400   6.268   0.672   3.729
19386WAT     H258401   6.342   0.581   3.615
19387WAT      O58402   4.705   1.657   3.298
19387WAT     H158403   4.693   1.606   3.383
19387WAT     H258404   4.663   1.747   3.308
19388WAT      O58405   2.427   6.784   3.999
19388WAT     H158406   2.422   6.857   3.930
19388WAT     H258407   2.499   6.806   4.065
19389WAT      O58408   3.365   5.439   6.527
19389WAT     H158409   3.318   5.385   6.457
19389WAT     H258410   3.392   5.527   6.489
19390WAT      O58411   5.660   8.567   7.837
19390WAT     H158412   5.672   8.591   7.741
19390WAT     H258413   5.749   8.548   7.878
19391WAT      O58414   9.768   5.078   7.692
19391WAT     H158415   9.843   5.037   7.640
19391WAT     H258416   9.744   5.166   7.652
19392WAT      O58417   8.296   6.664   3.817
19392WAT     H158418   8.249   6.593   3.870
19392WAT     H258419   8.338   6.730   3.880
19393WAT      O58420   0.289   0.520   9.627
19393WAT     H158421   0.209   0.500   9.571
19393WAT     H258422   0.284   0.467   9.712
19394WAT      O58423   0.951   7.263   7.739
19394WAT     H158424   0.939   7.197   7.813
19394WAT     H258425   0.863   7.306   7.718
19395WAT      O58426   8.770   9.509   9.523
19395WAT     H158427   8.782   9.412   9.504
19395WAT     H258428   8.853   9.546   9.565
19396WAT      O58429   3.920   7.075   7.121
19396WAT     H158430   4.010   7.056   7.082
19396WAT     H258431   3.916   7.037   7.214
19397WAT      O58432   0.094   8.210   6.401
19397WAT     H158433   0.054   8.285   6.453
19397WAT     H258434   0.073   8.223   6.304
19398WAT      O58435   1.870   7.384   0.733
19398WAT     H158436   1.781   7.409   0.694
19398WAT     H258437   1.864   7.292   0.771
19399WAT      O58438   5.158   1.991   4.104
19399WAT     H158439   5.208   2.073   4.133
19399WAT     H258440   5.062   2.013   4.092
19400WAT      O58441   0.841   6.967   5.180
19400WAT     H158442   0.748   6.940   5.206
19400WAT     H258443   0.907   6.907   5.223
19401WAT      O58444   0.953   2.786   6.911
19401WAT     H158445   0.898   2.766   6.992
19401WAT     H258446   0.996   2.701   6.879
19402WAT      O58447   2.015   4.038   3.699
19402WAT     H158448   2.114   4.036   3.712
19402WAT     H258449   1.983   3.950   3.664
19403WAT      O58450   1.726   5.807   6.738
19403WAT     H158451   1.744   5.717   6.698
19403WAT     H258452   1.628   5.826   6.733
19404WAT      O58453   7.714   3.719   7.254
19404WAT     H158454   7.712   3.810   7.213
19404WAT     H258455   7.784   3.716   7.325
19405WAT      O58456   5.658   5.524   6.210
19405WAT     H158457   5.581   5.498   6.152
19405WAT     H258458   5.702   5.605   6.172
19406WAT      O58459   5.117   6.491   9.472
19406WAT     H158460   5.160   6.487   9.562
19406WAT     H258461   5.106   6.398   9.437
19407WAT      O58462   9.443   2.673   6.206
19407WAT     H158463   9.481   2.644   6.119
19407WAT     H258464   9.503   2.740   6.248
19408WAT      O58465   2.143   1.313   6.524
19408WAT     H158466   2.051   1.346   6.548
19408WAT     H258467   2.190   1.382   6.468
19409WAT      O58468   0.345   7.678   8.099
19409WAT     H158469   0.411   7.610   8.130
19409WAT     H258470   0.369   7.768   8.137
19410WAT      O58471   4.832   5.451   8.426
19410WAT     H158472   4.800   5.390   8.354
19410WAT     H258473   4.763   5.457   8.498
19411WAT      O58474   4.785   1.418   7.828
19411WAT     H158475   4.712   1.486   7.833
19411WAT     H258476   4.748   1.333   7.789
19412WAT      O58477   6.785   1.877   6.312
19412WAT     H158478   6.708   1.917   6.262
19412WAT     H258479   6.837   1.817   6.251
19413WAT      O58480   8.219   3.122   4.590
19413WAT     H158481   8.213   3.162   4.498
19413WAT     H258482   8.315   3.114   4.616
19414WAT      O58483   8.049   7.680   1.255
19414WAT     H158484   7.978   7.611   1.245
19414WAT     H258485   8.008   7.769   1.269
19415WAT      O58486   7.138   2.495   5.709
19415WAT     H158487   7.110   2.476   5.615
19415WAT     H258488   7.058   2.516   5.765
19416WAT      O58489   4.793   2.890   2.255
19416WAT     H158490   4.753   2.850   2.337
19416WAT     H258491   4.885   2.925   2.276
19417WAT      O58492   1.372   5.965   3.976
19417WAT     H158493   1.438   5.892   3.961
19417WAT     H258494   1.331   5.955   4.067
19418WAT      O58495   8.282   0.532   5.848
19418WAT     H158496   8.298   0.605   5.781
19418WAT     H258497   8.356   0.465   5.843
19419WAT      O58498   2.296   6.285   4.045
19419WAT     H158499   2.281   6.383   4.031
19419WAT     H258500   2.367   6.253   3.982
19420WAT      O58501   1.145   1.899   7.048
19420WAT     H158502   1.228   1.951   7.029
19420WAT     H258503   1.168   1.801   7.053
19421WAT      O58504   0.281   5.178   3.839
19421WAT     H158505   0.216   5.232   3.787
19421WAT     H258506   0.374   5.208   3.817
19422WAT      O58507   2.482   0.506   7.178
19422WAT     H158508   2.560   0.474   7.232
19422WAT     H258509   2.463   0.440   7.105
19423WAT      O58510   6.939   8.338   9.857
19423WAT     H158511   6.929   8.344   9.956
19423WAT     H258512   6.963   8.244   9.831
19424WAT      O58513   9.239   5.591   6.702
19424WAT     H158514   9.307   5.518   6.691
19424WAT     H258515   9.148   5.555   6.684
19425WAT      O58516   0.580   3.247   2.794
19425WAT     H158517   0.547   3.237   2.888
19425WAT     H258518   0.562   3.340   2.762
19426WAT      O58519   3.865   9.527   3.501
19426WAT     H158520   3.826   9.571   3.582
19426WAT     H258521   3.960   9.501   3.520
19427WAT      O58522   1.620   2.241   6.271
19427WAT     H158523   1.640   2.173   6.201
19427WAT     H258524   1.524   2.232   6.299
19428WAT      O58525   3.582   3.347   4.307
19428WAT     H158526   3.560   3.394   4.221
19428WAT     H258527   3.653   3.279   4.290
19429WAT      O58528   2.950   2.508   5.830
19429WAT     H158529   2.952   2.473   5.924
19429WAT     H258530   3.022   2.464   5.776
19430WAT      O58531   4.650   8.739   2.050
19430WAT     H158532   4.708   8.723   1.970
19430WAT     H258533   4.602   8.826   2.041
19431WAT      O58534   9.089   3.492   3.990
19431WAT     H158535   9.102   3.457   4.083
19431WAT     H258536   9.176   3.488   3.941
19432WAT      O58537   5.686   0.185   4.971
19432WAT     H158538   5.657   0.100   5.015
19432WAT     H258539   5.785   0.181   4.954
19433WAT      O58540   0.524   3.961   0.020
19433WAT     H158541   0.552   4.021  -0.055
19433WAT     H258542   0.530   4.011   0.107
19434WAT      O58543   6.422   2.583   7.395
19434WAT     H158544   6.448   2.671   7.434
19434WAT     H258545   6.339   2.595   7.341
19435WAT      O58546   2.756   8.086   6.900
19435WAT     H158547   2.693   8.147   6.946
19435WAT     H258548   2.707   8.034   6.830
19436WAT      O58549   5.795   4.312   6.502
19436WAT     H158550   5.746   4.234   6.462
19436WAT     H258551   5.730   4.386   6.520
19437WAT      O58552   0.380   2.037   1.886
19437WAT     H158553   0.435   1.955   1.900
19437WAT     H258554   0.343   2.036   1.793
19438WAT      O58555   4.872   9.480   6.351
19438WAT     H158556   4.867   9.451   6.255
19438WAT     H258557   4.945   9.547   6.361
19439WAT      O58558   3.872   1.478   5.112
19439WAT     H158559   3.894   1.560   5.059
19439WAT     H258560   3.957   1.437   5.146
19440WAT      O58561   0.674   7.781   2.123
19440WAT     H158562   0.624   7.807   2.040
19440WAT     H258563   0.619   7.802   2.203
19441WAT      O58564   7.455   0.070   3.884
19441WAT     H158565   7.517   0.049   3.960
19441WAT     H258566   7.452  -0.007   3.821
19442WAT      O58567   0.819   0.169   0.469
19442WAT     H158568   0.907   0.178   0.516
19442WAT     H258569   0.826   0.209   0.378
19443WAT      O58570   2.988   4.494   9.801
19443WAT     H158571   3.086   4.513   9.806
19443WAT     H258572   2.974   4.401   9.766
19444WAT      O58573   3.544   6.536   2.883
19444WAT     H158574   3.637   6.499   2.877
19444WAT     H258575   3.480   6.471   2.843
19445WAT      O58576   4.177   2.295   9.889
19445WAT     H158577   4.270   2.258   9.894
19445WAT     H258578   4.147   2.299   9.794
19446WAT      O58579   1.147   1.878   3.462
19446WAT     H158580   1.189   1.862   3.372
19446WAT     H258581   1.063   1.931   3.451
19447WAT      O58582   2.365   3.967   6.748
19447WAT     H158583   2.407   3.990   6.836
19447WAT     H258584   2.335   4.052   6.703
19448WAT      O58585   4.209   8.217   5.795
19448WAT     H158586   4.306   8.211   5.770
19448WAT     H258587   4.154   8.168   5.727
19449WAT      O58588   3.284   7.578   2.466
19449WAT     H158589   3.225   7.649   2.428
19449WAT     H258590   3.229   7.509   2.512
19450WAT      O58591   9.699   2.955   2.122
19450WAT     H158592   9.699   2.868   2.171
19450WAT     H258593   9.674   2.941   2.027
19451WAT      O58594   6.101   2.166   3.182
19451WAT     H158595   6.092   2.230   3.105
19451WAT     H258596   6.123   2.217   3.265
19452WAT      O58597   0.986   6.922   3.691
19452WAT     H158598   0.922   6.999   3.688
19452WAT     H258599   0.962   6.861   3.767
19453WAT      O58600   5.481   3.440   5.522
19453WAT     H158601   5.492   3.382   5.441
19453WAT     H258602   5.384   3.460   5.536
19454WAT      O58603   1.212   6.657   5.417
19454WAT     H158604   1.202   6.754   5.443
19454WAT     H258605   1.295   6.646   5.363
19455WAT      O58606   7.404   2.877   5.194
19455WAT     H158607   7.397   2.799   5.132
19455WAT     H258608   7.350   2.953   5.158
19456WAT      O58609   5.483   0.499   9.613
19456WAT     H158610   5.564   0.545   9.649
19456WAT     H258611   5.433   0.455   9.688
19457WAT      O58612   7.652   1.171   6.474
19457WAT     H158613   7.586   1.243   6.496
19457WAT     H258614   7.624   1.086   6.519
19458WAT      O58615   6.597   7.956   0.984
19458WAT     H158616   6.680   8.003   0.954
19458WAT     H258617   6.621   7.884   1.049
19459WAT      O58618   0.263   8.514   4.118
19459WAT     H158619   0.281   8.612   4.109
19459WAT     H258620   0.212   8.482   4.038
19460WAT      O58621   6.260   2.936   4.343
19460WAT     H158622   6.211   2.935   4.430
19460WAT     H258623   6.353   2.903   4.357
19461WAT      O58624   0.105   8.718   3.828
19461WAT     H158625   0.145   8.669   3.751
19461WAT     H258626   0.143   8.810   3.833
19462WAT      O58627   2.399   7.948   1.293
19462WAT     H158628   2.377   7.891   1.214
19462WAT     H258629   2.337   8.026   1.296
19463WAT      O58630   3.795   4.524   7.897
19463WAT     H158631   3.755   4.524   7.805
19463WAT     H258632   3.819   4.431   7.922
19464WAT      O58633   0.435   6.806   3.325
19464WAT     H158634   0.365   6.791   3.395
19464WAT     H258635   0.523   6.771   3.358
19465WAT      O58636   3.826   1.007   1.000
19465WAT     H158637   3.880   1.086   0.972
19465WAT     H258638   3.846   0.986   1.096
19466WAT      O58639   7.622   0.038   6.092
19466WAT     H158640   7.646   0.058   6.186
19466WAT     H258641   7.705   0.023   6.038
19467WAT      O58642   4.745   6.659   3.806
19467WAT     H158643   4.748   6.579   3.866
19467WAT     H258644   4.839   6.688   3.786
19468WAT      O58645   8.068   0.314   1.809
19468WAT     H158646   8.104   0.346   1.721
19468WAT     H258647   8.140   0.318   1.878
19469WAT      O58648   8.153   6.192   6.388
19469WAT     H158649   8.188   6.286   6.380
19469WAT     H258650   8.055   6.192   6.369
19470WAT      O58651   3.754   5.213   9.135
19470WAT     H158652   3.739   5.285   9.068
19470WAT     H258653   3.675   5.207   9.196
19471WAT      O58654   9.278   4.354   7.337
19471WAT     H158655   9.320   4.269   7.369
19471WAT     H258656   9.291   4.362   7.238
19472WAT      O58657   3.393   5.026   8.878
19472WAT     H158658   3.386   5.103   8.942
19472WAT     H258659   3.321   4.959   8.899
19473WAT      O58660   3.365   4.240   6.704
19473WAT     H158661   3.307   4.302   6.756
19473WAT     H258662   3.457   4.240   6.743
19474WAT      O58663   4.400   0.926   7.082
19474WAT     H158664   4.460   0.986   7.030
19474WAT     H258665   4.324   0.896   7.025
19475WAT      O58666   4.842   9.424   6.075
19475WAT     H158667   4.898   9.408   5.994
19475WAT     H258668   4.777   9.348   6.085
19476WAT      O58669   6.518   1.989   1.432
19476WAT     H158670   6.534   2.019   1.338
19476WAT     H258671   6.487   2.067   1.487
19477WAT      O58672   1.513   4.381   2.034
19477WAT     H158673   1.592   4.381   2.094
19477WAT     H258674   1.431   4.355   2.086
19478WAT      O58675   2.825   3.494   0.963
19478WAT     H158676   2.726   3.486   0.977
19478WAT     H258677   2.851   3.448   0.878
19479WAT      O58678   7.764   5.200   1.318
19479WAT     H158679   7.861   5.218   1.305
19479WAT     H258680   7.725   5.164   1.233
19480WAT      O58681   0.252   2.719   5.196
19480WAT     H158682   0.270   2.798   5.138
19480WAT     H258683   0.170   2.737   5.252
19481WAT      O58684   6.029   6.006   9.419
19481WAT     H158685   6.127   5.992   9.418
19481WAT     H258686   5.985   5.930   9.467
19482WAT      O58687   7.376   9.599   3.354
19482WAT     H158688   7.424   9.687   3.360
19482WAT     H258689   7.326   9.582   3.439
19483WAT      O58690   3.667   0.455   9.581
19483WAT     H158691   3.604   0.446   9.504
19483WAT     H258692   3.617   0.484   9.662
19484WAT      O58693   0.963   0.600   7.156
19484WAT     H158694   0.894   0.528   7.158
19484WAT     H258695   0.965   0.642   7.065
19485WAT      O58696   8.427   1.775   6.673
19485WAT     H158697   8.505   1.832   6.649
19485WAT     H258698   8.402   1.790   6.769
19486WAT      O58699   6.219   0.703   1.831
19486WAT     H158700   6.262   0.645   1.901
19486WAT     H258701   6.279   0.707   1.751
19487WAT      O58702   5.234   1.558   1.474
19487WAT     H158703   5.233   1.461   1.495
19487WAT     H258704   5.152   1.582   1.422
19488WAT      O58705   0.573   8.100   8.835
19488WAT     H158706   0.632   8.039   8.782
19488WAT     H258707   0.593   8.088   8.932
19489WAT      O58708   1.014   4.986   4.368
19489WAT     H158709   1.012   5.080   4.335
19489WAT     H258710   1.040   4.985   4.465
19490WAT      O58711   5.924   7.980   8.569
19490WAT     H158712   5.918   7.979   8.669
19490WAT     H258713   5.842   7.938   8.530
19491WAT      O58714   2.392   1.599   9.537
19491WAT     H158715   2.347   1.617   9.450
19491WAT     H258716   2.343   1.527   9.585
19492WAT      O58717   1.717   4.091   4.226
19492WAT     H158718   1.782   4.016   4.229
19492WAT     H258719   1.711   4.133   4.317
19493WAT      O58720   1.445   4.984   1.999
19493WAT     H158721   1.476   4.896   2.034
19493WAT     H258722   1.491   5.058   2.048
19494WAT      O58723   6.783   7.647   6.436
19494WAT     H158724   6.736   7.655   6.348
19494WAT     H258725   6.716   7.652   6.510
19495WAT      O58726   9.253   9.479   8.022
19495WAT     H158727   9.281   9.470   7.927
19495WAT     H258728   9.236   9.575   8.043
19496WAT      O58729   8.539   2.258   9.456
19496WAT     H158730   8.571   2.272   9.363
19496WAT     H258731   8.531   2.160   9.475
19497WAT      O58732   4.789   2.155   9.539
19497WAT     H158733   4.870   2.190   9.586
19497WAT     H258734   4.750   2.227   9.482
19498WAT      O58735   6.069   5.612   5.433
19498WAT     H158736   6.027   5.558   5.506
19498WAT     H258737   6.164   5.584   5.422
19499WAT      O58738   7.654   7.425   9.849
19499WAT     H158739   7.750   7.450   9.859
19499WAT     H258740   7.614   7.477   9.773
19500WAT      O58741   3.249   3.653   9.830
19500WAT     H158742   3.165   3.687   9.788
19500WAT     H258743   3.327   3.704   9.793
19501WAT      O58744   8.479   3.261   8.246
19501WAT     H158745   8.478   3.333   8.176
19501WAT     H258746   8.556   3.200   8.231
19502WAT      O58747   6.060   7.689   9.256
19502WAT     H158748   6.087   7.593   9.249
19502WAT     H258749   5.968   7.700   9.217
19503WAT      O58750   9.554   2.488   7.060
19503WAT     H158751   9.650   2.515   7.055
19503WAT     H258752   9.527   2.444   6.974
19504WAT      O58753   9.057   5.766   2.742
19504WAT     H158754   9.035   5.736   2.835
19504WAT     H258755   9.153   5.794   2.738
19505WAT      O58756   1.180   2.028   5.940
19505WAT     H158757   1.095   2.036   5.887
19505WAT     H258758   1.177   2.092   6.017
19506WAT      O58759   2.004   8.821   3.761
19506WAT     H158760   2.048   8.883   3.696
19506WAT     H258761   1.993   8.868   3.848
19507WAT      O58762   6.908   5.531   8.738
19507WAT     H158763   6.876   5.442   8.705
19507WAT     H258764   6.860   5.555   8.822
19508WAT      O58765   6.441   8.844   9.587
19508WAT     H158766   6.482   8.933   9.607
19508WAT     H258767   6.413   8.801   9.673
19509WAT      O58768   5.233   0.762   5.172
19509WAT     H158769   5.231   0.854   5.133
19509WAT     H258770   5.316   0.749   5.226
19510WAT      O58771   7.269   3.206   3.023
19510WAT     H158772   7.211   3.191   2.943
19510WAT     H258773   7.287   3.304   3.034
19511WAT      O58774   9.734   0.460   1.804
19511WAT     H158775   9.662   0.507   1.854
19511WAT     H258776   9.813   0.446   1.864
19512WAT      O58777   9.283   5.805   1.667
19512WAT     H158778   9.327   5.776   1.582
19512WAT     H258779   9.296   5.736   1.737
19513WAT      O58780   0.093   8.902   9.572
19513WAT     H158781   0.090   8.809   9.536
19513WAT     H258782   0.115   8.966   9.498
19514WAT      O58783   4.299   8.567   6.249
19514WAT     H158784   4.377   8.577   6.187
19514WAT     H258785   4.287   8.652   6.301
19515WAT      O58786   1.425   6.755   8.400
19515WAT     H158787   1.345   6.751   8.341
19515WAT     H258788   1.399   6.730   8.493
19516WAT      O58789   0.248   4.336   9.254
19516WAT     H158790   0.224   4.430   9.229
19516WAT     H258791   0.309   4.337   9.334
19517WAT      O58792   7.170   8.642   1.606
19517WAT     H158793   7.225   8.670   1.527
19517WAT     H258794   7.075   8.628   1.577
19518WAT      O58795   7.802   5.116   3.969
19518WAT     H158796   7.785   5.146   4.062
19518WAT     H258797   7.792   5.016   3.964
19519WAT      O58798   6.966   7.579   0.501
19519WAT     H158799   7.022   7.498   0.482
19519WAT     H258800   6.951   7.587   0.599
19520WAT      O58801   3.404   3.393   6.154
19520WAT     H158802   3.309   3.363   6.145
19520WAT     H258803   3.410   3.492   6.143
19521WAT      O58804   1.072   6.303   5.338
19521WAT     H158805   1.014   6.383   5.342
19521WAT     H258806   1.093   6.272   5.431
19522WAT      O58807   0.916   6.863   1.360
19522WAT     H158808   0.906   6.860   1.260
19522WAT     H258809   0.982   6.933   1.385
19523WAT      O58810   1.333   7.605   3.496
19523WAT     H158811   1.293   7.585   3.406
19523WAT     H258812   1.265   7.585   3.567
19524WAT      O58813   9.528   9.040   8.587
19524WAT     H158814   9.464   8.995   8.525
19524WAT     H258815   9.618   9.046   8.543
19525WAT      O58816   7.978   3.600   7.102
19525WAT     H158817   7.953   3.606   7.198
19525WAT     H258818   8.070   3.638   7.089
19526WAT      O58819   7.620   7.389   3.024
19526WAT     H158820   7.592   7.477   3.062
19526WAT     H258821   7.666   7.404   2.936
19527WAT      O58822   4.875   3.458   3.472
19527WAT     H158823   4.899   3.505   3.386
19527WAT     H258824   4.778   3.473   3.492
19528WAT      O58825   6.664   6.435   4.270
19528WAT     H158826   6.576   6.396   4.295
19528WAT     H258827   6.664   6.533   4.291
19529WAT      O58828   2.100   7.633   0.071
19529WAT     H158829   2.157   7.559   0.106
19529WAT     H258830   2.144   7.721   0.092
19530WAT      O58831   1.002   8.414   8.699
19530WAT     H158832   1.075   8.483   8.693
19530WAT     H258833   1.043   8.327   8.725
19531WAT      O58834   0.608   1.401   9.320
19531WAT     H158835   0.586   1.416   9.416
19531WAT     H258836   0.532   1.351   9.277
19532WAT      O58837   1.037   7.377   6.764
19532WAT     H158838   1.063   7.340   6.675
19532WAT     H258839   1.053   7.309   6.835
19533WAT      O58840   2.932   1.131   9.251
19533WAT     H158841   2.946   1.037   9.281
19533WAT     H258842   2.997   1.191   9.298
19534WAT      O58843   1.921   3.763   3.717
19534WAT     H158844   1.896   3.679   3.764
19534WAT     H258845   1.867   3.773   3.633
19535WAT      O58846   1.461   5.347   7.637
19535WAT     H158847   1.432   5.418   7.573
19535WAT     H258848   1.451   5.380   7.730
19536WAT      O58849   0.592   8.772   6.476
19536WAT     H158850   0.553   8.709   6.543
19536WAT     H258851   0.686   8.795   6.503
19537WAT      O58852   5.322   0.659   9.434
19537WAT     H158853   5.223   0.654   9.447
19537WAT     H258854   5.366   0.588   9.489
19538WAT      O58855   3.639   9.416   4.558
19538WAT     H158856   3.679   9.507   4.571
19538WAT     H258857   3.694   9.348   4.605
19539WAT      O58858   2.025   7.282   9.153
19539WAT     H158859   2.092   7.287   9.227
19539WAT     H258860   2.060   7.224   9.080
19540WAT      O58861   0.018   9.300   9.665
19540WAT     H158862   0.070   9.246   9.731
19540WAT     H258863  -0.074   9.262   9.657
19541WAT      O58864   3.292   3.372   4.160
19541WAT     H158865   3.363   3.441   4.154
19541WAT     H258866   3.203   3.414   4.141
19542WAT      O58867   3.533   4.261   6.167
19542WAT     H158868   3.502   4.251   6.261
19542WAT     H258869   3.455   4.254   6.105
19543WAT      O58870   6.748   2.660   9.838
19543WAT     H158871   6.847   2.652   9.849
19543WAT     H258872   6.702   2.631   9.922
19544WAT      O58873   4.140   3.303   2.005
19544WAT     H158874   4.203   3.373   2.037
19544WAT     H258875   4.187   3.215   1.999
19545WAT      O58876   2.884   6.707   0.932
19545WAT     H158877   2.921   6.790   0.890
19545WAT     H258878   2.953   6.634   0.925
19546WAT      O58879   9.069   7.749   6.271
19546WAT     H158880   9.026   7.795   6.349
19546WAT     H258881   9.031   7.786   6.186
19547WAT      O58882   8.987   7.359   3.464
19547WAT     H158883   8.961   7.304   3.384
19547WAT     H258884   9.042   7.437   3.434
19548WAT      O58885   2.464   4.342   7.678
19548WAT     H158886   2.410   4.389   7.608
19548WAT     H258887   2.555   4.321   7.642
19549WAT      O58888   0.843   6.946   4.872
19549WAT     H158889   0.846   6.931   4.971
19549WAT     H258890   0.754   6.919   4.836
19550WAT      O58891   3.589   8.074   8.058
19550WAT     H158892   3.682   8.041   8.042
19550WAT     H258893   3.590   8.150   8.122
19551WAT      O58894   7.126   1.337   1.223
19551WAT     H158895   7.218   1.330   1.186
19551WAT     H258896   7.096   1.247   1.256
19552WAT      O58897   4.008   1.298   7.402
19552WAT     H158898   4.046   1.249   7.481
19552WAT     H258899   4.081   1.321   7.338
19553WAT      O58900   8.976   9.813   7.034
19553WAT     H158901   9.032   9.878   6.984
19553WAT     H258902   9.007   9.808   7.129
19554WAT      O58903   3.687   9.313   0.086
19554WAT     H158904   3.620   9.243   0.109
19554WAT     H258905   3.765   9.306   0.148
19555WAT      O58906   3.395   7.897   1.272
19555WAT     H158907   3.327   7.963   1.304
19555WAT     H258908   3.348   7.817   1.235
19556WAT      O58909   6.732   3.837   2.058
19556WAT     H158910   6.695   3.928   2.079
19556WAT     H258911   6.707   3.812   1.964
19557WAT      O58912   4.673   1.146   0.474
19557WAT     H158913   4.750   1.091   0.441
19557WAT     H258914   4.587   1.101   0.452
19558WAT      O58915   4.185   3.803   1.564
19558WAT     H158916   4.152   3.728   1.507
19558WAT     H258917   4.217   3.767   1.652
19559WAT      O58918   4.959   9.288   3.436
19559WAT     H158919   4.903   9.212   3.404
19559WAT     H258920   5.048   9.254   3.467
19560WAT      O58921   5.167   4.816   5.265
19560WAT     H158922   5.072   4.801   5.290
19560WAT     H258923   5.182   4.913   5.246
19561WAT      O58924   6.502   6.304   7.052
19561WAT     H158925   6.466   6.284   7.143
19561WAT     H258926   6.461   6.389   7.017
19562WAT      O58927   2.731   8.960   0.608
19562WAT     H158928   2.757   8.906   0.528
19562WAT     H258929   2.807   8.965   0.672
19563WAT      O58930   1.626   1.219   5.260
19563WAT     H158931   1.660   1.140   5.209
19563WAT     H258932   1.527   1.226   5.250
19564WAT      O58933   9.336   2.452   1.377
19564WAT     H158934   9.327   2.428   1.474
19564WAT     H258935   9.433   2.456   1.353
19565WAT      O58936   7.453   2.518   5.359
19565WAT     H158937   7.494   2.602   5.324
19565WAT     H258938   7.506   2.439   5.328
19566WAT      O58939   8.850   9.135   4.419
19566WAT     H158940   8.793   9.078   4.478
19566WAT     H258941   8.802   9.154   4.334
19567WAT      O58942   9.255   0.046   1.312
19567WAT     H158943   9.259   0.145   1.327
19567WAT     H258944   9.234   0.000   1.398
19568WAT      O58945   7.902   2.242   1.682
19568WAT     H158946   7.843   2.226   1.761
19568WAT     H258947   7.938   2.155   1.649
19569WAT      O58948   2.359   9.745   6.492
19569WAT     H158949   2.269   9.780   6.518
19569WAT     H258950   2.352   9.648   6.469
19570WAT      O58951   0.215   3.482   9.118
19570WAT     H158952   0.224   3.575   9.081
19570WAT     H258953   0.262   3.477   9.206
19571WAT      O58954   6.488   6.433   5.886
19571WAT     H158955   6.486   6.526   5.850
19571WAT     H258956   6.448   6.371   5.819
19572WAT      O58957   1.763   7.226   5.784
19572WAT     H158958   1.820   7.278   5.721
19572WAT     H258959   1.819   7.191   5.859
19573WAT      O58960   4.622   2.838   8.665
19573WAT     H158961   4.706   2.891   8.662
19573WAT     H258962   4.557   2.882   8.727
19574WAT      O58963   5.537   3.094   1.523
19574WAT     H158964   5.589   3.115   1.606
19574WAT     H258965   5.459   3.035   1.546
19575WAT      O58966   7.371   5.239   2.461
19575WAT     H158967   7.344   5.313   2.399
19575WAT     H258968   7.303   5.231   2.535
19576WAT      O58969   3.997   9.773   1.192
19576WAT     H158970   3.904   9.776   1.229
19576WAT     H258971   3.994   9.776   1.092
19577WAT      O58972   9.767   1.769   1.395
19577WAT     H158973   9.827   1.847   1.379
19577WAT     H258974   9.817   1.698   1.445
19578WAT      O58975   2.007   0.472   3.694
19578WAT     H158976   2.023   0.513   3.604
19578WAT     H258977   2.086   0.491   3.753
19579WAT      O58978   4.903   4.565   2.192
19579WAT     H158979   4.854   4.627   2.251
19579WAT     H258980   4.992   4.543   2.232
19580WAT      O58981   0.960   3.062   9.603
19580WAT     H158982   0.905   3.055   9.519
19580WAT     H258983   0.952   2.977   9.655
19581WAT      O58984   4.076   7.402   1.164
19581WAT     H158985   4.096   7.414   1.067
19581WAT     H258986   4.010   7.328   1.175
19582WAT      O58987   7.863   2.913   2.025
19582WAT     H158988   7.850   3.001   1.980
19582WAT     H258989   7.829   2.919   2.119
19583WAT      O58990   7.097   8.489   6.094
19583WAT     H158991   7.105   8.422   6.020
19583WAT     H258992   7.040   8.452   6.167
19584WAT      O58993   8.022   1.000   2.466
19584WAT     H158994   8.019   1.056   2.384
19584WAT     H258995   7.960   1.038   2.535
19585WAT      O58996   1.335   9.002   8.603
19585WAT     H158997   1.305   8.956   8.519
19585WAT     H258998   1.263   8.996   8.672
19586WAT      O58999   9.147   9.478   1.626
19586WAT     H159000   9.105   9.421   1.555
19586WAT     H259001   9.161   9.423   1.708
19587WAT      O59002   5.262   2.858   9.041
19587WAT     H159003   5.281   2.803   9.123
19587WAT     H259004   5.163   2.860   9.025
19588WAT      O59005   1.917   0.700   1.023
19588WAT     H159006   1.896   0.797   1.036
19588WAT     H259007   1.833   0.651   0.999
19589WAT      O59008   7.672   5.150   4.276
19589WAT     H159009   7.725   5.162   4.360
19589WAT     H259010   7.585   5.105   4.298
19590WAT      O59011   9.640   2.804   1.131
19590WAT     H159012   9.725   2.773   1.089
19590WAT     H259013   9.592   2.864   1.067
19591WAT      O59014   5.315   3.588   6.614
19591WAT     H159015   5.356   3.630   6.534
19591WAT     H259016   5.234   3.640   6.642
19592WAT      O59017   3.302   0.945   7.084
19592WAT     H159018   3.337   1.034   7.056
19592WAT     H259019   3.372   0.875   7.068
19593WAT      O59020   4.128   7.212   4.600
19593WAT     H159021   4.085   7.302   4.610
19593WAT     H259022   4.217   7.223   4.556
19594WAT      O59023   4.269   3.715   2.584
19594WAT     H159024   4.234   3.809   2.577
19594WAT     H259025   4.203   3.659   2.634
19595WAT      O59026   2.309   5.566   0.514
19595WAT     H159027   2.269   5.507   0.444
19595WAT     H259028   2.405   5.585   0.490
19596WAT      O59029   8.726   1.675   3.132
19596WAT     H159030   8.674   1.590   3.125
19596WAT     H259031   8.668   1.752   3.103
19597WAT      O59032   2.388   0.934   4.950
19597WAT     H159033   2.381   0.920   4.851
19597WAT     H259034   2.414   0.849   4.994
19598WAT      O59035   6.510   5.557   4.068
19598WAT     H159036   6.580   5.587   4.004
19598WAT     H259037   6.454   5.486   4.025
19599WAT      O59038   6.449   8.378   6.256
19599WAT     H159039   6.364   8.328   6.249
19599WAT     H259040   6.524   8.324   6.218
19600WAT      O59041   3.117   1.292   9.415
19600WAT     H159042   3.044   1.337   9.466
19600WAT     H259043   3.167   1.231   9.477
19601WAT      O59044   0.702   4.663   4.950
19601WAT     H159045   0.729   4.569   4.973
19601WAT     H259046   0.603   4.668   4.943
19602WAT      O59047   0.717   1.864   5.171
19602WAT     H159048   0.688   1.886   5.265
19602WAT     H259049   0.637   1.839   5.117
19603WAT      O59050   9.152   6.524   2.729
19603WAT     H159051   9.058   6.513   2.696
19603WAT     H259052   9.210   6.554   2.654
19604WAT      O59053   3.001   8.223   1.104
19604WAT     H159054   2.905   8.218   1.130
19604WAT     H259055   3.021   8.151   1.038
19605WAT      O59056   3.992   1.800   5.859
19605WAT     H159057   3.922   1.742   5.819
19605WAT     H259058   3.959   1.836   5.947
19606WAT      O59059   4.384   6.465   8.899
19606WAT     H159060   4.466   6.472   8.841
19606WAT     H259061   4.319   6.537   8.873
19607WAT      O59062   9.866   9.272   1.237
19607WAT     H159063   9.778   9.316   1.252
19607WAT     H259064   9.853   9.174   1.222
19608WAT      O59065   6.381   2.197   1.540
19608WAT     H159066   6.332   2.210   1.454
19608WAT     H259067   6.408   2.286   1.578
19609WAT      O59068   7.842   8.544   2.174
19609WAT     H159069   7.895   8.463   2.147
19609WAT     H259070   7.764   8.516   2.229
19610WAT      O59071   1.769   8.991   3.709
19610WAT     H159072   1.857   8.968   3.668
19610WAT     H259073   1.747   8.925   3.781
19611WAT      O59074   6.417   9.445   0.268
19611WAT     H159075   6.391   9.362   0.318
19611WAT     H259076   6.341   9.511   0.271
19612WAT      O59077   8.273   7.410   6.125
19612WAT     H159078   8.190   7.463   6.112
19612WAT     H259079   8.313   7.432   6.214
19613WAT      O59080   7.493   3.045   1.887
19613WAT     H159081   7.398   3.027   1.862
19613WAT     H259082   7.508   3.020   1.983
19614WAT      O59083   9.253   2.846   2.734
19614WAT     H159084   9.264   2.827   2.636
19614WAT     H259085   9.183   2.917   2.747
19615WAT      O59086   3.762   5.747   7.957
19615WAT     H159087   3.768   5.787   8.049
19615WAT     H259088   3.835   5.783   7.900
19616WAT      O59089   3.913   9.597   6.049
19616WAT     H159090   4.001   9.622   6.009
19616WAT     H259091   3.885   9.667   6.115
19617WAT      O59092   5.331   2.395   5.229
19617WAT     H159093   5.402   2.387   5.299
19617WAT     H259094   5.327   2.310   5.176
19618WAT      O59095   7.986   9.793   8.914
19618WAT     H159096   8.069   9.780   8.968
19618WAT     H259097   7.947   9.882   8.934
19619WAT      O59098   3.935   4.140   2.766
19619WAT     H159099   3.873   4.132   2.687
19619WAT     H259100   3.936   4.235   2.797
19620WAT      O59101   5.468   0.251   6.962
19620WAT     H159102   5.430   0.320   7.024
19620WAT     H259103   5.461   0.284   6.868
19621WAT      O59104   0.890   2.969   2.965
19621WAT     H159105   0.862   2.885   3.013
19621WAT     H259106   0.913   2.947   2.870
19622WAT      O59107   3.251   2.944   6.758
19622WAT     H159108   3.182   3.010   6.787
19622WAT     H259109   3.337   2.992   6.740
19623WAT      O59110   8.947   1.366   3.169
19623WAT     H159111   9.045   1.350   3.173
19623WAT     H259112   8.928   1.463   3.160
19624WAT      O59113   0.348   3.144   1.940
19624WAT     H159114   0.354   3.104   2.031
19624WAT     H259115   0.427   3.203   1.923
19625WAT      O59116   6.276   5.705   3.776
19625WAT     H159117   6.340   5.709   3.852
19625WAT     H259118   6.197   5.762   3.795
19626WAT      O59119   3.573   6.168   4.719
19626WAT     H159120   3.656   6.156   4.773
19626WAT     H259121   3.596   6.181   4.623
19627WAT      O59122   0.350   0.973   7.734
19627WAT     H159123   0.419   1.011   7.672
19627WAT     H259124   0.392   0.904   7.793
19628WAT      O59125   8.753   7.327   4.662
19628WAT     H159126   8.689   7.331   4.738
19628WAT     H259127   8.781   7.420   4.637
19629WAT      O59128   4.191   7.872   4.103
19629WAT     H159129   4.157   7.962   4.133
19629WAT     H259130   4.117   7.823   4.056
19630WAT      O59131   7.511   0.052   3.115
19630WAT     H159132   7.448   0.049   3.037
19630WAT     H259133   7.604   0.064   3.082
19631WAT      O59134   9.368   4.276   7.877
19631WAT     H159135   9.433   4.329   7.822
19631WAT     H259136   9.366   4.313   7.970
19632WAT      O59137   3.560   7.633   4.217
19632WAT     H159138   3.655   7.661   4.201
19632WAT     H259139   3.556   7.575   4.298
19633WAT      O59140   8.550   3.674   9.720
19633WAT     H159141   8.457   3.637   9.725
19633WAT     H259142   8.562   3.722   9.632
19634WAT      O59143   0.443   1.842   1.648
19634WAT     H159144   0.417   1.753   1.686
19634WAT     H259145   0.542   1.850   1.644
19635WAT      O59146   8.050   1.856   9.181
19635WAT     H159147   8.023   1.947   9.212
19635WAT     H259148   8.072   1.799   9.261
19636WAT      O59149   8.171   5.437   2.555
19636WAT     H159150   8.254   5.382   2.552
19636WAT     H259151   8.158   5.474   2.647
19637WAT      O59152   6.320   5.585   0.040
19637WAT     H159153   6.340   5.676   0.075
19637WAT     H259154   6.379   5.565  -0.038
19638WAT      O59155   0.912   8.800   2.715
19638WAT     H159156   0.818   8.812   2.685
19638WAT     H259157   0.957   8.889   2.721
19639WAT      O59158   2.531   5.501   4.593
19639WAT     H159159   2.436   5.519   4.619
19639WAT     H259160   2.549   5.402   4.599
19640WAT      O59161   6.384   7.936  -0.001
19640WAT     H159162   6.465   7.989  -0.025
19640WAT     H259163   6.394   7.902   0.093
19641WAT      O59164   9.727   3.527   0.588
19641WAT     H159165   9.826   3.509   0.592
19641WAT     H259166   9.699   3.542   0.494
19642WAT      O59167   7.857   8.847   0.564
19642WAT     H159168   7.797   8.898   0.626
19642WAT     H259169   7.820   8.850   0.471
19643WAT      O59170   0.313   1.889   5.581
19643WAT     H159171   0.304   1.790   5.594
19643WAT     H259172   0.263   1.917   5.498
19644WAT      O59173   5.386   9.453   4.281
19644WAT     H159174   5.296   9.424   4.249
19644WAT     H259175   5.419   9.528   4.223
19645WAT      O59176   7.990   5.089   1.663
19645WAT     H159177   7.895   5.069   1.687
19645WAT     H259178   8.016   5.036   1.582
19646WAT      O59179  -0.001   4.718   7.643
19646WAT     H159180   0.025   4.809   7.611
19646WAT     H259181   0.017   4.712   7.741
19647WAT      O59182   1.341   3.886   9.278
19647WAT     H159183   1.245   3.900   9.255
19647WAT     H259184   1.358   3.789   9.293
19648WAT      O59185   6.414   5.929   1.292
19648WAT     H159186   6.470   5.875   1.230
19648WAT     H259187   6.353   5.988   1.240
19649WAT      O59188   5.842   1.058   2.265
19649WAT     H159189   5.898   1.135   2.233
19649WAT     H259190   5.900   0.980   2.285
19650WAT      O59191   4.100   7.934   6.879
19650WAT     H159192   4.049   7.893   6.804
19650WAT     H259193   4.055   7.914   6.966
19651WAT      O59194   3.088   9.755   9.034
19651WAT     H159195   3.102   9.851   9.010
19651WAT     H259196   3.175   9.707   9.031
19652WAT      O59197   8.325   2.770   5.903
19652WAT     H159198   8.329   2.735   5.996
19652WAT     H259199   8.418   2.792   5.872
19653WAT      O59200   9.877   7.685   7.548
19653WAT     H159201   9.822   7.619   7.599
19653WAT     H259202   9.844   7.777   7.568
19654WAT      O59203   2.305   5.842   0.622
19654WAT     H159204   2.305   5.856   0.722
19654WAT     H259205   2.321   5.746   0.602
19655WAT      O59206   0.942   6.695   0.293
19655WAT     H159207   0.987   6.618   0.338
19655WAT     H259208   0.908   6.666   0.203
19656WAT      O59209   9.377   8.648   2.447
19656WAT     H159210   9.398   8.623   2.352
19656WAT     H259211   9.410   8.577   2.508
19657WAT      O59212   2.657   0.585   6.113
19657WAT     H159213   2.738   0.564   6.058
19657WAT     H259214   2.685   0.624   6.201
19658WAT      O59215   1.585   6.575   4.182
19658WAT     H159216   1.564   6.671   4.161
19658WAT     H259217   1.508   6.517   4.153
19659WAT      O59218   3.545   6.321   0.477
19659WAT     H159219   3.573   6.416   0.464
19659WAT     H259220   3.491   6.313   0.561
19660WAT      O59221   6.054   2.725   0.266
19660WAT     H159222   5.983   2.794   0.279
19660WAT     H259223   6.143   2.770   0.261
19661WAT      O59224   8.497   4.964   4.929
19661WAT     H159225   8.542   4.938   5.014
19661WAT     H259226   8.450   4.885   4.890
19662WAT      O59227   4.182   9.803   1.389
19662WAT     H159228   4.247   9.878   1.377
19662WAT     H259229   4.121   9.798   1.310
19663WAT      O59230   5.606   4.799   7.106
19663WAT     H159231   5.612   4.722   7.043
19663WAT     H259232   5.517   4.798   7.152
19664WAT      O59233   6.655   2.532   5.324
19664WAT     H159234   6.658   2.434   5.345
19664WAT     H259235   6.635   2.545   5.227
19665WAT      O59236   2.824   4.667   3.118
19665WAT     H159237   2.899   4.646   3.055
19665WAT     H259238   2.742   4.688   3.066
19666WAT      O59239   6.185   6.301   6.650
19666WAT     H159240   6.267   6.265   6.604
19666WAT     H259241   6.104   6.275   6.598
19667WAT      O59242   7.810   7.774   7.238
19667WAT     H159243   7.805   7.768   7.138
19667WAT     H259244   7.881   7.713   7.272
19668WAT      O59245   4.944   0.513   3.024
19668WAT     H159246   4.988   0.481   2.940
19668WAT     H259247   4.909   0.605   3.011
19669WAT      O59248   3.403   7.256   8.227
19669WAT     H159249   3.317   7.245   8.278
19669WAT     H259250   3.431   7.352   8.229
19670WAT      O59251   1.882   4.635   2.855
19670WAT     H159252   1.865   4.731   2.836
19670WAT     H259253   1.795   4.585   2.855
19671WAT      O59254   9.160   3.355   5.633
19671WAT     H159255   9.067   3.388   5.651
19671WAT     H259256   9.165   3.258   5.659
19672WAT      O59257   2.764   1.321   8.882
19672WAT     H159258   2.850   1.368   8.903
19672WAT     H259259   2.758   1.307   8.783
19673WAT      O59260   7.411   7.328   0.557
19673WAT     H159261   7.411   7.363   0.464
19673WAT     H259262   7.429   7.230   0.556
19674WAT      O59263   8.295   9.507   0.671
19674WAT     H159264   8.220   9.572   0.680
19674WAT     H259265   8.341   9.495   0.759
19675WAT      O59266   2.322   9.080   9.579
19675WAT     H159267   2.275   9.137   9.511
19675WAT     H259268   2.365   9.002   9.533
19676WAT      O59269   3.358   5.032   7.245
19676WAT     H159270   3.394   4.979   7.322
19676WAT     H259271   3.391   5.126   7.251
19677WAT      O59272   1.530   2.055   7.427
19677WAT     H159273   1.462   2.089   7.362
19677WAT     H259274   1.503   2.082   7.520
19678WAT      O59275   0.154   5.787   9.656
19678WAT     H159276   0.191   5.765   9.746
19678WAT     H259277   0.229   5.816   9.596
19679WAT      O59278   9.444   8.574   0.378
19679WAT     H159279   9.425   8.483   0.343
19679WAT     H259280   9.421   8.578   0.475
19680WAT      O59281   2.753   6.766   9.766
19680WAT     H159282   2.824   6.769   9.836
19680WAT     H259283   2.795   6.770   9.675
19681WAT      O59284   2.359   3.503   2.061
19681WAT     H159285   2.406   3.541   2.140
19681WAT     H259286   2.405   3.419   2.032
19682WAT      O59287   1.819   4.496   6.674
19682WAT     H159288   1.916   4.484   6.696
19682WAT     H259289   1.766   4.509   6.758
19683WAT      O59290   9.253   1.009   5.620
19683WAT     H159291   9.315   1.076   5.663
19683WAT     H259292   9.305   0.929   5.590
19684WAT      O59293   3.174   7.320   6.361
19684WAT     H159294   3.075   7.303   6.359
19684WAT     H259295   3.219   7.262   6.294
19685WAT      O59296   2.205   2.950   2.990
19685WAT     H159297   2.197   2.963   3.089
19685WAT     H259298   2.295   2.980   2.959
19686WAT      O59299   5.940   0.473   7.301
19686WAT     H159300   5.928   0.495   7.397
19686WAT     H259301   6.003   0.539   7.259
19687WAT      O59302   2.677   4.811   4.352
19687WAT     H159303   2.659   4.856   4.265
19687WAT     H259304   2.603   4.832   4.416
19688WAT      O59305   4.226   0.411   6.176
19688WAT     H159306   4.205   0.420   6.079
19688WAT     H259307   4.246   0.315   6.197
19689WAT      O59308   2.143   9.155   8.368
19689WAT     H159309   2.097   9.138   8.281
19689WAT     H259310   2.242   9.164   8.353
19690WAT      O59311   3.208   4.857   0.203
19690WAT     H159312   3.147   4.916   0.150
19690WAT     H259313   3.277   4.817   0.142
19691WAT      O59314   2.758   1.955   5.309
19691WAT     H159315   2.750   1.979   5.406
19691WAT     H259316   2.709   2.023   5.254
19692WAT      O59317   0.016   3.173   6.480
19692WAT     H159318   0.075   3.201   6.555
19692WAT     H259319   0.056   3.093   6.434
19693WAT      O59320   6.991   9.501   8.056
19693WAT     H159321   7.080   9.546   8.047
19693WAT     H259322   6.946   9.533   8.140
19694WAT      O59323   9.108   6.229   7.521
19694WAT     H159324   9.144   6.230   7.428
19694WAT     H259325   9.080   6.321   7.547
19695WAT      O59326   1.433   3.062   7.456
19695WAT     H159327   1.472   3.132   7.396
19695WAT     H259328   1.333   3.065   7.450
19696WAT      O59329   7.630   3.620   8.657
19696WAT     H159330   7.621   3.612   8.757
19696WAT     H259331   7.694   3.694   8.636
19697WAT      O59332   3.454   9.758   3.700
19697WAT     H159333   3.527   9.713   3.649
19697WAT     H259334   3.444   9.852   3.667
19698WAT      O59335   4.479   3.615   7.903
19698WAT     H159336   4.528   3.531   7.927
19698WAT     H259337   4.530   3.694   7.935
19699WAT      O59338   2.838   6.426   0.752
19699WAT     H159339   2.848   6.337   0.797
19699WAT     H259340   2.898   6.493   0.797
19700WAT      O59341   9.169   9.728   1.540
19700WAT     H159342   9.077   9.762   1.520
19700WAT     H259343   9.165   9.630   1.559
19701WAT      O59344   6.998   2.888   8.875
19701WAT     H159345   6.923   2.838   8.918
19701WAT     H259346   7.085   2.845   8.899
19702WAT      O59347   8.153   5.072   2.379
19702WAT     H159348   8.094   5.130   2.434
19702WAT     H259349   8.108   5.052   2.292
19703WAT      O59350   1.688   2.627   3.102
19703WAT     H159351   1.780   2.666   3.108
19703WAT     H259352   1.623   2.689   3.145
19704WAT      O59353   3.176   1.772   1.892
19704WAT     H159354   3.201   1.744   1.985
19704WAT     H259355   3.190   1.696   1.829
19705WAT      O59356   6.531   1.040   2.975
19705WAT     H159357   6.610   0.994   3.016
19705WAT     H259358   6.449   1.018   3.028
19706WAT      O59359   0.212   3.220   0.911
19706WAT     H159360   0.233   3.140   0.854
19706WAT     H259361   0.112   3.231   0.918
19707WAT      O59362   4.342   0.263   4.950
19707WAT     H159363   4.425   0.278   5.003
19707WAT     H259364   4.263   0.299   5.001
19708WAT      O59365   9.145   2.149   8.153
19708WAT     H159366   9.207   2.080   8.191
19708WAT     H259367   9.079   2.177   8.223
19709WAT      O59368   0.353   5.414   1.598
19709WAT     H159369   0.380   5.510   1.595
19709WAT     H259370   0.273   5.404   1.658
19710WAT      O59371   3.659   2.286   5.915
19710WAT     H159372   3.745   2.244   5.888
19710WAT     H259373   3.677   2.370   5.967
19711WAT      O59374   7.764   5.228   5.891
19711WAT     H159375   7.735   5.254   5.799
19711WAT     H259376   7.689   5.243   5.955
19712WAT      O59377   3.603   6.715   9.754
19712WAT     H159378   3.637   6.623   9.736
19712WAT     H259379   3.510   6.724   9.717
19713WAT      O59380   2.935   9.071   1.934
19713WAT     H159381   2.843   9.050   1.966
19713WAT     H259382   2.996   9.082   2.014
19714WAT      O59383   9.315   4.104   6.145
19714WAT     H159384   9.260   4.075   6.066
19714WAT     H259385   9.319   4.204   6.147
19715WAT      O59386   4.699   6.313   9.010
19715WAT     H159387   4.652   6.289   9.095
19715WAT     H259388   4.675   6.407   8.984
19716WAT      O59389   5.165   2.035   4.685
19716WAT     H159390   5.241   1.972   4.668
19716WAT     H259391   5.082   2.002   4.641
19717WAT      O59392   0.293   0.981   8.236
19717WAT     H159393   0.223   0.938   8.294
19717WAT     H259394   0.335   1.056   8.286
19718WAT      O59395   5.274   3.387   5.927
19718WAT     H159396   5.205   3.449   5.891
19718WAT     H259397   5.249   3.293   5.906
19719WAT      O59398   3.779   3.669   0.130
19719WAT     H159399   3.699   3.609   0.122
19719WAT     H259400   3.791   3.696   0.225
19720WAT      O59401   0.520   2.122   6.041
19720WAT     H159402   0.554   2.046   5.985
19720WAT     H259403   0.421   2.129   6.031
19721WAT      O59404   1.718   4.611   7.219
19721WAT     H159405   1.661   4.669   7.276
19721WAT     H259406   1.742   4.527   7.269
19722WAT      O59407   2.454   8.885   4.154
19722WAT     H159408   2.363   8.851   4.127
19722WAT     H259409   2.447   8.928   4.244
19723WAT      O59410   4.041   4.737   7.974
19723WAT     H159411   3.961   4.713   8.030
19723WAT     H259412   4.031   4.694   7.884
19724WAT      O59413   4.730   7.412   5.606
19724WAT     H159414   4.664   7.429   5.533
19724WAT     H259415   4.818   7.387   5.567
19725WAT      O59416   5.887   7.992   4.633
19725WAT     H159417   5.926   7.932   4.702
19725WAT     H259418   5.873   7.940   4.548
19726WAT      O59419   6.983   2.553   6.906
19726WAT     H159420   6.969   2.651   6.898
19726WAT     H259421   6.898   2.505   6.883
19727WAT      O59422   7.664   5.021   5.499
19727WAT     H159423   7.698   5.033   5.406
19727WAT     H259424   7.565   5.011   5.497
19728WAT      O59425   2.851   7.470   4.739
19728WAT     H159426   2.826   7.375   4.723
19728WAT     H259427   2.833   7.493   4.835
19729WAT      O59428   0.285   1.733   6.972
19729WAT     H159429   0.351   1.803   6.945
19729WAT     H259430   0.215   1.774   7.030
19730WAT      O59431   8.993   7.391   2.311
19730WAT     H159432   8.970   7.416   2.405
19730WAT     H259433   9.018   7.294   2.307
19731WAT      O59434   7.566   0.634   0.130
19731WAT     H159435   7.639   0.681   0.080
19731WAT     H259436   7.509   0.702   0.176
19732WAT      O59437   7.654   5.298   1.795
19732WAT     H159438   7.665   5.307   1.696
19732WAT     H259439   7.713   5.364   1.842
19733WAT      O59440   0.756   3.627   2.235
19733WAT     H159441   0.794   3.719   2.246
19733WAT     H259442   0.709   3.600   2.319
19734WAT      O59443   0.010   8.028   6.721
19734WAT     H159444  -0.004   7.982   6.809
19734WAT     H259445   0.002   8.127   6.733
19735WAT      O59446   0.072   4.917   0.338
19735WAT     H159447   0.055   4.984   0.266
19735WAT     H259448   0.166   4.924   0.368
19736WAT      O59449   6.472   5.397   7.018
19736WAT     H159450   6.483   5.351   7.106
19736WAT     H259451   6.387   5.367   6.975
19737WAT      O59452   0.050   9.580   5.526
19737WAT     H159453   0.129   9.526   5.554
19737WAT     H259454   0.046   9.586   5.427
19738WAT      O59455   1.269   0.696   9.724
19738WAT     H159456   1.278   0.648   9.811
19738WAT     H259457   1.195   0.763   9.731
19739WAT      O59458   0.553   5.859   5.123
19739WAT     H159459   0.641   5.897   5.151
19739WAT     H259460   0.486   5.872   5.197
19740WAT      O59461   3.512   0.807   2.031
19740WAT     H159462   3.609   0.787   2.018
19740WAT     H259463   3.460   0.772   1.952
19741WAT      O59464   9.884   8.905   8.754
19741WAT     H159465   9.931   8.988   8.724
19741WAT     H259466   9.800   8.929   8.802
19742WAT      O59467   7.402   8.636   2.962
19742WAT     H159468   7.325   8.676   2.913
19742WAT     H259469   7.425   8.694   3.041
19743WAT      O59470   4.660   9.754   7.832
19743WAT     H159471   4.603   9.790   7.758
19743WAT     H259472   4.610   9.681   7.880
19744WAT      O59473   8.075   2.534   9.279
19744WAT     H159474   8.151   2.590   9.311
19744WAT     H259475   7.989   2.582   9.296
19745WAT      O59476   5.459   4.945   0.429
19745WAT     H159477   5.431   4.861   0.475
19745WAT     H259478   5.382   4.983   0.378
19746WAT      O59479   2.473   8.137   5.376
19746WAT     H159480   2.529   8.054   5.370
19746WAT     H259481   2.389   8.117   5.426
19747WAT      O59482   3.649   9.210   3.025
19747WAT     H159483   3.642   9.171   3.117
19747WAT     H259484   3.562   9.199   2.977
19748WAT      O59485   8.474   8.012   0.847
19748WAT     H159486   8.528   8.000   0.763
19748WAT     H259487   8.500   7.942   0.914
19749WAT      O59488   9.720   1.930   8.510
19749WAT     H159489   9.811   1.922   8.551
19749WAT     H259490   9.654   1.953   8.582
19750WAT      O59491   1.709   3.931   2.262
19750WAT     H159492   1.767   4.000   2.306
19750WAT     H259493   1.738   3.840   2.291
19751WAT      O59494   4.245   1.609   6.666
19751WAT     H159495   4.308   1.560   6.727
19751WAT     H259496   4.154   1.609   6.707
19752WAT      O59497   8.944   2.389   4.907
19752WAT     H159498   8.888   2.469   4.887
19752WAT     H259499   9.041   2.414   4.899
19753WAT      O59500   6.969   3.875   3.065
19753WAT     H159501   6.944   3.779   3.076
19753WAT     H259502   6.888   3.932   3.078
19754WAT      O59503   6.662   6.826   6.650
19754WAT     H159504   6.571   6.868   6.654
19754WAT     H259505   6.656   6.731   6.681
19755WAT      O59506   0.217   2.503   1.400
19755WAT     H159507   0.247   2.455   1.482
19755WAT     H259508   0.291   2.504   1.332
19756WAT      O59509   9.777   9.498   1.596
19756WAT     H159510   9.808   9.583   1.554
19756WAT     H259511   9.841   9.424   1.575
19757WAT      O59512   5.379   8.923   4.508
19757WAT     H159513   5.292   8.893   4.470
19757WAT     H259514   5.453   8.897   4.446
19758WAT      O59515   1.078   6.578   3.563
19758WAT     H159516   1.053   6.612   3.654
19758WAT     H259517   1.090   6.655   3.501
19759WAT      O59518   1.343   8.154   1.507
19759WAT     H159519   1.329   8.066   1.552
19759WAT     H259520   1.380   8.139   1.415
19760WAT      O59521   1.465   7.543   4.788
19760WAT     H159522   1.419   7.618   4.835
19760WAT     H259523   1.564   7.552   4.800
19761WAT      O59524   9.688   2.321   4.398
19761WAT     H159525   9.676   2.224   4.376
19761WAT     H259526   9.744   2.365   4.327
19762WAT      O59527   1.746   5.914   1.548
19762WAT     H159528   1.668   5.951   1.497
19762WAT     H259529   1.819   5.982   1.551
19763WAT      O59530   2.206   9.599   2.170
19763WAT     H159531   2.217   9.576   2.267
19763WAT     H259532   2.230   9.519   2.114
19764WAT      O59533   7.762   1.854   5.668
19764WAT     H159534   7.770   1.906   5.583
19764WAT     H259535   7.768   1.917   5.746
19765WAT      O59536   1.799   2.376   2.596
19765WAT     H159537   1.877   2.361   2.535
19765WAT     H259538   1.750   2.290   2.609
19766WAT      O59539   6.654   1.603   7.780
19766WAT     H159540   6.582   1.568   7.720
19766WAT     H259541   6.672   1.699   7.758
19767WAT      O59542   2.126   5.784   9.874
19767WAT     H159543   2.090   5.839   9.949
19767WAT     H259544   2.138   5.690   9.904
19768WAT      O59545   9.173   9.500   4.881
19768WAT     H159546   9.177   9.508   4.782
19768WAT     H259547   9.249   9.551   4.922
19769WAT      O59548   0.373   4.536   4.627
19769WAT     H159549   0.339   4.541   4.721
19769WAT     H259550   0.384   4.440   4.601
19770WAT      O59551   9.592   6.923   6.458
19770WAT     H159552   9.546   7.012   6.464
19770WAT     H259553   9.540   6.864   6.396
19771WAT      O59554   8.637   7.222   3.653
19771WAT     H159555   8.672   7.168   3.730
19771WAT     H259556   8.669   7.181   3.567
19772WAT      O59557   2.035   6.075   1.801
19772WAT     H159558   1.984   6.085   1.715
19772WAT     H259559   2.081   5.987   1.802
19773WAT      O59560   9.400   9.598   7.709
19773WAT     H159561   9.410   9.626   7.614
19773WAT     H259562   9.303   9.602   7.735
19774WAT      O59563   4.552   6.901   6.860
19774WAT     H159564   4.643   6.891   6.820
19774WAT     H259565   4.498   6.819   6.843
19775WAT      O59566   6.609   9.524   0.050
19775WAT     H159567   6.621   9.624   0.045
19775WAT     H259568   6.533   9.503   0.110
19776WAT      O59569   7.650   4.197   3.036
19776WAT     H159570   7.640   4.104   3.073
19776WAT     H259571   7.568   4.220   2.984
19777WAT      O59572   7.767   4.401   1.858
19777WAT     H159573   7.723   4.312   1.847
19777WAT     H259574   7.732   4.445   1.941
19778WAT      O59575   8.536   5.108   4.708
19778WAT     H159576   8.519   5.048   4.787
19778WAT     H259577   8.617   5.076   4.659
19779WAT      O59578   0.296   9.747   7.546
19779WAT     H159579   0.254   9.833   7.578
19779WAT     H259580   0.303   9.749   7.447
19780WAT      O59581   6.265   6.168   8.282
19780WAT     H159582   6.179   6.178   8.333
19780WAT     H259583   6.306   6.259   8.270
19781WAT      O59584   9.890   1.346   5.540
19781WAT     H159585   9.929   1.348   5.448
19781WAT     H259586   9.791   1.333   5.534
19782WAT      O59587   4.137   8.020   3.708
19782WAT     H159588   4.180   8.047   3.794
19782WAT     H259589   4.039   8.038   3.713
19783WAT      O59590   7.241   2.677   1.281
19783WAT     H159591   7.252   2.704   1.186
19783WAT     H259592   7.311   2.721   1.337
19784WAT      O59593   6.557   6.318   6.133
19784WAT     H159594   6.521   6.369   6.056
19784WAT     H259595   6.614   6.242   6.099
19785WAT      O59596   1.135   0.917   7.354
19785WAT     H159597   1.179   0.901   7.442
19785WAT     H259598   1.130   1.015   7.336
19786WAT      O59599   1.039   0.706   8.177
19786WAT     H159600   0.943   0.691   8.155
19786WAT     H259601   1.094   0.694   8.095
19787WAT      O59602   3.289   7.281   0.933
19787WAT     H159603   3.203   7.290   0.882
19787WAT     H259604   3.288   7.194   0.983
19788WAT      O59605   2.763   7.292   8.446
19788WAT     H159606   2.760   7.323   8.350
19788WAT     H259607   2.706   7.211   8.456
19789WAT      O59608   7.908   7.181   6.431
19789WAT     H159609   7.958   7.207   6.514
19789WAT     H259610   7.970   7.184   6.353
19790WAT      O59611   4.365   2.828   2.871
19790WAT     H159612   4.411   2.916   2.883
19790WAT     H259613   4.312   2.828   2.786
19791WAT      O59614   6.634   4.244   2.829
19791WAT     H159615   6.657   4.340   2.816
19791WAT     H259616   6.539   4.236   2.859
19792WAT      O59617   0.278   3.660   7.698
19792WAT     H159618   0.189   3.686   7.661
19792WAT     H259619   0.351   3.699   7.642
19793WAT      O59620   2.214   5.380   0.323
19793WAT     H159621   2.127   5.337   0.345
19793WAT     H259622   2.278   5.311   0.289
19794WAT      O59623   9.747   6.687   0.415
19794WAT     H159624   9.830   6.631   0.424
19794WAT     H259625   9.667   6.628   0.414
19795WAT      O59626   1.960   4.922   7.564
19795WAT     H159627   1.873   4.962   7.593
19795WAT     H259628   1.958   4.824   7.581
19796WAT      O59629   8.313   3.915   5.763
19796WAT     H159630   8.341   3.835   5.818
19796WAT     H259631   8.377   3.989   5.778
19797WAT      O59632   4.470   0.096   0.193
19797WAT     H159633   4.434   0.029   0.128
19797WAT     H259634   4.463   0.187   0.154
19798WAT      O59635   0.039   1.589   2.590
19798WAT     H159636  -0.021   1.594   2.670
19798WAT     H259637  -0.012   1.610   2.507
19799WAT      O59638   4.541   0.742   4.759
19799WAT     H159639   4.585   0.662   4.718
19799WAT     H259640   4.523   0.724   4.856
19800WAT      O59641   1.121   0.561   8.381
19800WAT     H159642   1.087   0.615   8.304
19800WAT     H259643   1.196   0.609   8.426
19801WAT      O59644   2.313   1.212   1.001
19801WAT     H159645   2.273   1.129   0.961
19801WAT     H259646   2.310   1.205   1.101
19802WAT      O59647   7.090   5.217   4.283
19802WAT     H159648   7.027   5.237   4.358
19802WAT     H259649   7.085   5.120   4.260
19803WAT      O59650   8.184   5.116   3.712
19803WAT     H159651   8.219   5.023   3.721
19803WAT     H259652   8.260   5.181   3.725
19804WAT      O59653   2.117   9.720   7.954
19804WAT     H159654   2.176   9.706   7.875
19804WAT     H259655   2.103   9.633   8.001
19805WAT      O59656   9.426   5.317   3.764
19805WAT     H159657   9.494   5.281   3.701
19805WAT     H259658   9.446   5.285   3.856
19806WAT      O59659   2.722   1.619   8.698
19806WAT     H159660   2.795   1.567   8.741
19806WAT     H259661   2.647   1.632   8.764
19807WAT      O59662   4.141   8.769   0.075
19807WAT     H159663   4.144   8.739   0.170
19807WAT     H259664   4.230   8.756   0.032
19808WAT      O59665   5.459   8.222   2.795
19808WAT     H159666   5.473   8.162   2.716
19808WAT     H259667   5.532   8.206   2.862
19809WAT      O59668   0.264   3.669   0.830
19809WAT     H159669   0.239   3.696   0.923
19809WAT     H259670   0.184   3.634   0.782
19810WAT      O59671   5.287   8.197   7.239
19810WAT     H159672   5.367   8.136   7.244
19810WAT     H259673   5.204   8.142   7.238
19811WAT      O59674   0.574   9.734   3.976
19811WAT     H159675   0.476   9.754   3.979
19811WAT     H259676   0.623   9.810   3.934
19812WAT      O59677   2.251   3.845   6.156
19812WAT     H159678   2.325   3.780   6.141
19812WAT     H259679   2.163   3.799   6.146
19813WAT      O59680   7.386   7.325   6.052
19813WAT     H159681   7.384   7.256   6.124
19813WAT     H259682   7.305   7.316   5.995
19814WAT      O59683   2.671   4.430   0.220
19814WAT     H159684   2.574   4.407   0.228
19814WAT     H259685   2.716   4.367   0.158
19815WAT      O59686   8.902   7.218   6.592
19815WAT     H159687   8.991   7.196   6.633
19815WAT     H259688   8.913   7.233   6.494
19816WAT      O59689   0.323   9.085   1.239
19816WAT     H159690   0.330   8.997   1.286
19816WAT     H259691   0.412   9.109   1.200
19817WAT      O59692   3.082   4.182   4.260
19817WAT     H159693   3.028   4.133   4.191
19817WAT     H259694   3.092   4.278   4.234
19818WAT      O59695   9.441   3.094   8.535
19818WAT     H159696   9.510   3.131   8.598
19818WAT     H259697   9.484   3.029   8.473
19819WAT      O59698   8.994   5.314   0.814
19819WAT     H159699   8.966   5.292   0.720
19819WAT     H259700   9.053   5.394   0.812
19820WAT      O59701   4.621   4.446   8.608
19820WAT     H159702   4.631   4.546   8.606
19820WAT     H259703   4.543   4.422   8.666
19821WAT      O59704   8.245   4.873   4.108
19821WAT     H159705   8.224   4.969   4.087
19821WAT     H259706   8.289   4.867   4.197
19822WAT      O59707   3.239   3.243   8.581
19822WAT     H159708   3.253   3.332   8.538
19822WAT     H259709   3.314   3.182   8.558
19823WAT      O59710   2.758   6.018   6.667
19823WAT     H159711   2.845   6.064   6.683
19823WAT     H259712   2.761   5.970   6.580
19824WAT      O59713   4.476   3.813   7.718
19824WAT     H159714   4.443   3.906   7.734
19824WAT     H259715   4.443   3.752   7.790
19825WAT      O59716   5.707   5.402   4.972
19825WAT     H159717   5.611   5.402   4.943
19825WAT     H259718   5.714   5.439   5.064
19826WAT      O59719   8.361   2.375   1.970
19826WAT     H159720   8.301   2.426   2.032
19826WAT     H259721   8.409   2.304   2.020
19827WAT      O59722   8.012   0.686   1.343
19827WAT     H159723   7.983   0.693   1.438
19827WAT     H259724   7.967   0.756   1.288
19828WAT      O59725   8.528   2.842   4.372
19828WAT     H159726   8.495   2.932   4.343
19828WAT     H259727   8.456   2.795   4.423
19829WAT      O59728   1.617   4.927   1.356
19829WAT     H159729   1.594   4.928   1.454
19829WAT     H259730   1.557   4.989   1.307
19830WAT      O59731   2.530   6.398   2.911
19830WAT     H159732   2.622   6.414   2.946
19830WAT     H259733   2.476   6.350   2.980
19831WAT      O59734   9.046   2.362   6.349
19831WAT     H159735   9.081   2.270   6.367
19831WAT     H259736   9.005   2.399   6.433
19832WAT      O59737   2.529   2.096   3.007
19832WAT     H159738   2.620   2.130   3.033
19832WAT     H259739   2.469   2.174   2.989
19833WAT      O59740   7.582   2.759   6.234
19833WAT     H159741   7.629   2.678   6.199
19833WAT     H259742   7.503   2.730   6.288
19834WAT      O59743   3.646   8.738   6.120
19834WAT     H159744   3.683   8.783   6.039
19834WAT     H259745   3.716   8.733   6.191
19835WAT      O59746   1.287   2.737   4.095
19835WAT     H159747   1.375   2.735   4.048
19835WAT     H259748   1.241   2.649   4.083
19836WAT      O59749   9.140   7.912   9.627
19836WAT     H159750   9.234   7.936   9.652
19836WAT     H259751   9.097   7.863   9.702
19837WAT      O59752   7.709   5.199   2.228
19837WAT     H159753   7.638   5.234   2.168
19837WAT     H259754   7.717   5.258   2.309
19838WAT      O59755   9.088   0.011   6.524
19838WAT     H159756   9.182   0.007   6.559
19838WAT     H259757   9.081   0.084   6.456
19839WAT      O59758   8.070   0.441   9.464
19839WAT     H159759   8.092   0.516   9.526
19839WAT     H259760   8.053   0.358   9.517
19840WAT      O59761   7.470   6.825   4.230
19840WAT     H159762   7.441   6.757   4.297
19840WAT     H259763   7.394   6.889   4.213
19841WAT      O59764   1.860   4.095   1.004
19841WAT     H159765   1.846   4.116   1.101
19841WAT     H259766   1.826   4.171   0.948
19842WAT      O59767   2.800   3.103   5.903
19842WAT     H159768   2.846   3.184   5.940
19842WAT     H259769   2.866   3.048   5.852
19843WAT      O59770   0.677   3.796   1.946
19843WAT     H159771   0.708   3.783   2.040
19843WAT     H259772   0.688   3.892   1.920
19844WAT      O59773   0.600   7.503   2.183
19844WAT     H159774   0.655   7.580   2.152
19844WAT     H259775   0.519   7.536   2.230
19845WAT      O59776   2.798   9.605   1.773
19845WAT     H159777   2.888   9.641   1.799
19845WAT     H259778   2.727   9.667   1.807
19846WAT      O59779   3.607   6.708   9.092
19846WAT     H159780   3.611   6.806   9.108
19846WAT     H259781   3.648   6.688   9.002
19847WAT      O59782   5.915   8.741   2.220
19847WAT     H159783   5.823   8.712   2.246
19847WAT     H259784   5.962   8.665   2.174
19848WAT      O59785   9.189   1.641   1.851
19848WAT     H159786   9.281   1.679   1.852
19848WAT     H259787   9.122   1.713   1.834
19849WAT      O59788   0.387   4.045   5.816
19849WAT     H159789   0.385   4.058   5.717
19849WAT     H259790   0.470   4.087   5.854
19850WAT      O59791   1.869   8.313   5.855
19850WAT     H159792   1.801   8.240   5.864
19850WAT     H259793   1.823   8.402   5.856
19851WAT      O59794   4.418   6.718   7.734
19851WAT     H159795   4.331   6.767   7.732
19851WAT     H259796   4.403   6.625   7.767
19852WAT      O59797   8.285   5.725   4.780
19852WAT     H159798   8.287   5.662   4.858
19852WAT     H259799   8.329   5.811   4.807
19853WAT      O59800   1.657   5.993   0.563
19853WAT     H159801   1.663   5.969   0.466
19853WAT     H259802   1.748   6.019   0.597
19854WAT      O59803   5.654   7.437   1.068
19854WAT     H159804   5.579   7.502   1.057
19854WAT     H259805   5.637   7.356   1.011
19855WAT      O59806   2.753   0.829   2.048
19855WAT     H159807   2.744   0.842   1.949
19855WAT     H259808   2.676   0.775   2.082
19856WAT      O59809   2.394   7.594   7.156
19856WAT     H159810   2.431   7.665   7.216
19856WAT     H259811   2.444   7.509   7.171
19857WAT      O59812   6.160   2.351   2.247
19857WAT     H159813   6.206   2.427   2.201
19857WAT     H259814   6.227   2.284   2.278
19858WAT      O59815   0.330   9.304   3.838
19858WAT     H159816   0.244   9.316   3.789
19858WAT     H259817   0.405   9.342   3.784
19859WAT      O59818   2.880   8.899   8.962
19859WAT     H159819   2.962   8.955   8.950
19859WAT     H259820   2.904   8.803   8.957
19860WAT      O59821   7.442   5.353   0.073
19860WAT     H159822   7.419   5.280   0.136
19860WAT     H259823   7.541   5.369   0.076
19861WAT      O59824   2.999   3.456   6.642
19861WAT     H159825   3.026   3.537   6.590
19861WAT     H259826   2.900   3.455   6.654
19862WAT      O59827   4.340   1.644   0.158
19862WAT     H159828   4.261   1.637   0.218
19862WAT     H259829   4.397   1.721   0.187
19863WAT      O59830   3.116   5.534   4.887
19863WAT     H159831   3.208   5.574   4.887
19863WAT     H259832   3.117   5.447   4.937
19864WAT      O59833   8.288   6.892   3.610
19864WAT     H159834   8.261   6.803   3.645
19864WAT     H259835   8.255   6.964   3.672
19865WAT      O59836   6.413   5.927   7.435
19865WAT     H159837   6.346   5.961   7.501
19865WAT     H259838   6.502   5.918   7.480
19866WAT      O59839   2.357   3.558   4.567
19866WAT     H159840   2.269   3.524   4.534
19866WAT     H259841   2.419   3.480   4.580
19867WAT      O59842   8.904   3.617   8.772
19867WAT     H159843   8.986   3.672   8.756
19867WAT     H259844   8.916   3.562   8.854
19868WAT      O59845   7.595   9.839   8.693
19868WAT     H159846   7.499   9.844   8.721
19868WAT     H259847   7.654   9.868   8.769
19869WAT      O59848   5.928   6.351   6.071
19869WAT     H159849   6.021   6.387   6.061
19869WAT     H259850   5.912   6.282   6.001
19870WAT      O59851   0.231   1.138   5.939
19870WAT     H159852   0.192   1.051   5.967
19870WAT     H259853   0.276   1.182   6.017
19871WAT      O59854   9.156   2.026   7.903
19871WAT     H159855   9.156   2.069   7.994
19871WAT     H259856   9.167   2.097   7.834
19872WAT      O59857   7.598   5.265   0.654
19872WAT     H159858   7.620   5.361   0.669
19872WAT     H259859   7.616   5.213   0.737
19873WAT      O59860   8.365   9.611   5.341
19873WAT     H159861   8.459   9.589   5.367
19873WAT     H259862   8.364   9.693   5.284
19874WAT      O59863   1.195   5.163   4.990
19874WAT     H159864   1.143   5.226   4.933
19874WAT     H259865   1.261   5.114   4.933
19875WAT      O59866   3.997   2.302   0.278
19875WAT     H159867   3.967   2.234   0.212
19875WAT     H259868   4.097   2.309   0.274
19876WAT      O59869   9.048   8.758   5.021
19876WAT     H159870   8.954   8.725   5.014
19876WAT     H259871   9.094   8.747   4.933
19877WAT      O59872   9.000   4.878   4.321
19877WAT     H159873   8.979   4.975   4.331
19877WAT     H259874   9.039   4.843   4.407
19878WAT      O59875   3.182   5.461   2.893
19878WAT     H159876   3.146   5.475   2.985
19878WAT     H259877   3.120   5.401   2.842
19879WAT      O59878   7.087   3.785   3.430
19879WAT     H159879   7.069   3.773   3.528
19879WAT     H259880   7.138   3.706   3.396
19880WAT      O59881   6.925   8.987   7.207
19880WAT     H159882   7.020   8.980   7.238
19880WAT     H259883   6.923   9.032   7.117
19881WAT      O59884   1.482   8.480   4.555
19881WAT     H159885   1.386   8.453   4.566
19881WAT     H259886   1.503   8.553   4.620
19882WAT      O59887   2.368   4.920   8.083
19882WAT     H159888   2.394   4.957   7.993
19882WAT     H259889   2.367   4.821   8.079
19883WAT      O59890   9.156   3.968   2.769
19883WAT     H159891   9.236   4.026   2.786
19883WAT     H259892   9.125   3.929   2.856
19884WAT      O59893   4.176   7.486   8.149
19884WAT     H159894   4.188   7.391   8.121
19884WAT     H259895   4.206   7.546   8.075
19885WAT      O59896   8.109   2.852   0.495
19885WAT     H159897   8.157   2.778   0.542
19885WAT     H259898   8.157   2.938   0.510
19886WAT      O59899   9.045   4.832   5.859
19886WAT     H159900   9.006   4.772   5.929
19886WAT     H259901   9.140   4.854   5.882
19887WAT      O59902   8.067   4.279   4.009
19887WAT     H159903   8.036   4.337   4.085
19887WAT     H259904   8.163   4.300   3.988
19888WAT      O59905   1.319   0.742   1.184
19888WAT     H159906   1.231   0.779   1.155
19888WAT     H259907   1.331   0.759   1.282
19889WAT      O59908   8.203   4.505   4.400
19889WAT     H159909   8.238   4.595   4.427
19889WAT     H259910   8.121   4.517   4.343
19890WAT      O59911   0.102   1.631   1.968
19890WAT     H159912   0.132   1.711   1.917
19890WAT     H259913   0.183   1.582   2.003
19891WAT      O59914   4.149   9.550   2.696
19891WAT     H159915   4.127   9.453   2.699
19891WAT     H259916   4.220   9.566   2.628
19892WAT      O59917   2.291   6.233   4.332
19892WAT     H159918   2.313   6.238   4.234
19892WAT     H259919   2.212   6.290   4.352
19893WAT      O59920   8.389   0.229   8.621
19893WAT     H159921   8.443   0.296   8.569
19893WAT     H259922   8.323   0.185   8.560
19894WAT      O59923   9.242   4.240   0.583
19894WAT     H159924   9.255   4.203   0.675
19894WAT     H259925   9.223   4.166   0.519
19895WAT      O59926   5.320   2.813   1.881
19895WAT     H159927   5.344   2.789   1.975
19895WAT     H259928   5.222   2.802   1.867
19896WAT      O59929   8.515   9.412   8.277
19896WAT     H159930   8.443   9.469   8.319
19896WAT     H259931   8.586   9.394   8.345
19897WAT      O59932   3.027   8.535   7.766
19897WAT     H159933   2.993   8.545   7.860
19897WAT     H259934   3.070   8.445   7.756
19898WAT      O59935   9.788   4.838   4.653
19898WAT     H159936   9.800   4.753   4.602
19898WAT     H259937   9.870   4.894   4.642
19899WAT      O59938   3.772   3.283   6.416
19899WAT     H159939   3.695   3.306   6.475
19899WAT     H259940   3.843   3.352   6.424
19900WAT      O59941   3.062   6.136   6.770
19900WAT     H159942   3.053   6.155   6.672
19900WAT     H259943   3.152   6.095   6.787
19901WAT      O59944   9.070   6.531   2.062
19901WAT     H159945   8.996   6.585   2.102
19901WAT     H259946   9.142   6.592   2.028
19902WAT      O59947   8.273   1.842   0.226
19902WAT     H159948   8.294   1.802   0.316
19902WAT     H259949   8.358   1.864   0.179
19903WAT      O59950   3.151   1.581   7.352
19903WAT     H159951   3.090   1.518   7.304
19903WAT     H259952   3.130   1.579   7.450
19904WAT      O59953   2.585   0.538   2.787
19904WAT     H159954   2.489   0.537   2.817
19904WAT     H259955   2.645   0.540   2.867
19905WAT      O59956   1.887   3.195   8.406
19905WAT     H159957   1.979   3.206   8.443
19905WAT     H259958   1.886   3.221   8.310
19906WAT      O59959   3.883   0.282   5.020
19906WAT     H159960   3.920   0.265   4.928
19906WAT     H259961   3.840   0.198   5.053
19907WAT      O59962   5.201   5.832   6.733
19907WAT     H159963   5.281   5.778   6.759
19907WAT     H259964   5.230   5.920   6.695
19908WAT      O59965   0.358   7.551   1.882
19908WAT     H159966   0.416   7.627   1.910
19908WAT     H259967   0.363   7.539   1.783
19909WAT      O59968   0.443   8.784   1.910
19909WAT     H159969   0.433   8.883   1.921
19909WAT     H259970   0.452   8.762   1.814
19910WAT      O59971   0.991   8.719   7.203
19910WAT     H159972   0.915   8.659   7.180
19910WAT     H259973   0.956   8.808   7.232
19911WAT      O59974   4.795   0.401   9.674
19911WAT     H159975   4.767   0.489   9.634
19911WAT     H259976   4.720   0.336   9.666
19912WAT      O59977   7.254   0.754   6.123
19912WAT     H159978   7.267   0.820   6.197
19912WAT     H259979   7.157   0.739   6.107
19913WAT      O59980   6.725   5.146   9.652
19913WAT     H159981   6.808   5.178   9.699
19913WAT     H259982   6.645   5.189   9.694
19914WAT      O59983   4.793   1.735   9.589
19914WAT     H159984   4.882   1.699   9.617
19914WAT     H259985   4.798   1.764   9.493
19915WAT      O59986   0.034   6.369   0.471
19915WAT     H159987  -0.044   6.331   0.520
19915WAT     H259988   0.086   6.429   0.533
19916WAT      O59989   5.447   8.501   4.734
19916WAT     H159990   5.505   8.502   4.652
19916WAT     H259991   5.485   8.563   4.802
19917WAT      O59992   4.873   9.832   5.690
19917WAT     H159993   4.812   9.772   5.639
19917WAT     H259994   4.924   9.891   5.627
19918WAT      O59995   1.143   3.081   8.076
19918WAT     H159996   1.056   3.067   8.029
19918WAT     H259997   1.218   3.058   8.015
19919WAT      O59998   8.623   2.126   8.153
19919WAT     H159999   8.680   2.143   8.072
19919WAT     H260000   8.651   2.040   8.196
19920WAT      O60001   2.216   8.743   9.666
19920WAT     H160002   2.166   8.782   9.744
19920WAT     H260003   2.161   8.669   9.626
19921WAT      O60004   0.208   7.117   5.627
19921WAT     H160005   0.223   7.119   5.726
19921WAT     H260006   0.169   7.028   5.601
19922WAT      O60007   0.149   2.462   8.757
19922WAT     H160008   0.196   2.467   8.669
19922WAT     H260009   0.215   2.449   8.830
19923WAT      O60010   3.289   2.902   3.077
19923WAT     H160011   3.311   2.812   3.114
19923WAT     H260012   3.374   2.948   3.049
19924WAT      O60013   9.433   6.092   1.372
19924WAT     H160014   9.498   6.122   1.302
19924WAT     H260015   9.409   5.996   1.358
19925WAT      O60016   3.953   0.141   8.778
19925WAT     H160017   3.992   0.224   8.737
19925WAT     H260018   4.001   0.061   8.741
19926WAT      O60019   4.998   4.129   3.419
19926WAT     H160020   5.048   4.214   3.433
19926WAT     H260021   4.960   4.097   3.506
19927WAT      O60022   0.767   5.887   7.149
19927WAT     H160023   0.688   5.942   7.124
19927WAT     H260024   0.773   5.880   7.249
19928WAT      O60025   6.356   5.433   5.602
19928WAT     H160026   6.402   5.415   5.689
19928WAT     H260027   6.405   5.505   5.553
19929WAT      O60028   5.471   1.411   0.027
19929WAT     H160029   5.538   1.402   0.101
19929WAT     H260030   5.419   1.495   0.040
19930WAT      O60031   7.894   3.853   9.674
19930WAT     H160032   7.818   3.817   9.728
19930WAT     H260033   7.921   3.785   9.606
19931WAT      O60034   2.733   4.328   8.218
19931WAT     H160035   2.802   4.334   8.289
19931WAT     H260036   2.749   4.398   8.148
19932WAT      O60037   8.986   4.973   3.615
19932WAT     H160038   9.073   5.020   3.630
19932WAT     H260039   8.952   4.937   3.702
19933WAT      O60040   3.914   6.465   1.448
19933WAT     H160041   3.870   6.401   1.511
19933WAT     H260042   3.965   6.415   1.379
19934WAT      O60043   8.491   6.133   0.893
19934WAT     H160044   8.481   6.213   0.952
19934WAT     H260045   8.445   6.054   0.933
19935WAT      O60046   5.587   7.259   6.283
19935WAT     H160047   5.616   7.341   6.332
19935WAT     H260048   5.489   7.266   6.262
19936WAT      O60049   6.366   1.215   5.047
19936WAT     H160050   6.379   1.127   5.000
19936WAT     H260051   6.440   1.277   5.023
19937WAT      O60052   3.228   0.482   2.357
19937WAT     H160053   3.293   0.557   2.347
19937WAT     H260054   3.254   0.426   2.435
19938WAT      O60055   1.480   1.388   8.692
19938WAT     H160056   1.446   1.295   8.704
19938WAT     H260057   1.580   1.387   8.691
19939WAT      O60058   2.921   4.654   1.259
19939WAT     H160059   2.904   4.689   1.351
19939WAT     H260060   2.836   4.656   1.206
19940WAT      O60061   4.734   2.068   0.084
19940WAT     H160062   4.767   1.975   0.100
19940WAT     H260063   4.672   2.094   0.158
19941WAT      O60064   7.025   7.619   5.882
19941WAT     H160065   6.943   7.587   5.834
19941WAT     H260066   7.033   7.718   5.871
19942WAT      O60067   2.337   3.354   7.688
19942WAT     H160068   2.262   3.410   7.652
19942WAT     H260069   2.336   3.358   7.788
19943WAT      O60070   3.088   5.364   7.769
19943WAT     H160071   3.122   5.458   7.776
19943WAT     H260072   3.106   5.329   7.678
19944WAT      O60073   4.084   3.773   5.750
19944WAT     H160074   4.160   3.833   5.774
19944WAT     H260075   4.063   3.785   5.653
19945WAT      O60076   8.661   3.907   3.352
19945WAT     H160077   8.728   3.847   3.395
19945WAT     H260078   8.665   3.896   3.253
19946WAT      O60079   5.315   5.056   4.340
19946WAT     H160080   5.265   5.130   4.385
19946WAT     H260081   5.260   5.019   4.265
19947WAT      O60082   9.329   1.147   4.011
19947WAT     H160083   9.422   1.179   3.994
19947WAT     H260084   9.310   1.152   4.109
19948WAT      O60085   9.351   6.565   2.558
19948WAT     H160086   9.416   6.627   2.602
19948WAT     H260087   9.337   6.593   2.463
19949WAT      O60088   4.934   7.217   6.959
19949WAT     H160089   4.956   7.149   6.889
19949WAT     H260090   4.835   7.221   6.972
19950WAT      O60091   5.055   8.951   0.412
19950WAT     H160092   4.978   8.984   0.466
19950WAT     H260093   5.022   8.895   0.337
19951WAT      O60094   3.501   2.325   2.260
19951WAT     H160095   3.432   2.275   2.208
19951WAT     H260096   3.457   2.386   2.325
19952WAT      O60097   3.895   2.984   6.844
19952WAT     H160098   3.827   2.913   6.860
19952WAT     H260099   3.871   3.066   6.896
19953WAT      O60100   9.488   1.413   2.819
19953WAT     H160101   9.539   1.381   2.739
19953WAT     H260102   9.443   1.335   2.862
19954WAT      O60103   7.704   5.571   9.332
19954WAT     H160104   7.796   5.601   9.305
19954WAT     H260105   7.637   5.641   9.307
19955WAT      O60106   9.017   1.080   7.493
19955WAT     H160107   9.099   1.066   7.549
19955WAT     H260108   9.043   1.103   7.400
19956WAT      O60109   5.382   2.686   5.186
19956WAT     H160110   5.328   2.735   5.118
19956WAT     H260111   5.330   2.608   5.221
19957WAT      O60112   5.422   3.421   2.936
19957WAT     H160113   5.341   3.473   2.965
19957WAT     H260114   5.502   3.454   2.986
19958WAT      O60115   0.625   6.576   7.242
19958WAT     H160116   0.704   6.519   7.267
19958WAT     H260117   0.542   6.535   7.279
19959WAT      O60118   3.963   2.807   5.531
19959WAT     H160119   3.914   2.880   5.579
19959WAT     H260120   3.898   2.736   5.504
19960WAT      O60121   7.394   8.583   3.721
19960WAT     H160122   7.375   8.594   3.818
19960WAT     H260123   7.479   8.533   3.709
19961WAT      O60124   5.602   1.905   2.062
19961WAT     H160125   5.618   2.004   2.065
19961WAT     H260126   5.504   1.887   2.059
19962WAT      O60127   2.299   2.426   8.606
19962WAT     H160128   2.379   2.476   8.572
19962WAT     H260129   2.238   2.405   8.529
19963WAT      O60130   3.836   3.974   2.198
19963WAT     H160131   3.803   3.889   2.155
19963WAT     H260132   3.757   4.030   2.223
19964WAT      O60133   1.617   6.793   6.664
19964WAT     H160134   1.561   6.805   6.746
19964WAT     H260135   1.683   6.719   6.679
19965WAT      O60136   8.205   7.403   7.253
19965WAT     H160137   8.300   7.407   7.221
19965WAT     H260138   8.191   7.319   7.305
19966WAT      O60139   9.807   9.770   1.433
19966WAT     H160140   9.738   9.810   1.493
19966WAT     H260141   9.890   9.827   1.435
19967WAT      O60142   4.324   8.835   2.995
19967WAT     H160143   4.355   8.907   3.058
19967WAT     H260144   4.404   8.794   2.950
19968WAT      O60145   4.710   9.062   8.727
19968WAT     H160146   4.746   9.006   8.801
19968WAT     H260147   4.730   9.158   8.745
19969WAT      O60148   7.494   0.724   2.722
19969WAT     H160149   7.543   0.658   2.665
19969WAT     H260150   7.507   0.701   2.818
19970WAT      O60151   6.025   4.182   1.800
19970WAT     H160152   6.080   4.144   1.726
19970WAT     H260153   6.050   4.138   1.887
19971WAT      O60154   3.801   1.200   6.791
19971WAT     H160155   3.799   1.102   6.775
19971WAT     H260156   3.724   1.227   6.849
19972WAT      O60157   2.309   1.514   1.044
19972WAT     H160158   2.287   1.430   1.094
19972WAT     H260159   2.374   1.492   0.971
19973WAT      O60160   6.909   6.617   3.142
19973WAT     H160161   6.865   6.548   3.200
19973WAT     H260162   6.951   6.687   3.199
19974WAT      O60163   7.761   2.490   2.928
19974WAT     H160164   7.724   2.421   2.865
19974WAT     H260165   7.840   2.534   2.886
19975WAT      O60166   8.678   1.190   5.376
19975WAT     H160167   8.662   1.209   5.473
19975WAT     H260168   8.607   1.130   5.342
19976WAT      O60169   6.610   6.820   8.300
19976WAT     H160170   6.627   6.814   8.398
19976WAT     H260171   6.644   6.737   8.255
19977WAT      O60172   2.205   9.036   0.750
19977WAT     H160173   2.211   9.023   0.651
19977WAT     H260174   2.297   9.038   0.789
19978WAT      O60175   2.080   9.306   1.097
19978WAT     H160176   2.169   9.294   1.141
19978WAT     H260177   2.083   9.266   1.006
19979WAT      O60178   1.313   5.601   1.673
19979WAT     H160179   1.236   5.543   1.698
19979WAT     H260180   1.362   5.629   1.755
19980WAT      O60181   4.487   4.590   7.979
19980WAT     H160182   4.574   4.606   7.933
19980WAT     H260183   4.427   4.538   7.918
19981WAT      O60184   6.630   4.023   8.948
19981WAT     H160185   6.644   4.119   8.924
19981WAT     H260186   6.715   3.984   8.981
19982WAT      O60187   9.309   4.523   1.237
19982WAT     H160188   9.399   4.528   1.281
19982WAT     H260189   9.291   4.607   1.186
19983WAT      O60190   7.861   4.884   0.983
19983WAT     H160191   7.830   4.957   0.922
19983WAT     H260192   7.961   4.887   0.989
19984WAT      O60193   3.446   0.358   4.892
19984WAT     H160194   3.396   0.359   4.805
19984WAT     H260195   3.516   0.286   4.889
19985WAT      O60196   8.107   8.796   0.537
19985WAT     H160197   8.021   8.837   0.564
19985WAT     H260198   8.138   8.834   0.451
19986WAT      O60199   3.043   3.625   2.223
19986WAT     H160200   3.113   3.669   2.279
19986WAT     H260201   2.976   3.581   2.283
19987WAT      O60202   3.938   9.122   3.487
19987WAT     H160203   3.937   9.179   3.569
19987WAT     H260204   4.020   9.065   3.487
19988WAT      O60205   2.681   0.308   9.286
19988WAT     H160206   2.608   0.303   9.218
19988WAT     H260207   2.712   0.402   9.296
19989WAT      O60208   1.949   9.404   8.054
19989WAT     H160209   1.955   9.454   7.968
19989WAT     H260210   1.998   9.454   8.125
19990WAT      O60211   5.674   7.048   2.861
19990WAT     H160212   5.692   6.976   2.794
19990WAT     H260213   5.760   7.090   2.888
19991WAT      O60214   9.026   8.963   3.141
19991WAT     H160215   9.082   9.023   3.198
19991WAT     H260216   8.951   9.015   3.101
19992WAT      O60217   4.813   5.490   5.801
19992WAT     H160218   4.741   5.432   5.764
19992WAT     H260219   4.878   5.512   5.729
19993WAT      O60220   2.424   3.316   3.857
19993WAT     H160221   2.481   3.352   3.784
19993WAT     H260222   2.476   3.313   3.942
19994WAT      O60223   3.508   5.997   5.437
19994WAT     H160224   3.563   5.938   5.379
19994WAT     H260225   3.554   6.085   5.449
19995WAT      O60226   6.159   5.676   1.942
19995WAT     H160227   6.166   5.704   2.037
19995WAT     H260228   6.072   5.628   1.928
19996WAT      O60229   5.261   7.842   7.359
19996WAT     H160230   5.286   7.765   7.302
19996WAT     H260231   5.211   7.910   7.304
19997WAT      O60232   4.405   3.252   6.912
19997WAT     H160233   4.402   3.309   6.994
19997WAT     H260234   4.314   3.214   6.895
19998WAT      O60235   9.296   1.400   2.394
19998WAT     H160236   9.328   1.494   2.410
19998WAT     H260237   9.313   1.376   2.298
19999WAT      O60238   1.999   3.288   1.177
19999WAT     H160239   2.005   3.189   1.190
19999WAT     H260240   1.963   3.331   1.260
20000WAT      O60241   3.007   3.807   1.342
20000WAT     H160242   3.090   3.828   1.393
20000WAT     H260243   3.006   3.859   1.256
20001WAT      O60244   6.921   8.214   1.163
20001WAT     H160245   7.019   8.192   1.156
20001WAT     H260246   6.887   8.183   1.251
20002WAT      O60247   3.179   1.140   7.757
20002WAT     H160248   3.177   1.158   7.658
20002WAT     H260249   3.226   1.215   7.803
20003WAT      O60250   0.799   0.912   2.669
20003WAT     H160251   0.719   0.858   2.695
20003WAT     H260252   0.864   0.855   2.619
20004WAT      O60253   5.931   7.286   7.531
20004WAT     H160254   5.955   7.200   7.487
20004WAT     H260255   5.929   7.359   7.463
20005WAT      O60256   5.355   4.266   8.006
20005WAT     H160257   5.274   4.234   8.054
20005WAT     H260258   5.425   4.295   8.072
20006WAT      O60259   7.090   9.074   7.732
20006WAT     H160260   7.004   9.109   7.697
20006WAT     H260261   7.149   9.150   7.759
20007WAT      O60262   0.032   1.176   0.216
20007WAT     H160263   0.074   1.126   0.292
20007WAT     H260264  -0.016   1.111   0.156
20008WAT      O60265   7.614   7.286   3.380
20008WAT     H160266   7.671   7.233   3.316
20008WAT     H260267   7.636   7.259   3.474
20009WAT      O60268   6.226   1.235   1.072
20009WAT     H160269   6.182   1.234   0.982
20009WAT     H260270   6.307   1.177   1.072
20010WAT      O60271   3.777   7.851   3.501
20010WAT     H160272   3.851   7.797   3.461
20010WAT     H260273   3.751   7.811   3.589
20011WAT      O60274   8.909   7.264   7.048
20011WAT     H160275   8.887   7.251   6.952
20011WAT     H260276   8.980   7.335   7.056
20012WAT      O60277   1.618   1.414   4.255
20012WAT     H160278   1.572   1.325   4.256
20012WAT     H260279   1.645   1.436   4.162
20013WAT      O60280   0.656   1.092   6.069
20013WAT     H160281   0.743   1.049   6.093
20013WAT     H260282   0.592   1.081   6.146
20014WAT      O60283   6.621   5.807   1.762
20014WAT     H160284   6.681   5.885   1.742
20014WAT     H260285   6.621   5.744   1.684
20015WAT      O60286   0.379   2.006   2.914
20015WAT     H160287   0.339   1.924   2.956
20015WAT     H260288   0.434   2.055   2.981
20016WAT      O60289   4.619   3.159   0.198
20016WAT     H160290   4.658   3.120   0.281
20016WAT     H260291   4.674   3.133   0.119
20017WAT      O60292   2.111   3.026   7.388
20017WAT     H160293   2.118   3.121   7.417
20017WAT     H260294   2.182   2.972   7.433
20018WAT      O60295   0.318   9.568   4.998
20018WAT     H160296   0.324   9.570   5.097
20018WAT     H260297   0.256   9.494   4.970
20019WAT      O60298   4.046   7.497   5.932
20019WAT     H160299   4.121   7.497   5.998
20019WAT     H260300   4.084   7.487   5.839
20020WAT      O60301   0.130   7.635   2.694
20020WAT     H160302   0.202   7.648   2.762
20020WAT     H260303   0.149   7.692   2.615
20021WAT      O60304   7.175   5.005   6.205
20021WAT     H160305   7.160   4.955   6.119
20021WAT     H260306   7.256   4.967   6.251
20022WAT      O60307   8.927   0.697   0.519
20022WAT     H160308   8.910   0.764   0.592
20022WAT     H260309   9.025   0.691   0.502
20023WAT      O60310   5.369   1.565   3.758
20023WAT     H160311   5.461   1.597   3.782
20023WAT     H260312   5.329   1.625   3.689
20024WAT      O60313   4.281   1.405   4.754
20024WAT     H160314   4.214   1.387   4.825
20024WAT     H260315   4.336   1.485   4.779
20025WAT      O60316   6.224   8.810   8.253
20025WAT     H160317   6.199   8.778   8.162
20025WAT     H260318   6.213   8.909   8.258
20026WAT      O60319   7.453   0.397   0.153
20026WAT     H160320   7.488   0.491   0.150
20026WAT     H260321   7.526   0.336   0.185
20027WAT      O60322   4.903   7.571   8.885
20027WAT     H160323   4.867   7.480   8.904
20027WAT     H260324   4.996   7.563   8.850
20028WAT      O60325   6.755   4.136   6.120
20028WAT     H160326   6.749   4.176   6.028
20028WAT     H260327   6.677   4.075   6.135
20029WAT      O60328   1.663   4.160   8.316
20029WAT     H160329   1.611   4.100   8.377
20029WAT     H260330   1.619   4.250   8.312
20030WAT      O60331   1.686   6.203   1.314
20030WAT     H160332   1.656   6.280   1.371
20030WAT     H260333   1.633   6.122   1.336
20031WAT      O60334   8.827   8.737   1.141
20031WAT     H160335   8.852   8.832   1.160
20031WAT     H260336   8.770   8.734   1.059
20032WAT      O60337   9.738   4.052   9.815
20032WAT     H160338   9.812   4.119   9.808
20032WAT     H260339   9.770   3.972   9.866
20033WAT      O60340   3.476   6.142   3.868
20033WAT     H160341   3.492   6.143   3.967
20033WAT     H260342   3.465   6.048   3.837
20034WAT      O60343   1.295   2.024   0.101
20034WAT     H160344   1.242   2.076   0.034
20034WAT     H260345   1.276   1.926   0.089
20035WAT      O60346   0.401   9.367   3.068
20035WAT     H160347   0.443   9.381   2.979
20035WAT     H260348   0.369   9.273   3.076
20036WAT      O60349   3.656   0.924   1.399
20036WAT     H160350   3.665   0.880   1.488
20036WAT     H260351   3.628   1.019   1.411
20037WAT      O60352   8.326   7.394   6.915
20037WAT     H160353   8.303   7.297   6.922
20037WAT     H260354   8.373   7.423   6.998
20038WAT      O60355   2.734   8.198   9.445
20038WAT     H160356   2.800   8.141   9.396
20038WAT     H260357   2.771   8.290   9.455
20039WAT      O60358   4.681   5.064   2.280
20039WAT     H160359   4.625   5.127   2.334
20039WAT     H260360   4.625   5.022   2.209
20040WAT      O60361   0.399   1.000   7.209
20040WAT     H160362   0.310   0.973   7.172
20040WAT     H260363   0.387   1.075   7.274
20041WAT      O60364   0.230   5.728   2.466
20041WAT     H160365   0.212   5.666   2.390
20041WAT     H260366   0.195   5.819   2.443
20042WAT      O60367   8.157   9.737   9.778
20042WAT     H160368   8.101   9.816   9.802
20042WAT     H260369   8.172   9.680   9.859
20043WAT      O60370   8.879   0.849   2.748
20043WAT     H160371   8.849   0.852   2.843
20043WAT     H260372   8.802   0.874   2.688
20044WAT      O60373   3.293   5.622   9.332
20044WAT     H160374   3.386   5.618   9.370
20044WAT     H260375   3.229   5.579   9.396
20045WAT      O60376   5.205   3.486   2.244
20045WAT     H160377   5.172   3.553   2.311
20045WAT     H260378   5.164   3.505   2.155
20046WAT      O60379   4.078   0.750   2.472
20046WAT     H160380   3.998   0.708   2.515
20046WAT     H260381   4.101   0.700   2.389
20047WAT      O60382   1.476   9.840   4.397
20047WAT     H160383   1.558   9.896   4.381
20047WAT     H260384   1.461   9.830   4.495
20048WAT      O60385   2.326   7.770   2.978
20048WAT     H160386   2.337   7.729   3.068
20048WAT     H260387   2.308   7.699   2.910
20049WAT      O60388   2.885   7.265   0.600
20049WAT     H160389   2.870   7.363   0.587
20049WAT     H260390   2.837   7.235   0.683
20050WAT      O60391   9.183   9.641   2.770
20050WAT     H160392   9.091   9.605   2.789
20050WAT     H260393   9.241   9.567   2.737
20051WAT      O60394   9.123   2.512   0.940
20051WAT     H160395   9.041   2.535   0.887
20051WAT     H260396   9.204   2.544   0.891
20052WAT      O60397   9.596   0.805   7.972
20052WAT     H160398   9.528   0.758   7.917
20052WAT     H260399   9.682   0.753   7.972
20053WAT      O60400   9.800   5.748   6.259
20053WAT     H160401   9.835   5.722   6.349
20053WAT     H260402   9.861   5.713   6.188
20054WAT      O60403   4.904   2.614   8.902
20054WAT     H160404   4.959   2.548   8.955
20054WAT     H260405   4.816   2.573   8.880
20055WAT      O60406   6.099   1.154   7.681
20055WAT     H160407   6.070   1.184   7.772
20055WAT     H260408   6.141   1.063   7.688
20056WAT      O60409   7.359   4.642   8.909
20056WAT     H160410   7.445   4.631   8.959
20056WAT     H260411   7.378   4.651   8.811
20057WAT      O60412   3.101   6.486   9.750
20057WAT     H160413   3.199   6.488   9.733
20057WAT     H260414   3.082   6.435   9.834
20058WAT      O60415   9.858   1.573   4.847
20058WAT     H160416   9.770   1.600   4.809
20058WAT     H260417   9.925   1.566   4.772
20059WAT      O60418   5.974   2.121   3.810
20059WAT     H160419   6.048   2.188   3.810
20059WAT     H260420   5.921   2.129   3.895
20060WAT      O60421   8.325   9.530   1.007
20060WAT     H160422   8.228   9.555   1.008
20060WAT     H260423   8.361   9.535   1.101
20061WAT      O60424   5.798   3.880   5.844
20061WAT     H160425   5.809   3.803   5.908
20061WAT     H260426   5.728   3.857   5.776
20062WAT      O60427   3.560   1.788   2.026
20062WAT     H160428   3.593   1.780   1.932
20062WAT     H260429   3.524   1.881   2.040
20063WAT      O60430   8.776   0.418   8.298
20063WAT     H160431   8.780   0.484   8.223
20063WAT     H260432   8.709   0.450   8.366
20064WAT      O60433   2.585   0.296   6.106
20064WAT     H160434   2.492   0.320   6.077
20064WAT     H260435   2.641   0.378   6.113
20065WAT      O60436   0.514   0.171   6.944
20065WAT     H160437   0.497   0.155   7.041
20065WAT     H260438   0.428   0.184   6.896
20066WAT      O60439   1.085   6.057   1.770
20066WAT     H160440   1.080   5.959   1.753
20066WAT     H260441   0.996   6.089   1.803
20067WAT      O60442   0.341   0.393   8.571
20067WAT     H160443   0.379   0.433   8.488
20067WAT     H260444   0.395   0.314   8.598
20068WAT      O60445   0.987   5.683   4.800
20068WAT     H160446   0.983   5.706   4.897
20068WAT     H260447   0.917   5.735   4.751
20069WAT      O60448   0.774   0.590   0.660
20069WAT     H160449   0.679   0.575   0.685
20069WAT     H260450   0.830   0.516   0.696
20070WAT      O60451   5.654   3.524   8.386
20070WAT     H160452   5.644   3.431   8.352
20070WAT     H260453   5.711   3.524   8.468
20071WAT      O60454   6.674   9.631   5.977
20071WAT     H160455   6.647   9.661   5.886
20071WAT     H260456   6.706   9.710   6.030
20072WAT      O60457   4.152   4.347   1.836
20072WAT     H160458   4.172   4.363   1.933
20072WAT     H260459   4.237   4.341   1.785
20073WAT      O60460   8.324   6.613   4.176
20073WAT     H160461   8.260   6.650   4.242
20073WAT     H260462   8.274   6.575   4.098
20074WAT      O60463   2.948   6.389   4.926
20074WAT     H160464   2.938   6.342   5.013
20074WAT     H260465   2.862   6.384   4.875
20075WAT      O60466   1.068   8.204   7.990
20075WAT     H160467   0.983   8.190   7.939
20075WAT     H260468   1.094   8.301   7.986
20076WAT      O60469   4.147   0.823   6.365
20076WAT     H160470   4.137   0.866   6.455
20076WAT     H260471   4.100   0.734   6.365
20077WAT      O60472   2.068   8.524   9.568
20077WAT     H160473   2.105   8.432   9.557
20077WAT     H260474   1.968   8.520   9.563
20078WAT      O60475   1.550   8.756   7.950
20078WAT     H160476   1.639   8.760   7.904
20078WAT     H260477   1.542   8.833   8.014
20079WAT      O60478   9.073   1.832   6.027
20079WAT     H160479   9.123   1.745   6.027
20079WAT     H260480   9.096   1.883   5.944
20080WAT      O60481   9.366   9.380   3.069
20080WAT     H160482   9.282   9.360   3.020
20080WAT     H260483   9.423   9.298   3.075
20081WAT      O60484   8.532   0.822   7.739
20081WAT     H160485   8.491   0.886   7.674
20081WAT     H260486   8.629   0.810   7.718
20082WAT      O60487   4.825   0.613   8.337
20082WAT     H160488   4.796   0.596   8.432
20082WAT     H260489   4.854   0.708   8.328
20083WAT      O60490   8.026   3.270   2.453
20083WAT     H160491   8.013   3.369   2.451
20083WAT     H260492   8.124   3.250   2.462
20084WAT      O60493   5.403   8.216   0.356
20084WAT     H160494   5.335   8.194   0.286
20084WAT     H260495   5.404   8.143   0.425
20085WAT      O60496   2.651   1.628   9.438
20085WAT     H160497   2.567   1.583   9.469
20085WAT     H260498   2.706   1.564   9.385
20086WAT      O60499   9.336   1.707   3.129
20086WAT     H160500   9.399   1.718   3.053
20086WAT     H260501   9.345   1.616   3.168
20087WAT      O60502   9.261   8.560   5.961
20087WAT     H160503   9.244   8.652   5.927
20087WAT     H260504   9.284   8.500   5.884
20088WAT      O60505   5.590   2.984   7.656
20088WAT     H160506   5.653   2.912   7.624
20088WAT     H260507   5.623   3.073   7.624
20089WAT      O60508   4.424   5.507   0.852
20089WAT     H160509   4.332   5.501   0.812
20089WAT     H260510   4.466   5.416   0.853
20090WAT      O60511   1.786   1.949   0.660
20090WAT     H160512   1.852   2.011   0.702
20090WAT     H260513   1.709   1.934   0.722
20091WAT      O60514   0.836   3.863   2.360
20091WAT     H160515   0.788   3.950   2.367
20091WAT     H260516   0.918   3.875   2.303
20092WAT      O60517   4.302   5.620   8.670
20092WAT     H160518   4.311   5.675   8.753
20092WAT     H260519   4.384   5.633   8.614
20093WAT      O60520   1.411   2.102   4.655
20093WAT     H160521   1.453   2.067   4.572
20093WAT     H260522   1.330   2.156   4.632
20094WAT      O60523   0.867   8.792   6.599
20094WAT     H160524   0.932   8.815   6.526
20094WAT     H260525   0.909   8.726   6.661
20095WAT      O60526   8.696   8.245   7.141
20095WAT     H160527   8.747   8.191   7.208
20095WAT     H260528   8.739   8.233   7.051
20096WAT      O60529   5.841   6.412   8.439
20096WAT     H160530   5.767   6.434   8.376
20096WAT     H260531   5.812   6.340   8.502
20097WAT      O60532   7.597   2.647   1.008
20097WAT     H160533   7.513   2.691   0.976
20097WAT     H260534   7.609   2.666   1.106
20098WAT      O60535   5.481   3.332   3.904
20098WAT     H160536   5.466   3.233   3.900
20098WAT     H260537   5.414   3.379   3.847
20099WAT      O60538   3.323   2.003   0.112
20099WAT     H160539   3.388   1.939   0.074
20099WAT     H260540   3.243   2.010   0.052
20100WAT      O60541   7.900   0.467   6.544
20100WAT     H160542   7.859   0.376   6.538
20100WAT     H260543   7.999   0.460   6.533
20101WAT      O60544   1.253   4.996   7.170
20101WAT     H160545   1.290   5.076   7.218
20101WAT     H260546   1.201   4.940   7.235
20102WAT      O60547   2.236   4.153   5.110
20102WAT     H160548   2.158   4.090   5.117
20102WAT     H260549   2.253   4.174   5.013
20103WAT      O60550   0.169   0.646   8.302
20103WAT     H160551   0.149   0.550   8.282
20103WAT     H260552   0.177   0.697   8.217
20104WAT      O60553   4.658   8.554   2.351
20104WAT     H160554   4.696   8.590   2.265
20104WAT     H260555   4.596   8.478   2.331
20105WAT      O60556   1.098   6.006   8.336
20105WAT     H160557   1.129   6.054   8.254
20105WAT     H260558   1.072   6.073   8.406
20106WAT      O60559   4.601   1.222   7.300
20106WAT     H160560   4.631   1.165   7.376
20106WAT     H260561   4.519   1.272   7.327
20107WAT      O60562   8.008   6.189   8.752
20107WAT     H160563   7.928   6.189   8.812
20107WAT     H260564   8.013   6.103   8.701
20108WAT      O60565   7.244   1.268   4.545
20108WAT     H160566   7.237   1.327   4.625
20108WAT     H260567   7.333   1.279   4.503
20109WAT      O60568   3.548   3.279   0.498
20109WAT     H160569   3.616   3.348   0.520
20109WAT     H260570   3.473   3.321   0.447
20110WAT      O60571   2.066   8.320   1.038
20110WAT     H160572   2.132   8.312   0.962
20110WAT     H260573   2.029   8.229   1.058
20111WAT      O60574   5.736   5.058   3.278
20111WAT     H160575   5.784   5.078   3.363
20111WAT     H260576   5.705   5.144   3.236
20112WAT      O60577   3.143   4.303   0.078
20112WAT     H160578   3.149   4.314   0.177
20112WAT     H260579   3.171   4.388   0.034
20113WAT      O60580   8.815   9.659   7.904
20113WAT     H160581   8.847   9.569   7.873
20113WAT     H260582   8.877   9.693   7.974
20114WAT      O60583   8.658   8.383   4.392
20114WAT     H160584   8.629   8.288   4.380
20114WAT     H260585   8.754   8.385   4.420
20115WAT      O60586   2.810   0.581   7.801
20115WAT     H160587   2.827   0.483   7.804
20115WAT     H260588   2.744   0.601   7.729
20116WAT      O60589   3.104   1.608   0.502
20116WAT     H160590   3.033   1.564   0.557
20116WAT     H260591   3.070   1.695   0.467
20117WAT      O60592   9.390   0.671   2.999
20117WAT     H160593   9.433   0.681   2.910
20117WAT     H260594   9.294   0.647   2.987
20118WAT      O60595   6.722   4.721   2.547
20118WAT     H160596   6.718   4.779   2.629
20118WAT     H260597   6.811   4.676   2.542
20119WAT      O60598   2.352   9.811   9.015
20119WAT     H160599   2.256   9.796   9.038
20119WAT     H260600   2.405   9.728   9.036
20120WAT      O60601   7.716   2.624   0.780
20120WAT     H160602   7.793   2.561   0.773
20120WAT     H260603   7.672   2.614   0.869
20121WAT      O60604   1.083   7.956   3.821
20121WAT     H160605   1.178   7.932   3.803
20121WAT     H260606   1.065   7.954   3.919
20122WAT      O60607   5.450   0.270   9.445
20122WAT     H160608   5.471   0.173   9.455
20122WAT     H260609   5.455   0.314   9.535
20123WAT      O60610   5.211   6.496   4.106
20123WAT     H160611   5.149   6.421   4.132
20123WAT     H260612   5.275   6.463   4.037
20124WAT      O60613   0.539   9.336   6.430
20124WAT     H160614   0.563   9.369   6.522
20124WAT     H260615   0.543   9.236   6.429
20125WAT      O60616   6.684   1.444   8.003
20125WAT     H160617   6.742   1.371   7.964
20125WAT     H260618   6.639   1.493   7.928
20126WAT      O60619   3.158   5.292   4.620
20126WAT     H160620   3.083   5.309   4.685
20126WAT     H260621   3.245   5.300   4.667
20127WAT      O60622   4.747   3.296   8.515
20127WAT     H160623   4.743   3.263   8.610
20127WAT     H260624   4.682   3.371   8.503
20128WAT      O60625   5.423   6.684   6.625
20128WAT     H160626   5.485   6.722   6.693
20128WAT     H260627   5.474   6.657   6.544
20129WAT      O60628   6.901   3.369   4.398
20129WAT     H160629   6.944   3.324   4.320
20129WAT     H260630   6.805   3.342   4.404
20130WAT      O60631   5.175   0.803   7.747
20130WAT     H160632   5.219   0.744   7.815
20130WAT     H260633   5.124   0.876   7.793
20131WAT      O60634   7.807   7.006   5.726
20131WAT     H160635   7.855   7.033   5.809
20131WAT     H260636   7.793   6.907   5.726
20132WAT      O60637   1.224   1.813   4.800
20132WAT     H160638   1.259   1.894   4.847
20132WAT     H260639   1.252   1.731   4.849
20133WAT      O60640   2.378   9.823   0.480
20133WAT     H160641   2.458   9.770   0.453
20133WAT     H260642   2.296   9.769   0.464
20134WAT      O60643   9.484   5.537   4.177
20134WAT     H160644   9.503   5.483   4.259
20134WAT     H260645   9.418   5.609   4.198
20135WAT      O60646   2.251   0.666   4.071
20135WAT     H160647   2.258   0.727   4.150
20135WAT     H260648   2.276   0.716   3.988
20136WAT      O60649   6.630   4.308   2.403
20136WAT     H160650   6.639   4.228   2.463
20136WAT     H260651   6.545   4.356   2.425
20137WAT      O60652   7.112   7.631   8.308
20137WAT     H160653   7.080   7.686   8.385
20137WAT     H260654   7.047   7.557   8.291
20138WAT      O60655   5.031   0.374   3.833
20138WAT     H160656   5.117   0.372   3.883
20138WAT     H260657   5.048   0.397   3.737
20139WAT      O60658   7.170   3.561   6.879
20139WAT     H160659   7.239   3.490   6.867
20139WAT     H260660   7.080   3.517   6.893
20140WAT      O60661   2.822   6.170   6.902
20140WAT     H160662   2.836   6.206   6.995
20140WAT     H260663   2.910   6.163   6.856
20141WAT      O60664   5.895   7.658   2.442
20141WAT     H160665   5.916   7.590   2.513
20141WAT     H260666   5.956   7.644   2.364
20142WAT      O60667   3.514   0.040   1.722
20142WAT     H160668   3.498   0.029   1.820
20142WAT     H260669   3.500   0.136   1.697
20143WAT      O60670   1.174   8.567   3.995
20143WAT     H160671   1.157   8.536   3.902
20143WAT     H260672   1.195   8.489   4.053
20144WAT      O60673   1.718   0.575   9.652
20144WAT     H160674   1.648   0.507   9.672
20144WAT     H260675   1.807   0.529   9.643
20145WAT      O60676   9.411   6.177   9.390
20145WAT     H160677   9.464   6.098   9.359
20145WAT     H260678   9.467   6.260   9.384
20146WAT      O60679   5.634   8.125   6.954
20146WAT     H160680   5.537   8.102   6.960
20146WAT     H260681   5.662   8.171   7.038
20147WAT      O60682   3.058   5.263   6.265
20147WAT     H160683   2.996   5.191   6.234
20147WAT     H260684   3.148   5.224   6.283
20148WAT      O60685   1.800   0.332   0.699
20148WAT     H160686   1.771   0.426   0.681
20148WAT     H260687   1.731   0.286   0.755
20149WAT      O60688   7.165   3.074   4.712
20149WAT     H160689   7.066   3.058   4.702
20149WAT     H260690   7.197   3.130   4.635
20150WAT      O60691   1.967   6.570   1.566
20150WAT     H160692   1.950   6.536   1.659
20150WAT     H260693   1.932   6.503   1.500
20151WAT      O60694   3.301   3.953   6.913
20151WAT     H160695   3.257   3.867   6.937
20151WAT     H260696   3.400   3.942   6.915
20152WAT      O60697   1.979   2.623   5.323
20152WAT     H160698   2.029   2.708   5.341
20152WAT     H260699   1.890   2.627   5.370
20153WAT      O60700   1.925   2.427   4.388
20153WAT     H160701   1.837   2.450   4.347
20153WAT     H260702   1.911   2.358   4.459
20154WAT      O60703   8.744   2.919   7.715
20154WAT     H160704   8.648   2.905   7.689
20154WAT     H260705   8.803   2.868   7.653
20155WAT      O60706   0.241   6.578   2.260
20155WAT     H160707   0.336   6.606   2.247
20155WAT     H260708   0.197   6.636   2.328
20156WAT      O60709   1.161   1.163   1.977
20156WAT     H160710   1.257   1.143   1.957
20156WAT     H260711   1.103   1.100   1.926
20157WAT      O60712   5.542   6.366   8.066
20157WAT     H160713   5.458   6.316   8.087
20157WAT     H260714   5.601   6.309   8.009
20158WAT      O60715   7.037   9.736   5.337
20158WAT     H160716   7.082   9.817   5.373
20158WAT     H260717   7.070   9.655   5.386
20159WAT      O60718   7.624   2.359   7.752
20159WAT     H160719   7.556   2.367   7.824
20159WAT     H260720   7.667   2.448   7.737
20160WAT      O60721   2.818   5.056   2.104
20160WAT     H160722   2.779   5.077   2.194
20160WAT     H260723   2.808   4.958   2.086
20161WAT      O60724   8.644   9.491   3.080
20161WAT     H160725   8.552   9.496   3.119
20161WAT     H260726   8.698   9.425   3.132
20162WAT      O60727   2.627   0.350   6.917
20162WAT     H160728   2.651   0.432   6.968
20162WAT     H260729   2.596   0.376   6.825
20163WAT      O60730   9.366   6.354   9.742
20163WAT     H160731   9.465   6.337   9.737
20163WAT     H260732   9.348   6.451   9.729
20164WAT      O60733   0.662   3.949   0.383
20164WAT     H160734   0.655   3.945   0.483
20164WAT     H260735   0.584   4.000   0.347
20165WAT      O60736   6.940   2.524   0.378
20165WAT     H160737   6.879   2.488   0.307
20165WAT     H260738   6.975   2.613   0.349
20166WAT      O60739   1.366   4.705   7.159
20166WAT     H160740   1.345   4.771   7.087
20166WAT     H260741   1.429   4.746   7.225
20167WAT      O60742   9.482   8.738   2.785
20167WAT     H160743   9.560   8.726   2.847
20167WAT     H260744   9.515   8.766   2.695
20168WAT      O60745   0.684   3.221   7.975
20168WAT     H160746   0.762   3.247   8.033
20168WAT     H260747   0.611   3.184   8.033
20169WAT      O60748   3.077   8.492   5.792
20169WAT     H160749   3.021   8.508   5.711
20169WAT     H260750   3.078   8.574   5.849
20170WAT      O60751   0.698   1.536   5.721
20170WAT     H160752   0.606   1.510   5.751
20170WAT     H260753   0.764   1.467   5.753
20171WAT      O60754   5.984   1.196   5.637
20171WAT     H160755   5.998   1.103   5.604
20171WAT     H260756   5.967   1.195   5.736
20172WAT      O60757   0.082   5.689   3.192
20172WAT     H160758   0.139   5.611   3.216
20172WAT     H260759   0.072   5.749   3.271
20173WAT      O60760   4.269   9.617   1.896
20173WAT     H160761   4.244   9.657   1.985
20173WAT     H260762   4.274   9.690   1.828
20174WAT      O60763   1.712   2.403   4.197
20174WAT     H160764   1.729   2.368   4.105
20174WAT     H260765   1.682   2.328   4.256
20175WAT      O60766   8.486   9.752   2.095
20175WAT     H160767   8.496   9.837   2.148
20175WAT     H260768   8.530   9.677   2.144
20176WAT      O60769   3.125   7.950   4.031
20176WAT     H160770   3.033   7.974   4.062
20176WAT     H260771   3.155   7.866   4.077
20177WAT      O60772   0.808   2.200   5.449
20177WAT     H160773   0.897   2.154   5.451
20177WAT     H260774   0.735   2.132   5.453
20178WAT      O60775   6.607   1.513   6.347
20178WAT     H160776   6.552   1.582   6.299
20178WAT     H260777   6.593   1.424   6.304
20179WAT      O60778   5.262   5.899   0.511
20179WAT     H160779   5.309   5.811   0.510
20179WAT     H260780   5.301   5.957   0.582
20180WAT      O60781   0.592   2.089   6.666
20180WAT     H160782   0.563   2.140   6.585
20180WAT     H260783   0.692   2.093   6.673
20181WAT      O60784   2.249   4.747   3.528
20181WAT     H160785   2.327   4.688   3.547
20181WAT     H260786   2.184   4.698   3.469
20182WAT      O60787   2.023   6.248   3.737
20182WAT     H160788   1.999   6.291   3.824
20182WAT     H260789   1.977   6.159   3.731
20183WAT      O60790   9.451   5.411   2.290
20183WAT     H160791   9.462   5.509   2.274
20183WAT     H260792   9.503   5.361   2.221
20184WAT      O60793   9.747   1.148   8.242
20184WAT     H160794   9.654   1.184   8.247
20184WAT     H260795   9.805   1.212   8.192
20185WAT      O60796   9.298   0.926   2.871
20185WAT     H160797   9.275   0.905   2.966
20185WAT     H260798   9.338   0.846   2.828
20186WAT      O60799   0.097   8.666   1.412
20186WAT     H160800   0.008   8.641   1.374
20186WAT     H260801   0.084   8.713   1.499
20187WAT      O60802   1.828   2.837   6.430
20187WAT     H160803   1.823   2.869   6.335
20187WAT     H260804   1.747   2.866   6.480
20188WAT      O60805   0.605   0.312   2.154
20188WAT     H160806   0.635   0.261   2.074
20188WAT     H260807   0.590   0.249   2.231
20189WAT      O60808   8.462   7.442   7.150
20189WAT     H160809   8.495   7.531   7.180
20189WAT     H260810   8.539   7.380   7.139
20190WAT      O60811   4.670   7.431   7.300
20190WAT     H160812   4.688   7.333   7.288
20190WAT     H260813   4.708   7.462   7.387
20191WAT      O60814   3.776   9.340   5.614
20191WAT     H160815   3.727   9.254   5.629
20191WAT     H260816   3.848   9.327   5.546
20192WAT      O60817   0.578   2.480   9.451
20192WAT     H160818   0.518   2.560   9.461
20192WAT     H260819   0.548   2.427   9.371
20193WAT      O60820   0.313   1.252   5.388
20193WAT     H160821   0.223   1.270   5.348
20193WAT     H260822   0.360   1.338   5.406
20194WAT      O60823   7.627   8.226   0.076
20194WAT     H160824   7.565   8.304   0.077
20194WAT     H260825   7.675   8.221  -0.011
20195WAT      O60826   4.050   8.338   7.113
20195WAT     H160827   4.002   8.391   7.182
20195WAT     H260828   4.024   8.370   7.022
20196WAT      O60829   7.834   1.067   0.591
20196WAT     H160830   7.880   1.018   0.665
20196WAT     H260831   7.769   1.133   0.630
20197WAT      O60832   9.463   6.463   7.034
20197WAT     H160833   9.522   6.395   6.992
20197WAT     H260834   9.370   6.426   7.042
20198WAT      O60835   2.875   7.688   6.610
20198WAT     H160836   2.780   7.684   6.639
20198WAT     H260837   2.919   7.769   6.649
20199WAT      O60838   9.156   4.017   0.391
20199WAT     H160839   9.224   3.944   0.382
20199WAT     H260840   9.113   4.034   0.303
20200WAT      O60841   8.279   7.788   7.169
20200WAT     H160842   8.238   7.768   7.258
20200WAT     H260843   8.372   7.825   7.182
20201WAT      O60844   3.085   6.815   1.835
20201WAT     H160845   3.004   6.837   1.781
20201WAT     H260846   3.132   6.900   1.860
20202WAT      O60847   2.113   5.721   7.504
20202WAT     H160848   2.129   5.800   7.445
20202WAT     H260849   2.040   5.665   7.466
20203WAT      O60850   0.939   4.069   6.328
20203WAT     H160851   0.885   3.989   6.302
20203WAT     H260852   1.036   4.052   6.308
20204WAT      O60853   2.269   8.834   7.851
20204WAT     H160854   2.273   8.814   7.949
20204WAT     H260855   2.307   8.757   7.800
20205WAT      O60856   2.736   3.511   6.724
20205WAT     H160857   2.680   3.431   6.747
20205WAT     H260858   2.796   3.533   6.801
20206WAT      O60859   4.789   6.835   7.240
20206WAT     H160860   4.796   6.746   7.196
20206WAT     H260861   4.860   6.896   7.206
20207WAT      O60862   9.054   4.020   3.216
20207WAT     H160863   9.128   4.065   3.166
20207WAT     H260864   9.006   4.087   3.272
20208WAT      O60865   4.041   2.185   3.466
20208WAT     H160866   4.067   2.192   3.562
20208WAT     H260867   4.122   2.193   3.409
20209WAT      O60868   0.350   1.547   7.194
20209WAT     H160869   0.335   1.630   7.140
20209WAT     H260870   0.380   1.473   7.134
20210WAT      O60871   4.804   4.878   9.362
20210WAT     H160872   4.721   4.924   9.330
20210WAT     H260873   4.878   4.944   9.369
20211WAT      O60874   2.731   1.134   6.188
20211WAT     H160875   2.682   1.098   6.109
20211WAT     H260876   2.820   1.168   6.160
20212WAT      O60877   9.238   1.359   7.075
20212WAT     H160878   9.231   1.457   7.057
20212WAT     H260879   9.188   1.336   7.159
20213WAT      O60880   2.963   5.614   9.853
20213WAT     H160881   2.896   5.688   9.848
20213WAT     H260882   3.041   5.642   9.910
20214WAT      O60883   9.151   3.385   7.338
20214WAT     H160884   9.067   3.339   7.368
20214WAT     H260885   9.134   3.484   7.334
20215WAT      O60886   1.195   2.758   7.512
20215WAT     H160887   1.285   2.733   7.478
20215WAT     H260888   1.124   2.721   7.451
20216WAT      O60889   5.108   5.374   9.751
20216WAT     H160890   5.058   5.342   9.831
20216WAT     H260891   5.202   5.396   9.777
20217WAT      O60892   4.051   3.396   7.038
20217WAT     H160893   4.114   3.347   7.097
20217WAT     H260894   4.054   3.357   6.946
20218WAT      O60895   8.477   3.680   7.229
20218WAT     H160896   8.490   3.632   7.143
20218WAT     H260897   8.493   3.778   7.216
20219WAT      O60898   0.035   9.269   5.852
20219WAT     H160899   0.028   9.202   5.926
20219WAT     H260900   0.032   9.361   5.890
20220WAT      O60901   8.611   3.241   9.861
20220WAT     H160902   8.525   3.229   9.811
20220WAT     H260903   8.591   3.269   9.955
20221WAT      O60904   7.464   4.725   3.188
20221WAT     H160905   7.386   4.778   3.156
20221WAT     H260906   7.529   4.713   3.113
20222WAT      O60907   0.767   9.012   3.434
20222WAT     H160908   0.750   8.936   3.496
20222WAT     H260909   0.720   9.093   3.467
20223WAT      O60910   2.693   6.393   2.674
20223WAT     H160911   2.627   6.370   2.745
20223WAT     H260912   2.772   6.333   2.681
20224WAT      O60913   1.086   9.839   6.255
20224WAT     H160914   0.991   9.823   6.281
20224WAT     H260915   1.096   9.930   6.215
20225WAT      O60916   4.980   0.492   7.653
20225WAT     H160917   5.025   0.574   7.618
20225WAT     H260918   4.889   0.516   7.687
20226WAT      O60919   9.775   2.578   6.905
20226WAT     H160920   9.867   2.596   6.940
20226WAT     H260921   9.781   2.521   6.823
20227WAT      O60922   1.911   1.284   1.774
20227WAT     H160923   1.955   1.292   1.863
20227WAT     H260924   1.955   1.345   1.709
20228WAT      O60925   5.681   5.634   1.956
20228WAT     H160926   5.617   5.563   1.986
20228WAT     H260927   5.706   5.691   2.034
20229WAT      O60928   1.193   1.400   4.828
20229WAT     H160929   1.113   1.383   4.771
20229WAT     H260930   1.274   1.411   4.771
20230WAT      O60931   0.245   0.126   0.534
20230WAT     H160932   0.256   0.220   0.499
20230WAT     H260933   0.150   0.111   0.560
20231WAT      O60934   0.496   9.569   4.482
20231WAT     H160935   0.523   9.543   4.389
20231WAT     H260936   0.536   9.505   4.547
20232WAT      O60937   7.774   2.166   4.770
20232WAT     H160938   7.839   2.090   4.769
20232WAT     H260939   7.734   2.178   4.679
20233WAT      O60940   8.098   2.901   4.162
20233WAT     H160941   8.061   2.907   4.255
20233WAT     H260942   8.140   2.812   4.148
20234WAT      O60943   0.317   7.219   0.645
20234WAT     H160944   0.299   7.318   0.648
20234WAT     H260945   0.382   7.195   0.717
20235WAT      O60946   3.231   2.056   8.569
20235WAT     H160947   3.204   1.969   8.608
20235WAT     H260948   3.152   2.117   8.564
20236WAT      O60949   2.787   8.071   1.217
20236WAT     H160950   2.769   7.983   1.174
20236WAT     H260951   2.791   8.059   1.317
20237WAT      O60952   4.778   6.930   1.047
20237WAT     H160953   4.758   6.944   0.950
20237WAT     H260954   4.868   6.968   1.068
20238WAT      O60955   0.281   6.018   0.353
20238WAT     H160956   0.221   5.954   0.305
20238WAT     H260957   0.289   5.989   0.449
20239WAT      O60958   0.692   2.986   9.245
20239WAT     H160959   0.698   2.911   9.310
20239WAT     H260960   0.697   2.949   9.152
20240WAT      O60961   8.154   6.452   6.595
20240WAT     H160962   8.061   6.454   6.632
20240WAT     H260963   8.218   6.487   6.663
20241WAT      O60964   5.564   0.024   9.570
20241WAT     H160965   5.597   0.103   9.622
20241WAT     H260966   5.558  -0.056   9.630
20242WAT      O60967   6.572   5.084   2.636
20242WAT     H160968   6.518   5.087   2.552
20242WAT     H260969   6.515   5.110   2.714
20243WAT      O60970   7.828   7.930   4.736
20243WAT     H160971   7.920   7.952   4.770
20243WAT     H260972   7.836   7.885   4.647
20244WAT      O60973   8.263   9.280   4.369
20244WAT     H160974   8.250   9.379   4.377
20244WAT     H260975   8.342   9.262   4.311
20245WAT      O60976   0.226   2.655   7.735
20245WAT     H160977   0.244   2.559   7.713
20245WAT     H260978   0.149   2.688   7.680
20246WAT      O60979   4.484   0.447   8.348
20246WAT     H160980   4.453   0.364   8.394
20246WAT     H260981   4.543   0.499   8.410
20247WAT      O60982   3.336   3.778   2.007
20247WAT     H160983   3.423   3.761   1.959
20247WAT     H260984   3.317   3.876   2.008
20248WAT      O60985   6.624   4.608   2.300
20248WAT     H160986   6.547   4.561   2.345
20248WAT     H260987   6.672   4.663   2.368
20249WAT      O60988   5.361   1.815   2.077
20249WAT     H160989   5.290   1.781   2.140
20249WAT     H260990   5.318   1.871   2.007
20250WAT      O60991   6.649   7.836   3.784
20250WAT     H160992   6.572   7.876   3.833
20250WAT     H260993   6.681   7.900   3.713
20251WAT      O60994   1.297   7.927   8.516
20251WAT     H160995   1.331   8.019   8.499
20251WAT     H260996   1.197   7.928   8.519
20252WAT      O60997   9.476   9.155   6.200
20252WAT     H160998   9.573   9.178   6.190
20252WAT     H260999   9.466   9.056   6.204
20253WAT      O61000   0.378   3.801   7.905
20253WAT     H161001   0.333   3.890   7.904
20253WAT     H261002   0.339   3.742   7.835
20254WAT      O61003   1.245   2.507   6.734
20254WAT     H161004   1.297   2.446   6.794
20254WAT     H261005   1.225   2.460   6.648
20255WAT      O61006   9.015   3.131   0.019
20255WAT     H161007   8.970   3.218   0.005
20255WAT     H261008   8.981   3.089   0.104
20256WAT      O61009   1.903   1.869   1.340
20256WAT     H161010   1.870   1.963   1.333
20256WAT     H261011   1.853   1.811   1.277
20257WAT      O61012   6.754   0.884   5.153
20257WAT     H161013   6.832   0.862   5.095
20257WAT     H261014   6.677   0.825   5.128
20258WAT      O61015   4.751   9.526   1.605
20258WAT     H161016   4.785   9.436   1.580
20258WAT     H261017   4.759   9.588   1.527
20259WAT      O61018   2.219   8.515   8.207
20259WAT     H161019   2.155   8.583   8.242
20259WAT     H261020   2.207   8.507   8.108
20260WAT      O61021   8.009   6.314   2.129
20260WAT     H161022   7.941   6.355   2.069
20260WAT     H261023   8.001   6.354   2.220
20261WAT      O61024   2.409   2.883   8.103
20261WAT     H161025   2.322   2.841   8.078
20261WAT     H261026   2.477   2.811   8.120
20262WAT      O61027   6.794   4.981   7.285
20262WAT     H161028   6.793   5.042   7.365
20262WAT     H261029   6.772   5.034   7.203
20263WAT      O61030   2.256   9.611   9.304
20263WAT     H161031   2.172   9.638   9.256
20263WAT     H261032   2.283   9.519   9.275
20264WAT      O61033   9.506   9.604   2.968
20264WAT     H161034   9.468   9.521   3.010
20264WAT     H261035   9.442   9.680   2.979
20265WAT      O61036   9.560   4.715   5.304
20265WAT     H161037   9.556   4.815   5.301
20265WAT     H261038   9.468   4.677   5.316
20266WAT      O61039   5.291   9.258   5.411
20266WAT     H161040   5.237   9.340   5.394
20266WAT     H261041   5.271   9.190   5.340
20267WAT      O61042   0.317   9.375   8.069
20267WAT     H161043   0.401   9.387   8.121
20267WAT     H261044   0.338   9.361   7.972
20268WAT      O61045   1.535   6.284   5.330
20268WAT     H161046   1.515   6.362   5.388
20268WAT     H261047   1.615   6.304   5.273
20269WAT      O61048   9.174   6.828   2.576
20269WAT     H161049   9.157   6.802   2.481
20269WAT     H261050   9.210   6.921   2.579
20270WAT      O61051   8.262   9.255   8.895
20270WAT     H161052   8.263   9.167   8.846
20270WAT     H261053   8.316   9.322   8.843
20271WAT      O61054   4.960   1.306   2.286
20271WAT     H161055   5.007   1.254   2.358
20271WAT     H261056   4.893   1.367   2.328
20272WAT      O61057   7.028   0.640   2.014
20272WAT     H161058   6.990   0.732   2.005
20272WAT     H261059   6.975   0.589   2.082
20273WAT      O61060   8.437   1.246   1.574
20273WAT     H161061   8.372   1.279   1.506
20273WAT     H261062   8.458   1.150   1.556
20274WAT      O61063   2.859   6.718   5.043
20274WAT     H161064   2.827   6.746   5.134
20274WAT     H261065   2.909   6.631   5.050
20275WAT      O61066   2.331   9.123   2.208
20275WAT     H161067   2.284   9.170   2.283
20275WAT     H261068   2.416   9.082   2.242
20276WAT      O61069   5.120   9.839   7.339
20276WAT     H161070   5.207   9.870   7.300
20276WAT     H261071   5.066   9.794   7.269
20277WAT      O61072   5.537   2.437   6.596
20277WAT     H161073   5.610   2.420   6.530
20277WAT     H261074   5.577   2.452   6.687
20278WAT      O61075   6.296   9.522   7.612
20278WAT     H161076   6.265   9.609   7.575
20278WAT     H261077   6.395   9.524   7.625
20279WAT      O61078   6.370   7.463   1.448
20279WAT     H161079   6.343   7.529   1.518
20279WAT     H261080   6.470   7.462   1.439
20280WAT      O61081   4.061   1.539   4.667
20280WAT     H161082   4.135   1.473   4.676
20280WAT     H261083   3.988   1.517   4.732
20281WAT      O61084   1.381   1.430   4.624
20281WAT     H161085   1.350   1.374   4.547
20281WAT     H261086   1.378   1.527   4.599
20282WAT      O61087   4.832   4.418   6.701
20282WAT     H161088   4.919   4.413   6.652
20282WAT     H261089   4.828   4.504   6.753
20283WAT      O61090   5.018   5.632   7.925
20283WAT     H161091   5.036   5.546   7.878
20283WAT     H261092   5.030   5.620   8.023
20284WAT      O61093   8.293   1.737   6.972
20284WAT     H161094   8.211   1.694   6.935
20284WAT     H261095   8.295   1.725   7.071
20285WAT      O61096   5.994   2.348   4.887
20285WAT     H161097   5.896   2.370   4.889
20285WAT     H261098   6.007   2.253   4.917
20286WAT      O61099   0.415   8.234   5.164
20286WAT     H161100   0.393   8.220   5.068
20286WAT     H261101   0.490   8.173   5.190
20287WAT      O61102   1.656   0.091   2.567
20287WAT     H161103   1.674   0.180   2.609
20287WAT     H261104   1.631   0.025   2.637
20288WAT      O61105   8.975   3.421   3.459
20288WAT     H161106   9.017   3.366   3.386
20288WAT     H261107   8.944   3.361   3.532
20289WAT      O61108   2.923   2.846   4.764
20289WAT     H161109   2.959   2.787   4.836
20289WAT     H261110   2.880   2.790   4.693
20290WAT      O61111   5.034   5.483   9.531
20290WAT     H161112   5.060   5.433   9.614
20290WAT     H261113   5.050   5.581   9.545
20291WAT      O61114   0.836   7.545   5.564
20291WAT     H161115   0.866   7.633   5.527
20291WAT     H261116   0.903   7.511   5.629
20292WAT      O61117   1.340   7.054   1.053
20292WAT     H161118   1.389   7.124   1.002
20292WAT     H261119   1.247   7.044   1.017
20293WAT      O61120   9.032   7.333   4.323
20293WAT     H161121   9.006   7.287   4.238
20293WAT     H261122   9.101   7.402   4.304
20294WAT      O61123   1.119   3.025   6.944
20294WAT     H161124   1.075   2.941   6.914
20294WAT     H261125   1.133   3.023   7.043
20295WAT      O61126   3.982   4.197   3.191
20295WAT     H161127   4.016   4.256   3.264
20295WAT     H261128   4.047   4.197   3.115
20296WAT      O61129   3.532   5.147   2.106
20296WAT     H161130   3.571   5.208   2.175
20296WAT     H261131   3.561   5.176   2.015
20297WAT      O61132   8.196   4.149   2.376
20297WAT     H161133   8.230   4.130   2.468
20297WAT     H261134   8.152   4.239   2.376
20298WAT      O61135   7.451   0.343   4.845
20298WAT     H161136   7.440   0.438   4.874
20298WAT     H261137   7.416   0.282   4.916
20299WAT      O61138   3.039   1.740   3.654
20299WAT     H161139   3.076   1.816   3.708
20299WAT     H261140   3.020   1.772   3.561
20300WAT      O61141   7.663   1.083   8.304
20300WAT     H161142   7.675   0.985   8.287
20300WAT     H261143   7.679   1.133   8.218
20301WAT      O61144   3.492   7.081   6.912
20301WAT     H161145   3.488   7.015   6.987
20301WAT     H261146   3.409   7.137   6.913
20302WAT      O61147   7.216   3.043   8.831
20302WAT     H161148   7.288   2.995   8.780
20302WAT     H261149   7.136   2.984   8.839
20303WAT      O61150   3.122   3.484   4.418
20303WAT     H161151   3.027   3.478   4.387
20303WAT     H261152   3.149   3.580   4.425
20304WAT      O61153   7.633   5.131   1.092
20304WAT     H161154   7.686   5.119   1.008
20304WAT     H261155   7.572   5.053   1.105
20305WAT      O61156   0.732   6.510   6.729
20305WAT     H161157   0.786   6.595   6.738
20305WAT     H261158   0.665   6.521   6.656
20306WAT      O61159   8.716   3.680   1.049
20306WAT     H161160   8.678   3.771   1.032
20306WAT     H261161   8.759   3.646   0.965
20307WAT      O61162   9.275   8.552   5.448
20307WAT     H161163   9.214   8.559   5.369
20307WAT     H261164   9.297   8.643   5.483
20308WAT      O61165   0.306   1.738   9.104
20308WAT     H161166   0.350   1.718   9.192
20308WAT     H261167   0.365   1.705   9.030
20309WAT      O61168   9.773   1.325   3.513
20309WAT     H161169   9.702   1.361   3.573
20309WAT     H261170   9.843   1.279   3.567
20310WAT      O61171   8.872   6.643   4.227
20310WAT     H161172   8.847   6.718   4.165
20310WAT     H261173   8.853   6.670   4.322
20311WAT      O61174   2.888   5.409   4.447
20311WAT     H161175   2.963   5.432   4.384
20311WAT     H261176   2.801   5.431   4.404
20312WAT      O61177   6.154   8.126   1.248
20312WAT     H161178   6.164   8.202   1.184
20312WAT     H261179   6.108   8.159   1.331
20313WAT      O61180   2.660   8.771   3.812
20313WAT     H161181   2.743   8.810   3.849
20313WAT     H261182   2.611   8.841   3.759
20314WAT      O61183   5.074   7.929   4.212
20314WAT     H161184   5.096   7.997   4.142
20314WAT     H261185   4.975   7.925   4.225
20315WAT      O61186   0.072   5.599   6.015
20315WAT     H161187   0.028   5.578   5.927
20315WAT     H261188   0.160   5.643   5.998
20316WAT      O61189   5.606   8.989   2.530
20316WAT     H161190   5.635   9.068   2.584
20316WAT     H261191   5.547   9.019   2.455
20317WAT      O61192   9.877   2.350   1.738
20317WAT     H161193   9.964   2.385   1.702
20317WAT     H261194   9.836   2.288   1.671
20318WAT      O61195   1.095   3.128   4.693
20318WAT     H161196   1.164   3.076   4.643
20318WAT     H261197   1.024   3.065   4.727
20319WAT      O61198   2.404   4.874   9.832
20319WAT     H161199   2.455   4.960   9.836
20319WAT     H261200   2.312   4.890   9.798
20320WAT      O61201   7.782   4.491   8.866
20320WAT     H161202   7.779   4.398   8.904
20320WAT     H261203   7.712   4.547   8.910
20321WAT      O61204   1.995   9.204   0.384
20321WAT     H161205   2.011   9.113   0.424
20321WAT     H261206   2.066   9.267   0.414
20322WAT      O61207   7.124   5.211   0.457
20322WAT     H161208   7.072   5.248   0.534
20322WAT     H261209   7.111   5.112   0.454
20323WAT      O61210   4.429   9.250   6.361
20323WAT     H161211   4.491   9.326   6.379
20323WAT     H261212   4.396   9.213   6.447
20324WAT      O61213   9.483   6.284   6.529
20324WAT     H161214   9.456   6.192   6.557
20324WAT     H261215   9.403   6.335   6.497
20325WAT      O61216   3.694   0.533   4.385
20325WAT     H161217   3.706   0.622   4.341
20325WAT     H261218   3.781   0.504   4.426
20326WAT      O61219   4.664   7.669   6.092
20326WAT     H161220   4.658   7.728   6.012
20326WAT     H261221   4.587   7.688   6.153
20327WAT      O61222   9.212   5.416   3.446
20327WAT     H161223   9.296   5.456   3.408
20327WAT     H261224   9.198   5.452   3.539
20328WAT      O61225   4.357   5.759   8.884
20328WAT     H161226   4.412   5.842   8.874
20328WAT     H261227   4.281   5.777   8.946
20329WAT      O61228   4.457   6.792   3.269
20329WAT     H161229   4.555   6.788   3.285
20329WAT     H261230   4.433   6.880   3.227
20330WAT      O61231   9.013   4.746   5.278
20330WAT     H161232   8.982   4.837   5.307
20330WAT     H261233   9.101   4.726   5.321
20331WAT      O61234   0.684   1.182   1.247
20331WAT     H161235   0.733   1.124   1.312
20331WAT     H261236   0.594   1.143   1.228
20332WAT      O61237   4.457   1.530   0.594
20332WAT     H161238   4.538   1.504   0.542
20332WAT     H261239   4.474   1.519   0.691
20333WAT      O61240   3.696   1.159   3.094
20333WAT     H161241   3.754   1.184   3.017
20333WAT     H261242   3.729   1.074   3.134
20334WAT      O61243   3.554   8.100   8.778
20334WAT     H161244   3.561   8.167   8.852
20334WAT     H261245   3.581   8.143   8.691
20335WAT      O61246   2.686   9.016   4.417
20335WAT     H161247   2.735   9.101   4.437
20335WAT     H261248   2.728   8.970   4.338
20336WAT      O61249   1.676   8.489   7.172
20336WAT     H161250   1.614   8.431   7.120
20336WAT     H261251   1.636   8.511   7.261
20337WAT      O61252   0.650   1.907   8.714
20337WAT     H161253   0.555   1.932   8.735
20337WAT     H261254   0.665   1.811   8.734
20338WAT      O61255   8.183   2.194   3.151
20338WAT     H161256   8.122   2.238   3.216
20338WAT     H261257   8.136   2.182   3.064
20339WAT      O61258   3.869   4.736   3.682
20339WAT     H161259   3.912   4.720   3.771
20339WAT     H261260   3.774   4.764   3.695
20340WAT      O61261   0.607   9.801   6.191
20340WAT     H161262   0.568   9.757   6.110
20340WAT     H261263   0.594   9.900   6.185
20341WAT      O61264   6.115   5.049   5.969
20341WAT     H161265   6.043   5.010   6.026
20341WAT     H261266   6.156   5.127   6.015
20342WAT      O61267   9.301   8.021   8.100
20342WAT     H161268   9.294   7.987   8.194
20342WAT     H261269   9.224   7.986   8.046
20343WAT      O61270   6.657   7.118   7.519
20343WAT     H161271   6.675   7.069   7.433
20343WAT     H261272   6.731   7.099   7.584
20344WAT      O61273   6.617   0.311   1.394
20344WAT     H161274   6.704   0.261   1.392
20344WAT     H261275   6.579   0.308   1.486
20345WAT      O61276   8.279   0.038   6.940
20345WAT     H161277   8.367   0.054   6.984
20345WAT     H261278   8.241  -0.049   6.970
20346WAT      O61279   8.706   2.989   7.072
20346WAT     H161280   8.654   3.058   7.122
20346WAT     H261281   8.730   2.914   7.134
20347WAT      O61282   0.772   2.200   6.151
20347WAT     H161283   0.798   2.132   6.219
20347WAT     H261284   0.678   2.183   6.121
20348WAT      O61285   3.515   2.615   9.240
20348WAT     H161286   3.419   2.593   9.221
20348WAT     H261287   3.569   2.604   9.157
20349WAT      O61288   2.215   4.550   5.969
20349WAT     H161289   2.279   4.523   6.041
20349WAT     H261290   2.257   4.620   5.911
20350WAT      O61291   9.589   4.886   8.416
20350WAT     H161292   9.539   4.889   8.503
20350WAT     H261293   9.525   4.900   8.341
20351WAT      O61294   0.702   3.289   4.491
20351WAT     H161295   0.770   3.233   4.446
20351WAT     H261296   0.624   3.303   4.429
20352WAT      O61297   6.266   7.426   4.803
20352WAT     H161298   6.355   7.380   4.806
20352WAT     H261299   6.277   7.522   4.830
20353WAT      O61300   7.056   4.973   2.161
20353WAT     H161301   7.004   5.017   2.088
20353WAT     H261302   7.134   5.030   2.186
20354WAT      O61303   7.144   5.044   1.114
20354WAT     H161304   7.214   5.029   1.185
20354WAT     H261305   7.061   4.994   1.139
20355WAT      O61306   8.616   1.848   8.674
20355WAT     H161307   8.574   1.781   8.734
20355WAT     H261308   8.682   1.802   8.614
20356WAT      O61309   2.434   2.131   4.046
20356WAT     H161310   2.392   2.048   4.082
20356WAT     H261311   2.407   2.210   4.101
20357WAT      O61312   0.472   3.023   8.283
20357WAT     H161313   0.408   2.964   8.333
20357WAT     H261314   0.483   3.109   8.332
20358WAT      O61315   9.769   8.467   0.863
20358WAT     H161316   9.705   8.404   0.820
20358WAT     H261317   9.767   8.456   0.963
20359WAT      O61318   8.054   1.284   7.564
20359WAT     H161319   8.149   1.295   7.595
20359WAT     H261320   8.048   1.308   7.467
20360WAT      O61321   7.878   4.646   4.471
20360WAT     H161322   7.838   4.701   4.398
20360WAT     H261323   7.808   4.583   4.507
20361WAT      O61324   3.766   0.919   4.593
20361WAT     H161325   3.762   0.919   4.693
20361WAT     H261326   3.855   0.953   4.563
20362WAT      O61327   4.376   0.870   7.787
20362WAT     H161328   4.348   0.889   7.693
20362WAT     H261329   4.459   0.922   7.808
20363WAT      O61330   2.321   0.737   1.951
20363WAT     H161331   2.258   0.675   1.998
20363WAT     H261332   2.359   0.690   1.871
20364WAT      O61333   8.550   5.477   8.712
20364WAT     H161334   8.540   5.409   8.639
20364WAT     H261335   8.640   5.520   8.705
20365WAT      O61336   5.344   7.110   2.644
20365WAT     H161337   5.262   7.081   2.595
20365WAT     H261338   5.403   7.162   2.582
20366WAT      O61339   2.215   4.655   7.732
20366WAT     H161340   2.188   4.567   7.694
20366WAT     H261341   2.306   4.680   7.699
20367WAT      O61342   4.069   1.809   8.674
20367WAT     H161343   4.139   1.738   8.688
20367WAT     H261344   4.083   1.851   8.584
20368WAT      O61345   5.082   0.351   3.558
20368WAT     H161346   5.004   0.332   3.498
20368WAT     H261347   5.162   0.374   3.502
20369WAT      O61348   9.061   2.464   7.235
20369WAT     H161349   9.087   2.428   7.145
20369WAT     H261350   9.123   2.537   7.261
20370WAT      O61351   1.571   5.152   9.701
20370WAT     H161352   1.545   5.179   9.609
20370WAT     H261353   1.649   5.089   9.697
20371WAT      O61354   2.259   7.518   0.845
20371WAT     H161355   2.219   7.449   0.905
20371WAT     H261356   2.202   7.601   0.848
20372WAT      O61357   1.850   1.740   7.256
20372WAT     H161358   1.878   1.735   7.161
20372WAT     H261359   1.839   1.836   7.282
20373WAT      O61360   5.386   2.702   9.251
20373WAT     H161361   5.369   2.636   9.178
20373WAT     H261362   5.476   2.687   9.290
20374WAT      O61363   7.415   2.346   6.709
20374WAT     H161364   7.336   2.406   6.725
20374WAT     H261365   7.449   2.358   6.616
20375WAT      O61366   6.921   9.307   1.338
20375WAT     H161367   6.882   9.216   1.322
20375WAT     H261368   6.891   9.370   1.266
20376WAT      O61369   1.910   9.356   9.072
20376WAT     H161370   1.845   9.429   9.048
20376WAT     H261371   1.865   9.289   9.131
20377WAT      O61372   7.707   5.844   7.051
20377WAT     H161373   7.722   5.752   7.014
20377WAT     H261374   7.795   5.890   7.063
20378WAT      O61375   1.303   4.456   2.486
20378WAT     H161376   1.312   4.356   2.484
20378WAT     H261377   1.330   4.490   2.576
20379WAT      O61378   6.925   7.329   6.943
20379WAT     H161379   7.024   7.348   6.939
20379WAT     H261380   6.898   7.316   7.038
20380WAT      O61381   1.568   6.119   2.768
20380WAT     H161382   1.587   6.103   2.865
20380WAT     H261383   1.529   6.211   2.757
20381WAT      O61384   4.289   1.835   6.497
20381WAT     H161385   4.288   1.914   6.558
20381WAT     H261386   4.270   1.752   6.550
20382WAT      O61387   2.381   5.943   5.346
20382WAT     H161388   2.428   5.864   5.387
20382WAT     H261389   2.316   5.911   5.277
20383WAT      O61390   5.860   2.975   9.664
20383WAT     H161391   5.769   2.942   9.640
20383WAT     H261392   5.917   2.977   9.582
20384WAT      O61393   1.848   4.122   9.019
20384WAT     H161394   1.781   4.062   9.062
20384WAT     H261395   1.928   4.069   8.991
20385WAT      O61396   6.779   3.581   0.325
20385WAT     H161397   6.821   3.671   0.314
20385WAT     H261398   6.816   3.537   0.407
20386WAT      O61399   3.740   4.506   6.204
20386WAT     H161400   3.689   4.422   6.188
20386WAT     H261401   3.819   4.510   6.142
20387WAT      O61402   2.663   5.999   4.725
20387WAT     H161403   2.616   6.054   4.656
20387WAT     H261404   2.679   5.907   4.689
20388WAT      O61405   2.257   2.174   5.927
20388WAT     H161406   2.346   2.193   5.966
20388WAT     H261407   2.238   2.238   5.852
20389WAT      O61408   3.127   2.827   4.396
20389WAT     H161409   3.158   2.904   4.452
20389WAT     H261410   3.134   2.851   4.299
20390WAT      O61411   0.779   8.043   2.802
20390WAT     H161412   0.834   7.981   2.857
20390WAT     H261413   0.821   8.134   2.801
20391WAT      O61414   9.138   2.562   5.167
20391WAT     H161415   9.200   2.569   5.246
20391WAT     H261416   9.097   2.651   5.148
20392WAT      O61417   7.916   8.883   1.353
20392WAT     H161418   7.956   8.965   1.394
20392WAT     H261419   7.951   8.802   1.400
20393WAT      O61420   6.381   1.137   8.155
20393WAT     H161421   6.321   1.190   8.214
20393WAT     H261422   6.392   1.184   8.067
20394WAT      O61423   1.065   1.764   8.785
20394WAT     H161424   1.054   1.681   8.730
20394WAT     H261425   1.002   1.761   8.863
20395WAT      O61426   2.836   0.315   7.821
20395WAT     H161427   2.893   0.237   7.796
20395WAT     H261428   2.740   0.287   7.824
20396WAT      O61429   0.148   4.579   0.027
20396WAT     H161430   0.151   4.582  -0.073
20396WAT     H261431   0.230   4.623   0.064
20397WAT      O61432   4.163   2.560   5.736
20397WAT     H161433   4.163   2.658   5.718
20397WAT     H261434   4.235   2.516   5.681
20398WAT      O61435   5.739   3.404   1.592
20398WAT     H161436   5.691   3.491   1.599
20398WAT     H261437   5.796   3.403   1.511
20399WAT      O61438   1.227   7.017   8.542
20399WAT     H161439   1.157   7.025   8.614
20399WAT     H261440   1.185   7.034   8.453
20400WAT      O61441   9.648   1.065   3.673
20400WAT     H161442   9.692   1.150   3.644
20400WAT     H261443   9.553   1.065   3.643
20401WAT      O61444   2.651   0.410   7.382
20401WAT     H161445   2.626   0.409   7.479
20401WAT     H261446   2.676   0.317   7.353
20402WAT      O61447   5.661   7.216   8.382
20402WAT     H161448   5.616   7.132   8.349
20402WAT     H261449   5.626   7.239   8.473
20403WAT      O61450   9.679   0.983   2.503
20403WAT     H161451   9.682   1.032   2.590
20403WAT     H261452   9.766   0.934   2.489
20404WAT      O61453   8.794   2.122   7.950
20404WAT     H161454   8.763   2.098   7.858
20404WAT     H261455   8.879   2.175   7.943
20405WAT      O61456   7.431   8.092   5.895
20405WAT     H161457   7.512   8.118   5.843
20405WAT     H261458   7.354   8.079   5.833
20406WAT      O61459   7.740   3.139   9.810
20406WAT     H161460   7.643   3.127   9.828
20406WAT     H261461   7.764   3.236   9.814
20407WAT      O61462   2.985   7.874   5.253
20407WAT     H161463   3.062   7.938   5.247
20407WAT     H261464   3.020   7.782   5.271
20408WAT      O61465   3.803   3.528   2.013
20408WAT     H161466   3.836   3.485   1.928
20408WAT     H261467   3.875   3.525   2.082
20409WAT      O61468   6.970   0.995   3.757
20409WAT     H161469   6.889   1.045   3.725
20409WAT     H261470   7.007   1.040   3.838
20410WAT      O61471   0.306   3.037   2.227
20410WAT     H161472   0.351   3.022   2.315
20410WAT     H261473   0.210   3.059   2.242
20411WAT      O61474   9.241   7.210   7.262
20411WAT     H161475   9.288   7.155   7.193
20411WAT     H261476   9.199   7.289   7.219
20412WAT      O61477   3.427   3.139   0.713
20412WAT     H161478   3.427   3.043   0.687
20412WAT     H261479   3.461   3.194   0.637
20413WAT      O61480   0.758   5.375   9.275
20413WAT     H161481   0.693   5.325   9.332
20413WAT     H261482   0.764   5.469   9.307
20414WAT      O61483   7.641   7.620   8.110
20414WAT     H161484   7.664   7.703   8.161
20414WAT     H261485   7.721   7.560   8.105
20415WAT      O61486   6.567   5.831   5.396
20415WAT     H161487   6.476   5.858   5.429
20415WAT     H261488   6.590   5.884   5.314
20416WAT      O61489   2.821   2.585   8.997
20416WAT     H161490   2.879   2.665   9.014
20416WAT     H261491   2.879   2.507   8.973
20417WAT      O61492   6.992   2.861   7.083
20417WAT     H161493   6.935   2.864   7.165
20417WAT     H261494   6.947   2.910   7.009
20418WAT      O61495   4.226   2.397   5.053
20418WAT     H161496   4.185   2.447   5.129
20418WAT     H261497   4.184   2.306   5.048
20419WAT      O61498   5.875   4.030   6.147
20419WAT     H161499   5.814   4.107   6.159
20419WAT     H261500   5.857   3.986   6.059
20420WAT      O61501   0.556   5.887   1.817
20420WAT     H161502   0.602   5.900   1.729
20420WAT     H261503   0.510   5.972   1.843
20421WAT      O61504   9.794   0.530   9.168
20421WAT     H161505   9.858   0.607   9.160
20421WAT     H261506   9.826   0.454   9.111
20422WAT      O61507   4.219   6.577   8.506
20422WAT     H161508   4.165   6.620   8.434
20422WAT     H261509   4.237   6.482   8.483
20423WAT      O61510   3.922   2.790   7.317
20423WAT     H161511   4.010   2.769   7.277
20423WAT     H261512   3.888   2.876   7.279
20424WAT      O61513   5.581   6.211   2.377
20424WAT     H161514   5.580   6.304   2.413
20424WAT     H261515   5.642   6.206   2.298
20425WAT      O61516   8.246   5.805   6.848
20425WAT     H161517   8.332   5.789   6.897
20425WAT     H261518   8.240   5.901   6.823
20426WAT      O61519   2.831   5.067   3.202
20426WAT     H161520   2.788   4.997   3.260
20426WAT     H261521   2.930   5.063   3.214
20427WAT      O61522   9.593   1.285   1.851
20427WAT     H161523   9.609   1.206   1.911
20427WAT     H261524   9.677   1.337   1.841
20428WAT      O61525   9.470   7.291   6.895
20428WAT     H161526   9.443   7.382   6.865
20428WAT     H261527   9.552   7.262   6.845
20429WAT      O61528   3.191   7.718   0.069
20429WAT     H161529   3.096   7.693   0.049
20429WAT     H261530   3.247   7.703  -0.013
20430WAT      O61531   7.249   2.842   3.777
20430WAT     H161532   7.262   2.913   3.708
20430WAT     H261533   7.227   2.885   3.865
20431WAT      O61534   3.882   6.586   5.327
20431WAT     H161535   3.954   6.537   5.278
20431WAT     H261536   3.796   6.535   5.318
20432WAT      O61537   8.021   4.893   8.426
20432WAT     H161538   8.069   4.904   8.513
20432WAT     H261539   8.052   4.810   8.380
20433WAT      O61540   9.645   9.384   5.818
20433WAT     H161541   9.665   9.347   5.727
20433WAT     H261542   9.727   9.426   5.856
20434WAT      O61543   4.983   1.554   1.371
20434WAT     H161544   4.940   1.524   1.286
20434WAT     H261545   4.923   1.531   1.448
20435WAT      O61546   7.355   0.154   3.609
20435WAT     H161547   7.360   0.059   3.641
20435WAT     H261548   7.443   0.179   3.567
20436WAT      O61549   2.894   8.066   1.723
20436WAT     H161550   2.947   8.151   1.712
20436WAT     H261551   2.939   8.008   1.791
20437WAT      O61552   9.538   3.142   7.538
20437WAT     H161553   9.470   3.076   7.505
20437WAT     H261554   9.611   3.094   7.586
20438WAT      O61555   4.025   4.275   5.376
20438WAT     H161556   3.944   4.238   5.331
20438WAT     H261557   3.997   4.326   5.457
20439WAT      O61558   1.488   5.354   4.262
20439WAT     H161559   1.456   5.421   4.329
20439WAT     H261560   1.510   5.269   4.308
20440WAT      O61561   0.406   8.574   2.975
20440WAT     H161562   0.484   8.593   2.917
20440WAT     H261563   0.322   8.605   2.931
20441WAT      O61564   1.972   3.633   7.306
20441WAT     H161565   1.911   3.640   7.227
20441WAT     H261566   1.924   3.662   7.389
20442WAT      O61567   1.750   2.067   1.858
20442WAT     H161568   1.655   2.044   1.837
20442WAT     H261569   1.796   2.097   1.774
20443WAT      O61570   6.332   0.995   3.121
20443WAT     H161571   6.314   0.897   3.130
20443WAT     H261572   6.282   1.044   3.192
20444WAT      O61573   4.981   8.450   8.677
20444WAT     H161574   5.014   8.473   8.585
20444WAT     H261575   4.964   8.534   8.729
20445WAT      O61576   4.198   5.180   9.761
20445WAT     H161577   4.276   5.144   9.813
20445WAT     H261578   4.122   5.198   9.823
20446WAT      O61579   3.186   8.166   5.127
20446WAT     H161580   3.272   8.182   5.078
20446WAT     H261581   3.115   8.138   5.062
20447WAT      O61582   0.887   3.090   7.560
20447WAT     H161583   0.913   3.169   7.504
20447WAT     H261584   0.798   3.107   7.602
20448WAT      O61585   3.421   5.849   7.718
20448WAT     H161586   3.463   5.793   7.646
20448WAT     H261587   3.434   5.945   7.696
20449WAT      O61588   8.594   8.744   2.015
20449WAT     H161589   8.605   8.813   1.943
20449WAT     H261590   8.680   8.734   2.064
20450WAT      O61591   4.635   5.964   2.176
20450WAT     H161592   4.558   6.028   2.175
20450WAT     H261593   4.717   6.009   2.210
20451WAT      O61594   7.937   0.780   6.994
20451WAT     H161595   7.945   0.723   6.912
20451WAT     H261596   7.881   0.860   6.973
20452WAT      O61597   2.582   0.272   7.832
20452WAT     H161598   2.529   0.356   7.846
20452WAT     H261599   2.519   0.195   7.822
20453WAT      O61600   7.403   6.138   9.032
20453WAT     H161601   7.307   6.156   9.051
20453WAT     H261602   7.460   6.187   9.098
20454WAT      O61603   0.659   3.867   6.716
20454WAT     H161604   0.691   3.961   6.701
20454WAT     H261605   0.610   3.836   6.634
20455WAT      O61606   2.694   7.050   6.211
20455WAT     H161607   2.793   7.038   6.212
20455WAT     H261608   2.651   6.978   6.266
20456WAT      O61609   6.462   5.582   5.327
20456WAT     H161610   6.543   5.530   5.300
20456WAT     H261611   6.490   5.673   5.356
20457WAT      O61612   5.745   2.812   6.750
20457WAT     H161613   5.722   2.906   6.775
20457WAT     H261614   5.674   2.751   6.784
20458WAT      O61615   3.133   6.419   9.049
20458WAT     H161616   3.106   6.356   8.976
20458WAT     H261617   3.230   6.442   9.038
20459WAT      O61618   0.492   6.165   1.861
20459WAT     H161619   0.422   6.187   1.928
20459WAT     H261620   0.453   6.168   1.769
20460WAT      O61621   4.602   0.988   4.696
20460WAT     H161622   4.509   1.023   4.693
20460WAT     H261623   4.600   0.889   4.710
20461WAT      O61624   1.126   3.036   0.335
20461WAT     H161625   1.085   2.975   0.266
20461WAT     H261626   1.087   3.127   0.326
20462WAT      O61627   7.518   5.724   3.431
20462WAT     H161628   7.462   5.645   3.460
20462WAT     H261629   7.480   5.762   3.347
20463WAT      O61630   0.370   7.458   1.623
20463WAT     H161631   0.298   7.398   1.589
20463WAT     H261632   0.368   7.545   1.573
20464WAT      O61633   2.631   0.012   8.922
20464WAT     H161634   2.666   0.050   9.008
20464WAT     H261635   2.532  -0.001   8.929
20465WAT      O61636   9.525   2.600   7.319
20465WAT     H161637   9.617   2.635   7.339
20465WAT     H261638   9.526   2.552   7.232
20466WAT      O61639   9.869   0.420   0.218
20466WAT     H161640   9.913   0.392   0.132
20466WAT     H261641   9.910   0.505   0.250
20467WAT      O61642   8.296   4.538   4.725
20467WAT     H161643   8.326   4.463   4.665
20467WAT     H261644   8.208   4.515   4.765
20468WAT      O61645   2.722   4.613   4.142
20468WAT     H161646   2.718   4.701   4.190
20468WAT     H261647   2.635   4.565   4.153
20469WAT      O61648   2.521   2.364   5.180
20469WAT     H161649   2.477   2.378   5.091
20469WAT     H261650   2.481   2.426   5.247
20470WAT      O61651   9.621   4.015   9.371
20470WAT     H161652   9.549   4.080   9.347
20470WAT     H261653   9.666   3.983   9.288
20471WAT      O61654   0.615   5.352   1.631
20471WAT     H161655   0.516   5.346   1.640
20471WAT     H261656   0.658   5.330   1.719
20472WAT      O61657   5.101   5.919   3.732
20472WAT     H161658   5.086   6.005   3.781
20472WAT     H261659   5.152   5.856   3.790
20473WAT      O61660   9.443   8.139   3.083
20473WAT     H161661   9.542   8.143   3.068
20473WAT     H261662   9.396   8.163   2.998
20474WAT      O61663   6.794   9.122   3.317
20474WAT     H161664   6.885   9.101   3.283
20474WAT     H261665   6.799   9.156   3.411
20475WAT      O61666   9.155   0.820   7.766
20475WAT     H161667   9.174   0.904   7.716
20475WAT     H261668   9.106   0.756   7.708
20476WAT      O61669   5.957   6.745   7.101
20476WAT     H161670   5.937   6.694   7.017
20476WAT     H261671   6.039   6.707   7.144
20477WAT      O61672   8.647   0.827   6.963
20477WAT     H161673   8.591   0.782   6.893
20477WAT     H261674   8.601   0.910   6.995
20478WAT      O61675   2.732   1.086   6.936
20478WAT     H161676   2.818   1.124   6.900
20478WAT     H261677   2.727   1.103   7.034
20479WAT      O61678   7.278   1.054   8.326
20479WAT     H161679   7.339   1.075   8.402
20479WAT     H261680   7.310   1.101   8.244
20480WAT      O61681   4.859   2.326   7.282
20480WAT     H161682   4.846   2.336   7.381
20480WAT     H261683   4.833   2.234   7.253
20481WAT      O61684   6.274   1.917   9.196
20481WAT     H161685   6.184   1.961   9.199
20481WAT     H261686   6.331   1.954   9.269
20482WAT      O61687   9.300   2.323   5.799
20482WAT     H161688   9.359   2.255   5.843
20482WAT     H261689   9.295   2.405   5.857
20483WAT      O61690   4.530   4.748   3.349
20483WAT     H161691   4.534   4.841   3.387
20483WAT     H261692   4.586   4.687   3.404
20484WAT      O61693   7.092   0.862   3.068
20484WAT     H161694   7.019   0.928   3.047
20484WAT     H261695   7.171   0.910   3.105
20485WAT      O61696   5.996   9.833   1.275
20485WAT     H161697   6.089   9.868   1.288
20485WAT     H261698   5.951   9.824   1.364
20486WAT      O61699   7.157   8.605   5.259
20486WAT     H161700   7.182   8.541   5.187
20486WAT     H261701   7.214   8.687   5.253
20487WAT      O61702   4.826   8.921   6.047
20487WAT     H161703   4.800   9.017   6.050
20487WAT     H261704   4.923   8.913   6.025
20488WAT      O61705   6.423   6.393   7.984
20488WAT     H161706   6.363   6.402   8.063
20488WAT     H261707   6.375   6.422   7.901
20489WAT      O61708   2.078   8.581   3.063
20489WAT     H161709   2.117   8.641   3.133
20489WAT     H261710   2.124   8.597   2.976
20490WAT      O61711   3.870   1.925   6.086
20490WAT     H161712   3.861   1.839   6.137
20490WAT     H261713   3.850   2.002   6.146
20491WAT      O61714   3.569   3.603   3.174
20491WAT     H161715   3.634   3.673   3.202
20491WAT     H261716   3.587   3.518   3.224
20492WAT      O61717   6.122   3.798   2.893
20492WAT     H161718   6.116   3.709   2.938
20492WAT     H261719   6.031   3.841   2.893
20493WAT      O61720   2.481   7.678   0.137
20493WAT     H161721   2.435   7.595   0.169
20493WAT     H261722   2.542   7.654   0.061
20494WAT      O61723   7.092   2.842   0.924
20494WAT     H161724   7.085   2.830   0.825
20494WAT     H261725   7.037   2.921   0.951
20495WAT      O61726   7.891   2.363   5.600
20495WAT     H161727   7.857   2.371   5.506
20495WAT     H261728   7.817   2.386   5.664
20496WAT      O61729   6.536   6.271   1.708
20496WAT     H161730   6.495   6.199   1.651
20496WAT     H261731   6.555   6.234   1.799
20497WAT      O61732   7.338   4.039   4.972
20497WAT     H161733   7.269   3.982   4.928
20497WAT     H261734   7.326   4.134   4.945
20498WAT      O61735   2.682   4.749   9.068
20498WAT     H161736   2.687   4.650   9.073
20498WAT     H261737   2.591   4.776   9.036
20499WAT      O61738   1.447   4.146   5.761
20499WAT     H161739   1.366   4.148   5.703
20499WAT     H261740   1.492   4.058   5.753
20500WAT      O61741   8.458   3.497   3.875
20500WAT     H161742   8.531   3.429   3.884
20500WAT     H261743   8.493   3.579   3.830
20501WAT      O61744   6.984   1.220   3.147
20501WAT     H161745   6.974   1.320   3.150
20501WAT     H261746   7.054   1.192   3.213
20502WAT      O61747   4.229   6.439   1.647
20502WAT     H161748   4.238   6.483   1.736
20502WAT     H261749   4.202   6.508   1.579
20503WAT      O61750   6.631   2.363   0.523
20503WAT     H161751   6.653   2.343   0.428
20503WAT     H261752   6.537   2.336   0.542
20504WAT      O61753   4.135   6.631   9.290
20504WAT     H161754   4.043   6.614   9.255
20504WAT     H261755   4.182   6.697   9.231
20505WAT      O61756   3.755   4.655   8.432
20505WAT     H161757   3.766   4.589   8.507
20505WAT     H261758   3.669   4.704   8.445
20506WAT      O61759   7.733   4.241   8.988
20506WAT     H161760   7.683   4.204   8.910
20506WAT     H261761   7.763   4.166   9.046
20507WAT      O61762   0.548   3.643   4.891
20507WAT     H161763   0.538   3.742   4.877
20507WAT     H261764   0.639   3.625   4.928
20508WAT      O61765   2.874   1.891   3.094
20508WAT     H161766   2.828   1.971   3.133
20508WAT     H261767   2.967   1.885   3.129
20509WAT      O61768   3.570   0.535   2.617
20509WAT     H161769   3.592   0.522   2.714
20509WAT     H261770   3.651   0.567   2.568
20510WAT      O61771   6.015   1.940   2.227
20510WAT     H161772   6.016   1.854   2.176
20510WAT     H261773   5.982   2.013   2.167
20511WAT      O61774   7.597   5.517   6.046
20511WAT     H161775   7.605   5.522   5.947
20511WAT     H261776   7.502   5.501   6.072
20512WAT      O61777   6.406   5.689   9.008
20512WAT     H161778   6.383   5.753   8.935
20512WAT     H261779   6.380   5.728   9.096
20513WAT      O61780   5.113   4.377   6.640
20513WAT     H161781   5.159   4.391   6.727
20513WAT     H261782   5.181   4.363   6.568
20514WAT      O61783   8.196   1.560   2.253
20514WAT     H161784   8.165   1.596   2.165
20514WAT     H261785   8.243   1.632   2.303
20515WAT      O61786   2.947   5.537   0.809
20515WAT     H161787   3.034   5.560   0.766
20515WAT     H261788   2.938   5.438   0.816
20516WAT      O61789   1.625   8.029   3.843
20516WAT     H161790   1.643   7.954   3.907
20516WAT     H261791   1.648   8.116   3.887
20517WAT      O61792   5.343   3.974   6.746
20517WAT     H161793   5.260   3.983   6.691
20517WAT     H261794   5.320   3.937   6.835
20518WAT      O61795   8.260   5.199   9.323
20518WAT     H161796   8.250   5.106   9.288
20518WAT     H261797   8.171   5.244   9.326
20519WAT      O61798   9.513   6.615   5.753
20519WAT     H161799   9.473   6.596   5.842
20519WAT     H261800   9.579   6.544   5.729
20520WAT      O61801   6.926   6.054   1.878
20520WAT     H161802   6.888   6.142   1.851
20520WAT     H261803   6.871   6.015   1.952
20521WAT      O61804   7.208   4.030   0.195
20521WAT     H161805   7.239   4.005   0.103
20521WAT     H261806   7.285   4.065   0.247
20522WAT      O61807   8.192   4.031   9.108
20522WAT     H161808   8.186   4.088   9.190
20522WAT     H261809   8.211   4.089   9.029
20523WAT      O61810   0.676   0.013   0.669
20523WAT     H161811   0.680   0.081   0.595
20523WAT     H261812   0.581  -0.009   0.688
20524WAT      O61813   2.880   6.308   8.642
20524WAT     H161814   2.962   6.280   8.591
20524WAT     H261815   2.801   6.256   8.607
20525WAT      O61816   7.527   8.889   3.970
20525WAT     H161817   7.477   8.949   3.908
20525WAT     H261818   7.532   8.931   4.060
20526WAT      O61819   8.089   2.193   4.717
20526WAT     H161820   8.038   2.172   4.634
20526WAT     H261821   8.182   2.222   4.693
20527WAT      O61822   1.908   8.333   4.270
20527WAT     H161823   1.822   8.284   4.253
20527WAT     H261824   1.960   8.340   4.185
20528WAT      O61825   8.985   6.593   5.201
20528WAT     H161826   8.996   6.560   5.295
20528WAT     H261827   8.889   6.586   5.174
20529WAT      O61828   8.454   1.670   4.587
20529WAT     H161829   8.479   1.603   4.658
20529WAT     H261830   8.356   1.663   4.569
20530WAT      O61831   2.152   9.518   1.302
20530WAT     H161832   2.081   9.496   1.236
20530WAT     H261833   2.237   9.473   1.275
20531WAT      O61834   8.978   2.891   2.663
20531WAT     H161835   8.990   2.840   2.578
20531WAT     H261836   8.932   2.834   2.730
20532WAT      O61837   7.765   0.413   5.213
20532WAT     H161838   7.784   0.342   5.145
20532WAT     H261839   7.815   0.496   5.189
20533WAT      O61840   7.205   9.535   0.312
20533WAT     H161841   7.194   9.441   0.345
20533WAT     H261842   7.153   9.597   0.370
20534WAT      O61843   6.890   1.926   4.085
20534WAT     H161844   6.823   1.918   4.012
20534WAT     H261845   6.852   1.982   4.159
20535WAT      O61846   4.451   5.443   3.236
20535WAT     H161847   4.482   5.392   3.155
20535WAT     H261848   4.358   5.416   3.259
20536WAT      O61849   0.069   6.512   8.521
20536WAT     H161850  -0.012   6.527   8.578
20536WAT     H261851   0.082   6.414   8.507
20537WAT      O61852   7.020   3.156   2.074
20537WAT     H161853   6.950   3.168   2.143
20537WAT     H261854   7.101   3.114   2.115
20538WAT      O61855   7.935   1.603   3.755
20538WAT     H161856   7.936   1.624   3.853
20538WAT     H261857   8.024   1.625   3.716
20539WAT      O61858   2.629   4.905   4.114
20539WAT     H161859   2.705   4.970   4.114
20539WAT     H261860   2.547   4.950   4.079
20540WAT      O61861   1.059   8.579   4.971
20540WAT     H161862   1.148   8.541   4.996
20540WAT     H261863   1.004   8.509   4.925
20541WAT      O61864   5.962   5.851   8.559
20541WAT     H161865   5.870   5.878   8.586
20541WAT     H261866   5.960   5.757   8.524
20542WAT      O61867   5.264   7.305   9.426
20542WAT     H161868   5.229   7.220   9.467
20542WAT     H261869   5.252   7.302   9.327
20543WAT      O61870   8.690   5.585   6.506
20543WAT     H161871   8.604   5.618   6.468
20543WAT     H261872   8.674   5.500   6.556
20544WAT      O61873   3.028   1.012   2.352
20544WAT     H161874   3.043   0.923   2.396
20544WAT     H261875   2.935   1.016   2.315
20545WAT      O61876   1.633   3.236   2.645
20545WAT     H161877   1.547   3.186   2.655
20545WAT     H261878   1.614   3.332   2.627
20546WAT      O61879   1.407   7.217   4.897
20546WAT     H161880   1.487   7.270   4.869
20546WAT     H261881   1.374   7.163   4.820
20547WAT      O61882   3.154   4.372   3.989
20547WAT     H161883   3.076   4.427   3.959
20547WAT     H261884   3.193   4.323   3.911
20548WAT      O61885   6.422   5.178   9.750
20548WAT     H161886   6.435   5.091   9.798
20548WAT     H261887   6.324   5.197   9.742
20549WAT      O61888   6.688   5.599   8.931
20549WAT     H161889   6.733   5.688   8.941
20549WAT     H261890   6.597   5.603   8.971
20550WAT      O61891   1.095   0.260   7.246
20550WAT     H161892   1.111   0.283   7.150
20550WAT     H261893   0.999   0.277   7.269
20551WAT      O61894   1.388   0.545   2.477
20551WAT     H161895   1.315   0.537   2.544
20551WAT     H261896   1.470   0.582   2.521
20552WAT      O61897   6.329   7.828   7.946
20552WAT     H161898   6.373   7.913   7.917
20552WAT     H261899   6.232   7.829   7.918
20553WAT      O61900   3.002   7.284   1.433
20553WAT     H161901   3.018   7.312   1.528
20553WAT     H261902   3.053   7.201   1.413
20554WAT      O61903   2.789   7.777   6.897
20554WAT     H161904   2.850   7.843   6.855
20554WAT     H261905   2.739   7.820   6.971
20555WAT      O61906   7.749   6.601   8.557
20555WAT     H161907   7.817   6.658   8.511
20555WAT     H261908   7.658   6.640   8.545
20556WAT      O61909   5.527   5.974   5.666
20556WAT     H161910   5.530   5.955   5.764
20556WAT     H261911   5.433   5.962   5.633
20557WAT      O61912   8.022   9.782   5.298
20557WAT     H161913   8.013   9.696   5.248
20557WAT     H261914   8.101   9.778   5.359
20558WAT      O61915   5.732   8.037   8.328
20558WAT     H161916   5.710   8.124   8.373
20558WAT     H261917   5.713   7.961   8.390
20559WAT      O61918   7.158   0.020   0.412
20559WAT     H161919   7.145   0.008   0.511
20559WAT     H261920   7.080   0.072   0.375
20560WAT      O61921   0.320   2.729   2.159
20560WAT     H161922   0.277   2.690   2.078
20560WAT     H261923   0.251   2.739   2.231
20561WAT      O61924   3.428   1.131   1.579
20561WAT     H161925   3.475   1.180   1.653
20561WAT     H261926   3.459   1.166   1.491
20562WAT      O61927   9.068   1.828   7.055
20562WAT     H161928   9.039   1.825   7.151
20562WAT     H261929   9.099   1.920   7.033
20563WAT      O61930   6.250   3.689   5.087
20563WAT     H161931   6.213   3.650   5.002
20563WAT     H261932   6.343   3.657   5.100
20564WAT      O61933   8.832   1.771   6.925
20564WAT     H161934   8.842   1.699   6.856
20564WAT     H261935   8.923   1.803   6.952
20565WAT      O61936   8.809   5.165   5.681
20565WAT     H161937   8.753   5.228   5.735
20565WAT     H261938   8.823   5.080   5.732
20566WAT      O61939   2.031   4.558   2.190
20566WAT     H161940   2.021   4.641   2.137
20566WAT     H261941   2.123   4.520   2.176
20567WAT      O61942   2.108   7.154   2.032
20567WAT     H161943   2.096   7.176   2.129
20567WAT     H261944   2.023   7.174   1.983
20568WAT      O61945   6.825   7.632   3.722
20568WAT     H161946   6.755   7.702   3.712
20568WAT     H261947   6.787   7.555   3.773
20569WAT      O61948   0.776   9.744   8.788
20569WAT     H161949   0.842   9.696   8.845
20569WAT     H261950   0.691   9.691   8.784
20570WAT      O61951   9.158   9.192   7.778
20570WAT     H161952   9.222   9.150   7.842
20570WAT     H261953   9.078   9.133   7.767
20571WAT      O61954   9.562   5.795   3.411
20571WAT     H161955   9.567   5.822   3.507
20571WAT     H261956   9.528   5.872   3.357
20572WAT      O61957   5.622   8.924   3.453
20572WAT     H161958   5.557   8.852   3.480
20572WAT     H261959   5.694   8.885   3.397
20573WAT      O61960   1.494   9.259   6.365
20573WAT     H161961   1.449   9.212   6.441
20573WAT     H261962   1.560   9.198   6.322
20574WAT      O61963   5.490   7.301   9.772
20574WAT     H161964   5.581   7.282   9.810
20574WAT     H261965   5.453   7.217   9.733
20575WAT      O61966   3.045   8.228   8.504
20575WAT     H161967   3.030   8.131   8.482
20575WAT     H261968   2.963   8.266   8.545
20576WAT      O61969   1.793   8.479   3.315
20576WAT     H161970   1.741   8.408   3.268
20576WAT     H261971   1.731   8.531   3.374
20577WAT      O61972   2.700   0.438   2.133
20577WAT     H161973   2.651   0.525   2.140
20577WAT     H261974   2.746   0.433   2.044
20578WAT      O61975   0.174   8.298   8.459
20578WAT     H161976   0.200   8.210   8.499
20578WAT     H261977   0.119   8.349   8.524
20579WAT      O61978   1.571   5.414   3.401
20579WAT     H161979   1.485   5.363   3.406
20579WAT     H261980   1.642   5.366   3.451
20580WAT      O61981   9.051   5.273   6.922
20580WAT     H161982   9.057   5.283   7.022
20580WAT     H261983   9.060   5.176   6.899
20581WAT      O61984   2.917   8.967   0.799
20581WAT     H161985   2.971   9.033   0.747
20581WAT     H261986   2.899   9.003   0.890
20582WAT      O61987   2.819   3.810   3.401
20582WAT     H161988   2.800   3.902   3.435
20582WAT     H261989   2.895   3.814   3.336
20583WAT      O61990   7.261   8.439   4.594
20583WAT     H161991   7.277   8.538   4.592
20583WAT     H261992   7.290   8.402   4.682
20584WAT      O61993   9.022   7.795   9.388
20584WAT     H161994   8.929   7.783   9.423
20584WAT     H261995   9.081   7.829   9.461
20585WAT      O61996   9.160   6.018   0.509
20585WAT     H161997   9.216   5.939   0.535
20585WAT     H261998   9.218   6.099   0.502
20586WAT      O61999   2.146   4.931   7.754
20586WAT     H162000   2.189   4.841   7.753
20586WAT     H262001   2.075   4.935   7.684
20587WAT      O62002   5.814   6.849   7.501
20587WAT     H162003   5.836   6.933   7.451
20587WAT     H262004   5.736   6.866   7.561
20588WAT      O62005   3.099   8.674   5.092
20588WAT     H162006   3.166   8.684   5.166
20588WAT     H262007   3.111   8.749   5.026
20589WAT      O62008   8.904   8.847   0.663
20589WAT     H162009   8.896   8.940   0.627
20589WAT     H262010   8.825   8.828   0.722
20590WAT      O62011   4.667   9.131   3.648
20590WAT     H162012   4.596   9.062   3.660
20590WAT     H262013   4.683   9.177   3.735
20591WAT      O62014   9.824   8.820   7.143
20591WAT     H162015   9.734   8.807   7.185
20591WAT     H262016   9.879   8.738   7.156
20592WAT      O62017   0.198   2.917   0.126
20592WAT     H162018   0.164   2.830   0.160
20592WAT     H262019   0.295   2.928   0.152
20593WAT      O62020   8.574   3.098   1.410
20593WAT     H162021   8.567   2.999   1.403
20593WAT     H262022   8.500   3.140   1.357
20594WAT      O62023   4.485   2.186   9.465
20594WAT     H162024   4.517   2.094   9.488
20594WAT     H262025   4.429   2.183   9.383
20595WAT      O62026   3.200   7.768   3.552
20595WAT     H162027   3.215   7.739   3.647
20595WAT     H262028   3.128   7.837   3.549
20596WAT      O62029   6.968   3.496   3.731
20596WAT     H162030   7.052   3.483   3.678
20596WAT     H262031   6.925   3.408   3.746
20597WAT      O62032   0.808   1.244   6.440
20597WAT     H162033   0.863   1.325   6.460
20597WAT     H262034   0.775   1.249   6.345
20598WAT      O62035   5.424   4.465   3.276
20598WAT     H162036   5.435   4.531   3.202
20598WAT     H262037   5.456   4.375   3.247
20599WAT      O62038   9.589   9.775   0.681
20599WAT     H162039   9.515   9.819   0.629
20599WAT     H262040   9.654   9.734   0.617
20600WAT      O62041   5.937   2.892   3.670
20600WAT     H162042   6.013   2.887   3.735
20600WAT     H262043   5.856   2.849   3.710
20601WAT      O62044   7.750   2.168   9.013
20601WAT     H162045   7.820   2.102   8.984
20601WAT     H262046   7.695   2.128   9.086
20602WAT      O62047   6.288   9.023   6.451
20602WAT     H162048   6.234   9.088   6.505
20602WAT     H262049   6.246   9.012   6.361
20603WAT      O62050   7.044   8.684   9.296
20603WAT     H162051   7.061   8.591   9.328
20603WAT     H262052   7.104   8.748   9.345
20604WAT      O62053   6.440   3.329   2.770
20604WAT     H162054   6.539   3.337   2.781
20604WAT     H262055   6.420   3.269   2.692
20605WAT      O62056   8.004   0.233   8.944
20605WAT     H162057   8.022   0.214   9.041
20605WAT     H262058   7.906   0.243   8.929
20606WAT      O62059   1.110   5.737   3.237
20606WAT     H162060   1.093   5.775   3.146
20606WAT     H262061   1.045   5.663   3.255
20607WAT      O62062   5.372   0.956   4.757
20607WAT     H162063   5.344   0.862   4.775
20607WAT     H262064   5.348   1.014   4.834
20608WAT      O62065   2.212   2.183   6.548
20608WAT     H162066   2.201   2.095   6.594
20608WAT     H262067   2.123   2.222   6.527
20609WAT      O62068   2.593   2.367   8.138
20609WAT     H162069   2.671   2.306   8.125
20609WAT     H262070   2.510   2.313   8.150
20610WAT      O62071   6.126   7.530   8.818
20610WAT     H162072   6.162   7.440   8.793
20610WAT     H262073   6.193   7.578   8.875
20611WAT      O62074   0.152   9.754   7.118
20611WAT     H162075   0.104   9.830   7.162
20611WAT     H262076   0.136   9.757   7.019
20612WAT      O62077   8.590   7.989   0.315
20612WAT     H162078   8.686   7.962   0.308
20612WAT     H262079   8.565   8.045   0.236
20613WAT      O62080   5.343   0.418   7.120
20613WAT     H162081   5.313   0.399   7.214
20613WAT     H262082   5.268   0.461   7.070
20614WAT      O62083   1.045   1.175   0.296
20614WAT     H162084   0.996   1.253   0.258
20614WAT     H262085   1.141   1.179   0.268
20615WAT      O62086   5.148   0.317   9.322
20615WAT     H162087   5.228   0.356   9.368
20615WAT     H262088   5.137   0.221   9.349
20616WAT      O62089   2.186   2.154   5.500
20616WAT     H162090   2.227   2.158   5.409
20616WAT     H262091   2.089   2.180   5.493
20617WAT      O62092   5.331   5.317   7.709
20617WAT     H162093   5.351   5.236   7.654
20617WAT     H262094   5.409   5.338   7.768
20618WAT      O62095   1.498   9.833   9.620
20618WAT     H162096   1.443   9.783   9.554
20618WAT     H262097   1.440   9.895   9.673
20619WAT      O62098   8.147   6.506   3.970
20619WAT     H162099   8.157   6.407   3.979
20619WAT     H262100   8.054   6.532   3.995
20620WAT      O62101   5.587   1.072   9.690
20620WAT     H162102   5.521   1.027   9.631
20620WAT     H262103   5.564   1.054   9.786
20621WAT      O62104   8.297   3.873   0.501
20621WAT     H162105   8.289   3.897   0.404
20621WAT     H262106   8.207   3.877   0.544
20622WAT      O62107   9.855   0.480   6.020
20622WAT     H162108   9.810   0.403   6.066
20622WAT     H262109   9.791   0.523   5.957
20623WAT      O62110   6.940   6.876   6.664
20623WAT     H162111   6.845   6.861   6.637
20623WAT     H262112   6.965   6.809   6.735
20624WAT      O62113   6.788   0.650   7.922
20624WAT     H162114   6.788   0.684   8.016
20624WAT     H262115   6.763   0.725   7.860
20625WAT      O62116   1.348   7.938   1.302
20625WAT     H162117   1.423   7.875   1.321
20625WAT     H262118   1.379   8.010   1.240
20626WAT      O62119   5.246   4.100   7.543
20626WAT     H162120   5.273   4.023   7.601
20626WAT     H262121   5.157   4.135   7.573
20627WAT      O62122   7.246   0.464   9.828
20627WAT     H162123   7.304   0.408   9.888
20627WAT     H262124   7.211   0.407   9.753
20628WAT      O62125   4.677   4.973   7.245
20628WAT     H162126   4.639   4.981   7.337
20628WAT     H262127   4.610   4.930   7.185
20629WAT      O62128   3.539   7.038   5.229
20629WAT     H162129   3.565   7.082   5.315
20629WAT     H262130   3.614   7.048   5.163
20630WAT      O62131   0.991   4.822   3.659
20630WAT     H162132   1.060   4.789   3.595
20630WAT     H262133   0.966   4.749   3.722
20631WAT      O62134   2.878   6.864   0.591
20631WAT     H162135   2.794   6.906   0.556
20631WAT     H262136   2.909   6.914   0.671
20632WAT      O62137   6.585   7.450   9.819
20632WAT     H162138   6.573   7.443   9.720
20632WAT     H262139   6.561   7.363   9.862
20633WAT      O62140   8.630   6.537   6.655
20633WAT     H162141   8.646   6.599   6.732
20633WAT     H262142   8.675   6.574   6.574
20634WAT      O62143   2.821   5.377   0.544
20634WAT     H162144   2.804   5.349   0.638
20634WAT     H262145   2.813   5.477   0.537
20635WAT      O62146   0.187   1.644   5.594
20635WAT     H162147   0.096   1.635   5.554
20635WAT     H262148   0.182   1.628   5.692
20636WAT      O62149   1.895   7.177   2.403
20636WAT     H162150   1.820   7.221   2.354
20636WAT     H262151   1.860   7.096   2.450
20637WAT      O62152   7.880   6.095   2.024
20637WAT     H162153   7.941   6.162   2.065
20637WAT     H262154   7.889   6.099   1.924
20638WAT      O62155   8.246   4.067   5.034
20638WAT     H162156   8.203   4.126   4.965
20638WAT     H262157   8.211   3.974   5.023
20639WAT      O62158   3.525   0.891   2.404
20639WAT     H162159   3.592   0.935   2.345
20639WAT     H262160   3.468   0.960   2.449
20640WAT      O62161   6.921   2.169   5.259
20640WAT     H162162   6.998   2.105   5.254
20640WAT     H262163   6.956   2.261   5.274
20641WAT      O62164   5.323   2.577   9.874
20641WAT     H162165   5.416   2.562   9.841
20641WAT     H262166   5.281   2.489   9.896
20642WAT      O62167   4.516   1.313   8.436
20642WAT     H162168   4.437   1.373   8.423
20642WAT     H262169   4.593   1.348   8.382
20643WAT      O62170   0.252   6.678   3.945
20643WAT     H162171   0.165   6.698   3.900
20643WAT     H262172   0.254   6.581   3.971
20644WAT      O62173   7.167   4.601   9.836
20644WAT     H162174   7.167   4.701   9.830
20644WAT     H262175   7.081   4.570   9.877
20645WAT      O62176   4.278   7.132   4.042
20645WAT     H162177   4.269   7.180   3.956
20645WAT     H262178   4.188   7.100   4.072
20646WAT      O62179   5.970   8.271   9.507
20646WAT     H162180   5.939   8.366   9.506
20646WAT     H262181   5.991   8.242   9.414
20647WAT      O62182   9.821   5.970   8.674
20647WAT     H162183   9.875   6.040   8.627
20647WAT     H262184   9.775   6.011   8.752
20648WAT      O62185   9.184   4.692   7.893
20648WAT     H162186   9.268   4.686   7.839
20648WAT     H262187   9.113   4.635   7.850
20649WAT      O62188   9.484   1.232   0.064
20649WAT     H162189   9.437   1.217  -0.024
20649WAT     H262190   9.582   1.239   0.048
20650WAT      O62191   1.165   3.126   2.852
20650WAT     H162192   1.214   3.040   2.858
20650WAT     H262193   1.073   3.109   2.815
20651WAT      O62194   7.472   0.260   1.018
20651WAT     H162195   7.460   0.341   0.960
20651WAT     H262196   7.563   0.261   1.059
20652WAT      O62197   8.112   2.441   6.596
20652WAT     H162198   8.151   2.530   6.618
20652WAT     H262199   8.014   2.442   6.614
20653WAT      O62200   3.482   8.731   1.788
20653WAT     H162201   3.402   8.790   1.778
20653WAT     H262202   3.453   8.640   1.818
20654WAT      O62203   1.893   4.298   2.649
20654WAT     H162204   1.931   4.252   2.729
20654WAT     H262205   1.838   4.232   2.596
20655WAT      O62206   7.595   4.666   5.131
20655WAT     H162207   7.622   4.751   5.087
20655WAT     H262208   7.571   4.598   5.062
20656WAT      O62209   4.694   6.073   7.583
20656WAT     H162210   4.600   6.106   7.588
20656WAT     H262211   4.738   6.084   7.672
20657WAT      O62212   4.563   4.504   1.072
20657WAT     H162213   4.583   4.601   1.089
20657WAT     H262214   4.492   4.497   1.001
20658WAT      O62215   2.317   5.190   9.000
20658WAT     H162216   2.411   5.221   8.984
20658WAT     H262217   2.319   5.106   9.055
20659WAT      O62218   2.899   3.302   0.077
20659WAT     H162219   2.922   3.388   0.032
20659WAT     H262220   2.983   3.261   0.114
20660WAT      O62221   2.167   0.628   5.629
20660WAT     H162222   2.158   0.529   5.617
20660WAT     H262223   2.172   0.673   5.540
20661WAT      O62224   0.158   8.740   8.275
20661WAT     H162225   0.249   8.708   8.248
20661WAT     H262226   0.103   8.662   8.306
20662WAT      O62227   4.226   2.676   0.716
20662WAT     H162228   4.203   2.649   0.622
20662WAT     H262229   4.266   2.767   0.716
20663WAT      O62230   5.516   7.334   7.595
20663WAT     H162231   5.425   7.374   7.587
20663WAT     H262232   5.582   7.405   7.618
20664WAT      O62233   1.139   5.760   0.979
20664WAT     H162234   1.149   5.755   0.879
20664WAT     H262235   1.207   5.822   1.016
20665WAT      O62236   4.474   5.744   8.145
20665WAT     H162237   4.533   5.666   8.123
20665WAT     H262238   4.518   5.829   8.114
20666WAT      O62239   1.647   0.253   9.849
20666WAT     H162240   1.612   0.288   9.762
20666WAT     H262241   1.746   0.236   9.841
20667WAT      O62242   1.893   5.677   3.154
20667WAT     H162243   1.987   5.676   3.186
20667WAT     H262244   1.834   5.717   3.225
20668WAT      O62245   5.225   8.408   9.512
20668WAT     H162246   5.134   8.448   9.498
20668WAT     H262247   5.222   8.311   9.490
20669WAT      O62248   0.869   9.621   6.971
20669WAT     H162249   0.828   9.684   7.037
20669WAT     H262250   0.823   9.631   6.882
20670WAT      O62251   0.276   6.746   1.863
20670WAT     H162252   0.226   6.673   1.911
20670WAT     H262253   0.371   6.718   1.849
20671WAT      O62254   3.028   7.202   0.381
20671WAT     H162255   3.117   7.187   0.423
20671WAT     H262256   2.961   7.221   0.452
20672WAT      O62257   4.468   6.222   1.234
20672WAT     H162258   4.399   6.216   1.162
20672WAT     H262259   4.437   6.169   1.313
20673WAT      O62260   0.944   3.132   0.685
20673WAT     H162261   0.891   3.207   0.646
20673WAT     H262262   0.902   3.102   0.770
20674WAT      O62263   4.637   0.227   2.314
20674WAT     H162264   4.731   0.204   2.339
20674WAT     H262265   4.599   0.291   2.381
20675WAT      O62266   8.855   3.624   8.465
20675WAT     H162267   8.772   3.569   8.456
20675WAT     H262268   8.924   3.572   8.515
20676WAT      O62269   5.812   2.839   7.550
20676WAT     H162270   5.851   2.832   7.458
20676WAT     H262271   5.839   2.758   7.603
20677WAT      O62272   6.438   8.553   5.807
20677WAT     H162273   6.400   8.638   5.843
20677WAT     H262274   6.534   8.567   5.782
20678WAT      O62275   3.610   4.599   3.029
20678WAT     H162276   3.640   4.504   3.031
20678WAT     H262277   3.665   4.653   3.093
20679WAT      O62278   9.168   2.135   3.201
20679WAT     H162279   9.214   2.121   3.289
20679WAT     H262280   9.090   2.196   3.213
20680WAT      O62281   4.130   4.064   1.483
20680WAT     H162282   4.070   4.115   1.545
20680WAT     H262283   4.145   3.972   1.519
20681WAT      O62284   5.012   1.224   6.301
20681WAT     H162285   5.007   1.220   6.401
20681WAT     H262286   5.065   1.304   6.274
20682WAT      O62287   0.338   3.838   1.867
20682WAT     H162288   0.398   3.889   1.805
20682WAT     H262289   0.317   3.894   1.947
20683WAT      O62290   0.988   4.945   9.870
20683WAT     H162291   1.072   4.910   9.830
20683WAT     H262292   0.909   4.897   9.830
20684WAT      O62293   4.637   7.587   1.041
20684WAT     H162294   4.712   7.653   1.046
20684WAT     H262295   4.622   7.546   1.131
20685WAT      O62296   1.712   0.458   6.193
20685WAT     H162297   1.728   0.522   6.118
20685WAT     H262298   1.680   0.371   6.156
20686WAT      O62299   1.891   5.009   9.441
20686WAT     H162300   1.957   4.935   9.439
20686WAT     H262301   1.839   5.011   9.356
20687WAT      O62302   5.488   4.945   8.919
20687WAT     H162303   5.428   4.865   8.919
20687WAT     H262304   5.576   4.921   8.879
20688WAT      O62305   0.928   8.791   8.842
20688WAT     H162306   0.923   8.855   8.765
20688WAT     H262307   0.884   8.705   8.816
20689WAT      O62308   4.868   8.890   8.045
20689WAT     H162309   4.962   8.856   8.058
20689WAT     H262310   4.835   8.861   7.955
20690WAT      O62311   1.183   3.746   7.745
20690WAT     H162312   1.111   3.812   7.724
20690WAT     H262313   1.146   3.671   7.800
20691WAT      O62314   9.127   0.217   6.334
20691WAT     H162315   9.032   0.240   6.318
20691WAT     H262316   9.180   0.233   6.251
20692WAT      O62317   6.320   8.064   7.008
20692WAT     H162318   6.330   8.002   6.930
20692WAT     H262319   6.231   8.050   7.051
20693WAT      O62320   0.896   5.483   2.526
20693WAT     H162321   0.992   5.510   2.537
20693WAT     H262322   0.874   5.475   2.429
20694WAT      O62323   4.975   2.498   4.128
20694WAT     H162324   4.950   2.409   4.090
20694WAT     H262325   4.976   2.492   4.228
20695WAT      O62326   7.770   9.521   2.683
20695WAT     H162327   7.829   9.587   2.635
20695WAT     H262328   7.818   9.487   2.764
20696WAT      O62329   5.250   9.719   2.890
20696WAT     H162330   5.252   9.810   2.848
20696WAT     H262331   5.156   9.686   2.894
20697WAT      O62332   3.082   3.395   8.171
20697WAT     H162333   3.066   3.301   8.201
20697WAT     H262334   3.018   3.418   8.098
20698WAT      O62335   7.863   1.642   0.158
20698WAT     H162336   7.805   1.672   0.083
20698WAT     H262337   7.820   1.565   0.205
20699WAT      O62338   8.589   5.263   4.991
20699WAT     H162339   8.682   5.275   4.956
20699WAT     H262340   8.538   5.203   4.930
20700WAT      O62341   9.462   3.273   4.587
20700WAT     H162342   9.427   3.292   4.495
20700WAT     H262343   9.562   3.276   4.585
20701WAT      O62344   2.850   8.310   3.696
20701WAT     H162345   2.901   8.255   3.763
20701WAT     H262346   2.897   8.305   3.607
20702WAT      O62347   9.735   6.982   1.488
20702WAT     H162348   9.715   7.008   1.394
20702WAT     H262349   9.834   6.974   1.501
20703WAT      O62350   9.204   2.108   0.477
20703WAT     H162351   9.142   2.139   0.549
20703WAT     H262352   9.288   2.074   0.519
20704WAT      O62353   1.709   8.934   2.392
20704WAT     H162354   1.685   9.017   2.442
20704WAT     H262355   1.652   8.858   2.424
20705WAT      O62356   5.369   9.255   5.708
20705WAT     H162357   5.316   9.260   5.623
20705WAT     H262358   5.380   9.346   5.746
20706WAT      O62359   9.538   0.250   0.653
20706WAT     H162360   9.580   0.193   0.723
20706WAT     H262361   9.488   0.192   0.588
20707WAT      O62362   6.237   7.710   7.254
20707WAT     H162363   6.149   7.748   7.225
20707WAT     H262364   6.267   7.641   7.189
20708WAT      O62365   8.114   5.222   7.513
20708WAT     H162366   8.070   5.311   7.500
20708WAT     H262367   8.052   5.162   7.565
20709WAT      O62368   5.456   6.031   1.167
20709WAT     H162369   5.480   5.950   1.221
20709WAT     H262370   5.538   6.086   1.150
20710WAT      O62371   4.119   3.469   3.618
20710WAT     H162372   4.209   3.513   3.617
20710WAT     H262373   4.049   3.538   3.631
20711WAT      O62374   5.116   6.518   6.410
20711WAT     H162375   5.156   6.599   6.452
20711WAT     H262376   5.082   6.457   6.482
20712WAT      O62377   2.783   4.265   2.678
20712WAT     H162378   2.787   4.295   2.773
20712WAT     H262379   2.786   4.165   2.674
20713WAT      O62380   4.040   8.138   4.624
20713WAT     H162381   4.098   8.182   4.556
20713WAT     H262382   4.048   8.038   4.616
20714WAT      O62383   6.879   0.771   7.492
20714WAT     H162384   6.859   0.863   7.525
20714WAT     H262385   6.953   0.732   7.545
20715WAT      O62386   0.021   7.799   6.544
20715WAT     H162387   0.043   7.889   6.580
20715WAT     H262388   0.016   7.733   6.619
20716WAT      O62389   8.588   7.992   0.593
20716WAT     H162390   8.621   7.898   0.606
20716WAT     H262391   8.578   8.010   0.495
20717WAT      O62392   5.395   1.249   6.964
20717WAT     H162393   5.467   1.253   6.895
20717WAT     H262394   5.395   1.158   7.006
20718WAT      O62395   3.069   0.889   2.989
20718WAT     H162396   3.104   0.802   2.954
20718WAT     H262397   3.080   0.960   2.920
20719WAT      O62398   4.122   5.537   1.200
20719WAT     H162399   4.086   5.623   1.162
20719WAT     H262400   4.047   5.471   1.210
20720WAT      O62401   5.691   8.259   9.281
20720WAT     H162402   5.745   8.325   9.229
20720WAT     H262403   5.711   8.167   9.248
20721WAT      O62404   5.316   1.080   8.806
20721WAT     H162405   5.350   1.075   8.899
20721WAT     H262406   5.255   1.003   8.789
20722WAT      O62407   3.586   8.952   7.685
20722WAT     H162408   3.664   9.015   7.692
20722WAT     H262409   3.604   8.871   7.740
20723WAT      O62410   3.830   4.786   0.104
20723WAT     H162411   3.755   4.762   0.042
20723WAT     H262412   3.809   4.753   0.196
20724WAT      O62413   9.249   4.636   7.442
20724WAT     H162414   9.252   4.538   7.421
20724WAT     H262415   9.167   4.656   7.495
20725WAT      O62416   3.988   5.317   0.910
20725WAT     H162417   3.984   5.308   1.010
20725WAT     H262418   3.926   5.251   0.868
20726WAT      O62419   0.099   8.009   4.613
20726WAT     H162420   0.147   7.966   4.537
20726WAT     H262421   0.045   7.941   4.662
20727WAT      O62422   9.341   8.485   1.120
20727WAT     H162423   9.326   8.413   1.053
20727WAT     H262424   9.412   8.547   1.087
20728WAT      O62425   1.454   9.132   1.568
20728WAT     H162426   1.400   9.207   1.608
20728WAT     H262427   1.549   9.138   1.602
20729WAT      O62428   7.161   4.059   4.088
20729WAT     H162429   7.066   4.085   4.073
20729WAT     H262430   7.204   4.123   4.152
20730WAT      O62431   5.660   8.716   9.538
20730WAT     H162432   5.654   8.807   9.577
20730WAT     H262433   5.570   8.671   9.543
20731WAT      O62434   3.394   2.349   1.945
20731WAT     H162435   3.295   2.361   1.954
20731WAT     H262436   3.427   2.399   1.865
20732WAT      O62437   7.766   6.131   9.418
20732WAT     H162438   7.684   6.080   9.445
20732WAT     H262439   7.813   6.082   9.344
20733WAT      O62440   6.262   4.584   6.048
20733WAT     H162441   6.261   4.484   6.045
20733WAT     H262442   6.334   4.615   6.110
20734WAT      O62443   2.757   0.001   2.134
20734WAT     H162444   2.838   0.059   2.122
20734WAT     H262445   2.688   0.050   2.187
20735WAT      O62446   9.168   9.348   3.479
20735WAT     H162447   9.254   9.354   3.430
20735WAT     H262448   9.119   9.265   3.452
20736WAT      O62449   3.742   5.937   5.707
20736WAT     H162450   3.660   5.882   5.723
20736WAT     H262451   3.773   5.922   5.613
20737WAT      O62452   9.216   5.460   6.369
20737WAT     H162453   9.134   5.405   6.353
20737WAT     H262454   9.249   5.444   6.462
20738WAT      O62455   5.412   7.995   0.557
20738WAT     H162456   5.362   7.910   0.546
20738WAT     H262457   5.510   7.976   0.562
20739WAT      O62458   4.670   3.868   6.418
20739WAT     H162459   4.680   3.943   6.352
20739WAT     H262460   4.672   3.904   6.511
20740WAT      O62461   4.956   3.398   4.439
20740WAT     H162462   4.975   3.406   4.537
20740WAT     H262463   4.905   3.313   4.423
20741WAT      O62464   1.505   6.837   5.651
20741WAT     H162465   1.458   6.811   5.736
20741WAT     H262466   1.590   6.884   5.674
20742WAT      O62467   1.644   2.435   7.364
20742WAT     H162468   1.714   2.469   7.427
20742WAT     H262469   1.584   2.511   7.337
20743WAT      O62470   6.869   8.631   3.804
20743WAT     H162471   6.869   8.533   3.784
20743WAT     H262472   6.963   8.665   3.802
20744WAT      O62473   1.245   2.451   4.063
20744WAT     H162474   1.148   2.431   4.051
20744WAT     H262475   1.290   2.455   3.974
20745WAT      O62476   9.883   9.510   4.172
20745WAT     H162477   9.979   9.511   4.145
20745WAT     H262478   9.839   9.426   4.138
20746WAT      O62479   0.382   7.347   5.658
20746WAT     H162480   0.359   7.251   5.642
20746WAT     H262481   0.447   7.353   5.734
20747WAT      O62482   1.060   2.132   1.775
20747WAT     H162483   1.108   2.148   1.861
20747WAT     H262484   1.112   2.068   1.719
20748WAT      O62485   5.857   4.654   3.778
20748WAT     H162486   5.852   4.745   3.819
20748WAT     H262487   5.931   4.602   3.820
20749WAT      O62488   1.921   4.115   0.607
20749WAT     H162489   1.940   4.120   0.509
20749WAT     H262490   1.986   4.051   0.650
20750WAT      O62491   8.685   1.383   1.440
20750WAT     H162492   8.760   1.320   1.458
20750WAT     H262493   8.602   1.349   1.485
20751WAT      O62494   3.960   5.920   1.619
20751WAT     H162495   4.049   5.941   1.578
20751WAT     H262496   3.905   5.869   1.553
20752WAT      O62497   4.913   8.692   0.525
20752WAT     H162498   4.959   8.609   0.556
20752WAT     H262499   4.902   8.689   0.425
20753WAT      O62500   9.273   1.624   7.109
20753WAT     H162501   9.215   1.703   7.086
20753WAT     H262502   9.336   1.649   7.183
20754WAT      O62503   6.879   4.642   1.713
20754WAT     H162504   6.965   4.651   1.763
20754WAT     H262505   6.876   4.553   1.667
20755WAT      O62506   3.303   2.642   1.802
20755WAT     H162507   3.327   2.684   1.890
20755WAT     H262508   3.203   2.640   1.793
20756WAT      O62509   4.717   7.203   8.064
20756WAT     H162510   4.730   7.106   8.044
20756WAT     H262511   4.671   7.213   8.152
20757WAT      O62512   7.226   0.172   2.658
20757WAT     H162513   7.312   0.223   2.652
20757WAT     H262514   7.149   0.235   2.652
20758WAT      O62515   3.819   4.006   9.247
20758WAT     H162516   3.802   4.094   9.291
20758WAT     H262517   3.809   3.932   9.314
20759WAT      O62518   7.286   5.054   2.295
20759WAT     H162519   7.323   4.962   2.310
20759WAT     H262520   7.323   5.117   2.363
20760WAT      O62521   0.390   1.804   9.785
20760WAT     H162522   0.299   1.821   9.824
20760WAT     H262523   0.442   1.890   9.786
20761WAT      O62524   9.825   4.110   2.098
20761WAT     H162525   9.777   4.085   2.182
20761WAT     H262526   9.911   4.155   2.120
20762WAT      O62527   6.525   4.458   1.193
20762WAT     H162528   6.546   4.365   1.163
20762WAT     H262529   6.434   4.485   1.159
20763WAT      O62530   9.102   0.704   7.104
20763WAT     H162531   9.078   0.656   7.020
20763WAT     H262532   9.194   0.744   7.095
20764WAT      O62533   5.989   5.833   4.177
20764WAT     H162534   6.001   5.904   4.247
20764WAT     H262535   5.897   5.795   4.185
20765WAT      O62536   9.850   2.625   7.953
20765WAT     H162537   9.872   2.528   7.966
20765WAT     H262538   9.770   2.633   7.895
20766WAT      O62539   1.786   5.311   2.269
20766WAT     H162540   1.830   5.357   2.191
20766WAT     H262541   1.743   5.379   2.328
20767WAT      O62542   0.263   4.287   1.242
20767WAT     H162543   0.244   4.237   1.158
20767WAT     H262544   0.255   4.385   1.225
20768WAT      O62545   1.248   0.811   7.569
20768WAT     H162546   1.176   0.821   7.637
20768WAT     H262547   1.263   0.714   7.550
20769WAT      O62548   2.625   1.160   8.511
20769WAT     H162549   2.693   1.229   8.539
20769WAT     H262550   2.561   1.144   8.586
20770WAT      O62551   9.445   0.372   7.814
20770WAT     H162552   9.539   0.386   7.843
20770WAT     H262553   9.444   0.330   7.723
20771WAT      O62554   5.695   6.991   2.435
20771WAT     H162555   5.650   7.067   2.482
20771WAT     H262556   5.647   6.973   2.349
20772WAT      O62557   6.224   9.520   5.009
20772WAT     H162558   6.269   9.452   4.951
20772WAT     H262559   6.153   9.475   5.064
20773WAT      O62560   6.200   1.208   6.559
20773WAT     H162561   6.197   1.154   6.643
20773WAT     H262562   6.168   1.301   6.577
20774WAT      O62563   1.637   3.927   6.887
20774WAT     H162564   1.699   3.956   6.959
20774WAT     H262565   1.626   4.000   6.820
20775WAT      O62566   8.466   8.970   6.966
20775WAT     H162567   8.377   9.015   6.972
20775WAT     H262568   8.454   8.871   6.974
20776WAT      O62569   2.058   6.096   6.523
20776WAT     H162570   2.078   6.194   6.522
20776WAT     H262571   1.964   6.082   6.553
20777WAT      O62572   0.922   7.820   2.635
20777WAT     H162573   0.927   7.807   2.734
20777WAT     H262574   0.905   7.732   2.591
20778WAT      O62575   6.782   8.561   9.754
20778WAT     H162576   6.691   8.527   9.729
20778WAT     H262577   6.833   8.488   9.800
20779WAT      O62578   7.146   2.289   6.387
20779WAT     H162579   7.079   2.219   6.413
20779WAT     H262580   7.119   2.377   6.427
20780WAT      O62581   7.543   1.775   3.641
20780WAT     H162582   7.588   1.748   3.557
20780WAT     H262583   7.586   1.728   3.719
20781WAT      O62584   4.795   8.767   5.600
20781WAT     H162585   4.790   8.857   5.643
20781WAT     H262586   4.891   8.743   5.583
20782WAT      O62587   0.862   3.227   7.118
20782WAT     H162588   0.849   3.165   7.196
20782WAT     H262589   0.789   3.213   7.051
20783WAT      O62590   1.866   1.522   2.027
20783WAT     H162591   1.833   1.553   1.938
20783WAT     H262592   1.966   1.532   2.032
20784WAT      O62593   7.366   7.259   1.322
20784WAT     H162594   7.276   7.296   1.346
20784WAT     H262595   7.400   7.306   1.240
20785WAT      O62596   4.474   0.338   1.232
20785WAT     H162597   4.443   0.416   1.178
20785WAT     H262598   4.544   0.287   1.181
20786WAT      O62599   2.419   9.831   1.615
20786WAT     H162600   2.329   9.790   1.601
20786WAT     H262601   2.425   9.867   1.708
20787WAT      O62602   3.649   8.222   8.540
20787WAT     H162603   3.746   8.248   8.547
20787WAT     H262604   3.594   8.304   8.525
20788WAT      O62605   8.895   6.764   8.540
20788WAT     H162606   8.891   6.693   8.468
20788WAT     H262607   8.917   6.721   8.627
20789WAT      O62608   7.658   1.592   3.818
20789WAT     H162609   7.666   1.629   3.911
20789WAT     H262610   7.749   1.573   3.781
20790WAT      O62611   3.573   6.986   2.319
20790WAT     H162612   3.486   6.949   2.286
20790WAT     H262613   3.646   6.963   2.255
20791WAT      O62614   3.370   9.054   1.677
20791WAT     H162615   3.381   8.969   1.625
20791WAT     H262616   3.279   9.091   1.661
20792WAT      O62617   7.214   8.552   5.522
20792WAT     H162618   7.176   8.591   5.438
20792WAT     H262619   7.142   8.504   5.572
20793WAT      O62620   1.881   6.375   8.419
20793WAT     H162621   1.900   6.460   8.468
20793WAT     H262622   1.808   6.392   8.352
20794WAT      O62623   2.504   7.488   4.660
20794WAT     H162624   2.424   7.429   4.656
20794WAT     H262625   2.587   7.433   4.645
20795WAT      O62626   0.501   6.092   8.697
20795WAT     H162627   0.416   6.040   8.704
20795WAT     H262628   0.531   6.096   8.602
20796WAT      O62629   6.705   3.387   1.868
20796WAT     H162630   6.687   3.460   1.801
20796WAT     H262631   6.674   3.417   1.958
20797WAT      O62632   8.469   3.966   6.874
20797WAT     H162633   8.555   3.998   6.836
20797WAT     H262634   8.428   3.899   6.812
20798WAT      O62635   4.351   7.171   2.160
20798WAT     H162636   4.406   7.247   2.125
20798WAT     H262637   4.339   7.103   2.088
20799WAT      O62638   6.451   8.824   6.144
20799WAT     H162639   6.549   8.825   6.126
20799WAT     H262640   6.428   8.900   6.206
20800WAT      O62641   9.416   3.478   3.448
20800WAT     H162642   9.430   3.493   3.350
20800WAT     H262643   9.320   3.492   3.471
20801WAT      O62644   6.240   6.361   1.637
20801WAT     H162645   6.168   6.363   1.707
20801WAT     H262646   6.310   6.294   1.663
20802WAT      O62647   1.199   1.254   7.749
20802WAT     H162648   1.108   1.219   7.725
20802WAT     H262649   1.214   1.341   7.704
20803WAT      O62650   6.897   7.339   1.857
20803WAT     H162651   6.811   7.308   1.816
20803WAT     H262652   6.973   7.288   1.816
20804WAT      O62653   4.937   6.634   5.212
20804WAT     H162654   4.999   6.646   5.289
20804WAT     H262655   4.989   6.639   5.126
20805WAT      O62656   9.161   2.128   3.763
20805WAT     H162657   9.226   2.193   3.723
20805WAT     H262658   9.075   2.174   3.781
20806WAT      O62659   1.341   9.556   3.499
20806WAT     H162660   1.433   9.518   3.505
20806WAT     H262661   1.277   9.486   3.467
20807WAT      O62662   5.343   4.648   5.378
20807WAT     H162663   5.301   4.599   5.455
20807WAT     H262664   5.273   4.702   5.331
20808WAT      O62665   7.815   3.451   4.403
20808WAT     H162666   7.744   3.522   4.397
20808WAT     H262667   7.788   3.382   4.470
20809WAT      O62668   5.011   8.886   8.652
20809WAT     H162669   4.991   8.879   8.555
20809WAT     H262670   5.033   8.981   8.676
20810WAT      O62671   7.452   6.728   3.942
20810WAT     H162672   7.469   6.824   3.968
20810WAT     H262673   7.540   6.683   3.925
20811WAT      O62674   8.227   1.598   0.654
20811WAT     H162675   8.282   1.590   0.737
20811WAT     H262676   8.188   1.690   0.649
20812WAT      O62677   8.992   3.417   1.133
20812WAT     H162678   8.908   3.420   1.187
20812WAT     H262679   9.047   3.339   1.162
20813WAT      O62680   6.445   2.793   2.172
20813WAT     H162681   6.506   2.749   2.106
20813WAT     H262682   6.433   2.889   2.149
20814WAT      O62683   1.351   9.393   8.115
20814WAT     H162684   1.287   9.463   8.086
20814WAT     H262685   1.364   9.326   8.042
20815WAT      O62686   9.110   7.325   9.705
20815WAT     H162687   9.083   7.302   9.612
20815WAT     H262688   9.095   7.246   9.765
20816WAT      O62689   1.534   6.256   8.993
20816WAT     H162690   1.471   6.301   8.930
20816WAT     H262691   1.618   6.232   8.946
20817WAT      O62692   7.331   2.652   5.046
20817WAT     H162693   7.254   2.716   5.037
20817WAT     H262694   7.299   2.568   5.090
20818WAT      O62695   0.963   3.589   3.572
20818WAT     H162696   0.999   3.634   3.654
20818WAT     H262697   0.898   3.518   3.599
20819WAT      O62698   5.184   7.513   9.606
20819WAT     H162699   5.240   7.433   9.587
20819WAT     H262700   5.196   7.540   9.702
20820WAT      O62701   5.838   7.409   3.935
20820WAT     H162702   5.781   7.458   4.002
20820WAT     H262703   5.780   7.347   3.882
20821WAT      O62704   8.325   5.969   2.815
20821WAT     H162705   8.313   5.897   2.747
20821WAT     H262706   8.253   6.037   2.805
20822WAT      O62707   9.280   2.699   4.559
20822WAT     H162708   9.303   2.742   4.472
20822WAT     H262709   9.321   2.750   4.634
20823WAT      O62710   4.756   7.842   3.512
20823WAT     H162711   4.771   7.887   3.424
20823WAT     H262712   4.757   7.910   3.585
20824WAT      O62713   4.539   4.577   9.133
20824WAT     H162714   4.441   4.591   9.123
20824WAT     H262715   4.565   4.595   9.228
20825WAT      O62716   3.704   4.251   9.408
20825WAT     H162717   3.651   4.223   9.488
20825WAT     H262718   3.649   4.241   9.325
20826WAT      O62719   6.652   9.479   0.412
20826WAT     H162720   6.726   9.413   0.428
20826WAT     H262721   6.593   9.447   0.339
20827WAT      O62722   9.565   6.887   5.559
20827WAT     H162723   9.593   6.889   5.463
20827WAT     H262724   9.587   6.797   5.597
20828WAT      O62725   1.982   0.097   1.276
20828WAT     H162726   1.959   0.041   1.196
20828WAT     H262727   1.913   0.083   1.347
20829WAT      O62728   4.916   5.351   0.345
20829WAT     H162729   4.823   5.387   0.344
20829WAT     H262730   4.978   5.416   0.301
20830WAT      O62731   9.797   9.739   7.787
20830WAT     H162732   9.800   9.737   7.687
20830WAT     H262733   9.890   9.732   7.823
20831WAT      O62734   3.323   4.972   6.980
20831WAT     H162735   3.347   4.991   7.075
20831WAT     H262736   3.282   4.881   6.974
20832WAT      O62737   3.019   6.129   5.967
20832WAT     H162738   2.931   6.125   6.014
20832WAT     H262739   3.050   6.037   5.945
20833WAT      O62740   7.969   4.357   7.079
20833WAT     H162741   7.992   4.293   7.153
20833WAT     H262742   8.050   4.371   7.021
20834WAT      O62743   3.855   8.247   3.505
20834WAT     H162744   3.781   8.198   3.458
20834WAT     H262745   3.884   8.194   3.585
20835WAT      O62746   3.482   6.023   2.993
20835WAT     H162747   3.468   6.092   3.065
20835WAT     H262748   3.398   6.015   2.939
20836WAT      O62749   4.845   2.092   6.514
20836WAT     H162750   4.774   2.052   6.573
20836WAT     H262751   4.818   2.082   6.418
20837WAT      O62752   9.160   5.922   9.609
20837WAT     H162753   9.124   5.999   9.661
20837WAT     H262754   9.125   5.836   9.647
20838WAT      O62755   7.753   2.671   9.009
20838WAT     H162756   7.834   2.707   9.056
20838WAT     H262757   7.708   2.604   9.068
20839WAT      O62758   1.692   4.347   3.731
20839WAT     H162759   1.684   4.307   3.822
20839WAT     H262760   1.604   4.343   3.685
20840WAT      O62761   1.133   5.333   6.095
20840WAT     H162762   1.160   5.401   6.026
20840WAT     H262763   1.167   5.361   6.184
20841WAT      O62764   0.244   6.284   1.506
20841WAT     H162765   0.300   6.358   1.470
20841WAT     H262766   0.301   6.203   1.522
20842WAT      O62767   7.400   7.994   1.670
20842WAT     H162768   7.328   7.938   1.712
20842WAT     H262769   7.428   8.065   1.734
20843WAT      O62770   9.504   3.242   2.796
20843WAT     H162771   9.529   3.253   2.892
20843WAT     H262772   9.443   3.163   2.787
20844WAT      O62773   9.316   6.251   0.412
20844WAT     H162774   9.355   6.276   0.324
20844WAT     H262775   9.389   6.223   0.474
20845WAT      O62776   2.706   4.024   9.064
20845WAT     H162777   2.757   4.059   9.143
20845WAT     H262778   2.758   4.044   8.980
20846WAT      O62779   0.542   7.368   9.184
20846WAT     H162780   0.541   7.269   9.170
20846WAT     H262781   0.510   7.390   9.276
20847WAT      O62782   5.475   5.373   4.827
20847WAT     H162783   5.395   5.372   4.887
20847WAT     H262784   5.458   5.316   4.747
20848WAT      O62785   9.630   3.587   2.243
20848WAT     H162786   9.607   3.534   2.162
20848WAT     H262787   9.674   3.673   2.217
20849WAT      O62788   1.517   8.023   7.828
20849WAT     H162789   1.429   8.015   7.877
20849WAT     H262790   1.585   7.965   7.872
20850WAT      O62791   5.792   0.644   3.637
20850WAT     H162792   5.824   0.643   3.732
20850WAT     H262793   5.834   0.719   3.588
20851WAT      O62794   0.062   9.064   6.713
20851WAT     H162795  -0.006   9.004   6.755
20851WAT     H262796   0.099   9.020   6.631
20852WAT      O62797   8.032   9.743   1.460
20852WAT     H162798   8.024   9.646   1.438
20852WAT     H262799   8.117   9.758   1.512
20853WAT      O62800   5.531   5.091   1.682
20853WAT     H162801   5.489   5.014   1.633
20853WAT     H262802   5.616   5.116   1.637
20854WAT      O62803   2.073   6.675   0.256
20854WAT     H162804   2.044   6.730   0.334
20854WAT     H262805   2.159   6.629   0.279
20855WAT      O62806   1.584   2.669   8.897
20855WAT     H162807   1.552   2.622   8.815
20855WAT     H262808   1.646   2.743   8.871
20856WAT      O62809   2.763   5.145   9.286
20856WAT     H162810   2.842   5.195   9.251
20856WAT     H262811   2.776   5.047   9.273
20857WAT      O62812   9.792   7.750   2.514
20857WAT     H162813   9.782   7.668   2.569
20857WAT     H262814   9.711   7.761   2.456
20858WAT      O62815   6.833   6.259   1.732
20858WAT     H162816   6.780   6.240   1.650
20858WAT     H262817   6.809   6.349   1.768
20859WAT      O62818   5.943   1.649   4.934
20859WAT     H162819   5.855   1.688   4.907
20859WAT     H262820   5.969   1.577   4.869
20860WAT      O62821   4.000   7.514   4.275
20860WAT     H162822   4.066   7.439   4.276
20860WAT     H262823   4.048   7.601   4.267
20861WAT      O62824   1.806   7.587   4.102
20861WAT     H162825   1.901   7.619   4.100
20861WAT     H262826   1.797   7.506   4.045
20862WAT      O62827   8.630   6.777   0.851
20862WAT     H162828   8.650   6.739   0.941
20862WAT     H262829   8.680   6.863   0.839
20863WAT      O62830   3.804   8.015   4.024
20863WAT     H162831   3.763   7.928   4.054
20863WAT     H262832   3.731   8.080   4.003
20864WAT      O62833   2.202   5.992   0.377
20864WAT     H162834   2.127   6.038   0.424
20864WAT     H262835   2.251   5.934   0.441
20865WAT      O62836   2.013   4.455   6.290
20865WAT     H162837   1.987   4.478   6.196
20865WAT     H262838   1.967   4.370   6.317
20866WAT      O62839   8.961   5.234   0.543
20866WAT     H162840   8.874   5.185   0.549
20866WAT     H262841   9.036   5.168   0.534
20867WAT      O62842   0.096   4.385   8.211
20867WAT     H162843   0.083   4.482   8.230
20867WAT     H262844   0.060   4.331   8.287
20868WAT      O62845   4.696   2.500   3.586
20868WAT     H162846   4.780   2.554   3.588
20868WAT     H262847   4.674   2.474   3.492
20869WAT      O62848   8.084   5.868   5.454
20869WAT     H162849   8.095   5.963   5.482
20869WAT     H262850   8.001   5.859   5.398
20870WAT      O62851   2.200   8.090   7.714
20870WAT     H162852   2.237   8.010   7.762
20870WAT     H262853   2.100   8.084   7.712
20871WAT      O62854   9.784   8.220   8.012
20871WAT     H162855   9.818   8.312   7.989
20871WAT     H262856   9.692   8.228   8.050
20872WAT      O62857   8.541   5.312   1.940
20872WAT     H162858   8.576   5.221   1.918
20872WAT     H262859   8.527   5.363   1.855
20873WAT      O62860   2.473   4.207   0.399
20873WAT     H162861   2.414   4.276   0.441
20873WAT     H262862   2.416   4.132   0.363
20874WAT      O62863   3.020   3.855   3.225
20874WAT     H162864   3.061   3.939   3.192
20874WAT     H262865   2.992   3.798   3.148
20875WAT      O62866   1.931   9.715   4.848
20875WAT     H162867   1.955   9.674   4.760
20875WAT     H262868   2.010   9.762   4.886
20876WAT      O62869   4.332   4.099   3.228
20876WAT     H162870   4.300   4.100   3.323
20876WAT     H262871   4.376   4.187   3.206
20877WAT      O62872   3.813   4.843   2.797
20877WAT     H162873   3.867   4.760   2.781
20877WAT     H262874   3.842   4.914   2.732
20878WAT      O62875   0.519   7.503   0.026
20878WAT     H162876   0.514   7.524   0.123
20878WAT     H262877   0.558   7.412   0.012
20879WAT      O62878   4.411   6.364   5.946
20879WAT     H162879   4.411   6.282   5.889
20879WAT     H262880   4.485   6.357   6.014
20880WAT      O62881   6.994   9.091   9.648
20880WAT     H162882   6.917   9.149   9.624
20880WAT     H262883   6.964   8.995   9.651
20881WAT      O62884   7.884   0.048   1.620
20881WAT     H162885   7.928  -0.003   1.546
20881WAT     H262886   7.883   0.146   1.597
20882WAT      O62887   4.425   0.916   5.922
20882WAT     H162888   4.518   0.929   5.888
20882WAT     H262889   4.419   0.827   5.967
20883WAT      O62890   2.474   4.381   4.867
20883WAT     H162891   2.498   4.416   4.776
20883WAT     H262892   2.554   4.389   4.927
20884WAT      O62893   8.003   1.734   5.691
20884WAT     H162894   8.080   1.789   5.723
20884WAT     H262895   7.939   1.792   5.640
20885WAT      O62896   1.751   1.826   8.394
20885WAT     H162897   1.694   1.745   8.411
20885WAT     H262898   1.726   1.899   8.457
20886WAT      O62899   6.971   3.310   9.432
20886WAT     H162900   6.948   3.233   9.372
20886WAT     H262901   6.916   3.305   9.516
20887WAT      O62902   1.835   2.015   2.133
20887WAT     H162903   1.927   2.012   2.172
20887WAT     H262904   1.841   2.033   2.035
20888WAT      O62905   2.043   4.381   7.120
20888WAT     H162906   2.141   4.403   7.124
20888WAT     H262907   2.018   4.322   7.196
20889WAT      O62908   7.920   4.769   5.176
20889WAT     H162909   7.976   4.691   5.203
20889WAT     H262910   7.826   4.755   5.207
20890WAT      O62911   0.801   8.761   3.008
20890WAT     H162912   0.768   8.842   3.058
20890WAT     H262913   0.814   8.785   2.911
20891WAT      O62914   2.207   1.698   6.032
20891WAT     H162915   2.215   1.738   6.123
20891WAT     H262916   2.266   1.748   5.969
20892WAT      O62917   2.749   2.710   8.326
20892WAT     H162918   2.801   2.691   8.243
20892WAT     H262919   2.812   2.739   8.398
20893WAT      O62920   6.727   1.149   6.097
20893WAT     H162921   6.730   1.059   6.140
20893WAT     H262922   6.708   1.139   6.000
20894WAT      O62923   8.941   8.069   5.510
20894WAT     H162924   8.925   8.051   5.607
20894WAT     H262925   9.017   8.133   5.501
20895WAT      O62926   1.282   6.995   8.147
20895WAT     H162927   1.248   6.920   8.205
20895WAT     H262928   1.382   6.999   8.152
20896WAT      O62929   6.602   2.058   1.170
20896WAT     H162930   6.663   2.134   1.191
20896WAT     H262931   6.530   2.089   1.109
20897WAT      O62932   8.177   9.126   7.954
20897WAT     H162933   8.218   9.035   7.960
20897WAT     H262934   8.181   9.170   8.044
20898WAT      O62935   2.784   7.159   0.831
20898WAT     H162936   2.703   7.110   0.802
20898WAT     H262937   2.812   7.127   0.922
20899WAT      O62938   7.427   0.665   6.328
20899WAT     H162939   7.355   0.696   6.268
20899WAT     H262940   7.477   0.589   6.285
20900WAT      O62941   8.120   7.838   1.761
20900WAT     H162942   8.094   7.827   1.665
20900WAT     H262943   8.187   7.768   1.786
20901WAT      O62944   3.168   7.446   8.743
20901WAT     H162945   3.181   7.425   8.840
20901WAT     H262946   3.122   7.370   8.698
20902WAT      O62947   4.720   8.274   5.221
20902WAT     H162948   4.628   8.306   5.243
20902WAT     H262949   4.728   8.176   5.241
20903WAT      O62950   5.411   5.592   6.724
20903WAT     H162951   5.334   5.530   6.741
20903WAT     H262952   5.414   5.615   6.627
20904WAT      O62953   0.231   8.048   9.595
20904WAT     H162954   0.233   8.104   9.677
20904WAT     H262955   0.304   7.979   9.599
20905WAT      O62956   4.092   1.044   4.245
20905WAT     H162957   4.108   1.135   4.284
20905WAT     H262958   4.126   0.974   4.307
20906WAT      O62959   0.184   3.767   3.948
20906WAT     H162960   0.227   3.724   3.868
20906WAT     H262961   0.243   3.841   3.980
20907WAT      O62962   3.888   4.714   4.397
20907WAT     H162963   3.812   4.779   4.411
20907WAT     H262964   3.970   4.750   4.440
20908WAT      O62965   3.670   3.255   9.002
20908WAT     H162966   3.735   3.311   8.950
20908WAT     H262967   3.676   3.279   9.099
20909WAT      O62968   3.475   9.730   0.574
20909WAT     H162969   3.410   9.670   0.621
20909WAT     H262970   3.438   9.823   0.569
20910WAT      O62971   9.823   9.054   4.174
20910WAT     H162972   9.829   9.118   4.250
20910WAT     H262973   9.828   8.960   4.209
20911WAT      O62974   5.261   0.977   2.573
20911WAT     H162975   5.211   0.908   2.521
20911WAT     H262976   5.248   0.962   2.671
20912WAT      O62977   6.523   2.903   0.462
20912WAT     H162978   6.575   2.854   0.532
20912WAT     H262979   6.548   2.999   0.464
20913WAT      O62980   3.314   2.949   8.115
20913WAT     H162981   3.306   2.987   8.207
20913WAT     H262982   3.225   2.953   8.069
20914WAT      O62983   7.438   6.971   3.616
20914WAT     H162984   7.401   6.879   3.601
20914WAT     H262985   7.363   7.037   3.619
20915WAT      O62986   1.131   4.981   4.625
20915WAT     H162987   1.219   4.986   4.672
20915WAT     H262988   1.085   4.896   4.650
20916WAT      O62989   7.725   8.863   0.323
20916WAT     H162990   7.663   8.942   0.330
20916WAT     H262991   7.796   8.883   0.255
20917WAT      O62992   4.911   9.127   3.110
20917WAT     H162993   4.943   9.221   3.119
20917WAT     H262994   4.862   9.101   3.193
20918WAT      O62995   8.861   6.736   7.962
20918WAT     H162996   8.803   6.773   7.889
20918WAT     H262997   8.928   6.673   7.923
20919WAT      O62998   5.557   6.827   4.596
20919WAT     H162999   5.645   6.834   4.549
20919WAT     H263000   5.558   6.886   4.677
20920WAT      O63001   6.117   6.412   7.405
20920WAT     H163002   6.020   6.404   7.428
20920WAT     H263003   6.145   6.334   7.349
20921WAT      O63004   2.099   9.636   6.561
20921WAT     H163005   2.047   9.592   6.634
20921WAT     H263006   2.172   9.574   6.530
20922WAT      O63007   9.201   9.656   0.021
20922WAT     H163008   9.241   9.565   0.033
20922WAT     H263009   9.266   9.725   0.051
20923WAT      O63010   9.245   1.504   0.685
20923WAT     H163011   9.324   1.550   0.725
20923WAT     H263012   9.243   1.409   0.717
20924WAT      O63013   1.166   7.984   2.675
20924WAT     H163014   1.076   7.947   2.650
20924WAT     H263015   1.234   7.911   2.674
20925WAT      O63016   5.585   8.447   0.733
20925WAT     H163017   5.545   8.355   0.727
20925WAT     H263018   5.678   8.446   0.696
20926WAT      O63019   2.007   9.601   8.553
20926WAT     H163020   2.067   9.535   8.509
20926WAT     H263021   2.012   9.590   8.652
20927WAT      O63022   4.697   7.684   6.502
20927WAT     H163023   4.650   7.711   6.586
20927WAT     H263024   4.685   7.755   6.433
20928WAT      O63025   3.254   5.335   7.204
20928WAT     H163026   3.277   5.431   7.190
20928WAT     H263027   3.186   5.306   7.137
20929WAT      O63028   9.780   1.916   9.263
20929WAT     H163029   9.851   1.937   9.330
20929WAT     H263030   9.719   1.995   9.252
20930WAT      O63031   3.507   0.823   5.625
20930WAT     H163032   3.605   0.820   5.649
20930WAT     H263033   3.496   0.800   5.529
20931WAT      O63034   9.461   6.420   8.724
20931WAT     H163035   9.446   6.406   8.626
20931WAT     H263036   9.476   6.518   8.741
20932WAT      O63037   7.789   7.284   9.342
20932WAT     H163038   7.722   7.234   9.397
20932WAT     H263039   7.742   7.341   9.275
20933WAT      O63040   7.883   2.473   3.186
20933WAT     H163041   7.833   2.456   3.101
20933WAT     H263042   7.870   2.568   3.214
20934WAT      O63043   7.299   3.444   1.720
20934WAT     H163044   7.394   3.474   1.708
20934WAT     H263045   7.282   3.427   1.818
20935WAT      O63046   6.526   9.330   4.665
20935WAT     H163047   6.487   9.421   4.661
20935WAT     H263048   6.597   9.327   4.736
20936WAT      O63049   1.594   0.921   2.928
20936WAT     H163050   1.597   0.942   2.831
20936WAT     H263051   1.683   0.941   2.969
20937WAT      O63052   8.800   3.812   9.308
20937WAT     H163053   8.828   3.727   9.351
20937WAT     H263054   8.828   3.811   9.212
20938WAT      O63055   6.278   7.102   2.243
20938WAT     H163056   6.294   7.058   2.332
20938WAT     H263057   6.233   7.190   2.258
20939WAT      O63058   3.535   1.180   5.150
20939WAT     H163059   3.442   1.217   5.155
20939WAT     H263060   3.567   1.156   5.241
20940WAT      O63061   4.173   9.656   5.756
20940WAT     H163062   4.234   9.729   5.788
20940WAT     H263063   4.228   9.578   5.726
20941WAT      O63064   9.236   8.063   1.613
20941WAT     H163065   9.253   7.980   1.560
20941WAT     H263066   9.226   8.140   1.551
20942WAT      O63067   2.083   5.412   5.095
20942WAT     H163068   2.136   5.342   5.143
20942WAT     H263069   2.133   5.439   5.012
20943WAT      O63070   7.949   6.444   1.290
20943WAT     H163071   8.026   6.447   1.353
20943WAT     H263072   7.872   6.398   1.335
20944WAT      O63073   5.872   2.177   1.253
20944WAT     H163074   5.843   2.127   1.334
20944WAT     H263075   5.885   2.274   1.275
20945WAT      O63076   2.180   8.205   4.185
20945WAT     H163077   2.124   8.184   4.105
20945WAT     H263078   2.242   8.281   4.162
20946WAT      O63079   3.896   3.976   7.850
20946WAT     H163080   3.888   3.917   7.770
20946WAT     H263081   3.919   3.920   7.930
20947WAT      O63082   9.011   8.570   3.336
20947WAT     H163083   8.984   8.525   3.251
20947WAT     H263084   9.070   8.648   3.315
20948WAT      O63085   4.697   4.068   1.012
20948WAT     H163086   4.607   4.038   1.044
20948WAT     H263087   4.703   4.168   1.016
20949WAT      O63088   8.442   0.553   9.453
20949WAT     H163089   8.353   0.543   9.498
20949WAT     H263090   8.461   0.472   9.399
20950WAT      O63091   6.012   9.770   1.879
20950WAT     H163092   6.019   9.679   1.919
20950WAT     H263093   6.065   9.774   1.794
20951WAT      O63094   1.265   0.863   2.122
20951WAT     H163095   1.310   0.908   2.199
20951WAT     H263096   1.275   0.764   2.132
20952WAT      O63097   7.019   7.108   7.203
20952WAT     H163098   6.978   7.195   7.230
20952WAT     H263099   7.039   7.109   7.105
20953WAT      O63100   7.108   6.334   1.526
20953WAT     H163101   7.033   6.390   1.491
20953WAT     H263102   7.193   6.386   1.520
20954WAT      O63103   6.878   0.587   0.420
20954WAT     H163104   6.792   0.567   0.375
20954WAT     H263105   6.864   0.654   0.492
20955WAT      O63106   3.084   9.053   8.895
20955WAT     H163107   3.184   9.060   8.900
20955WAT     H263108   3.049   9.122   8.831
20956WAT      O63109   5.465   6.251   6.221
20956WAT     H163110   5.464   6.242   6.321
20956WAT     H263111   5.386   6.203   6.182
20957WAT      O63112   6.552   2.768   2.748
20957WAT     H163113   6.561   2.755   2.650
20957WAT     H263114   6.569   2.682   2.795
20958WAT      O63115   3.439   6.722   0.467
20958WAT     H163116   3.482   6.652   0.410
20958WAT     H263117   3.386   6.784   0.410
20959WAT      O63118   7.446   8.591   2.702
20959WAT     H163119   7.458   8.588   2.801
20959WAT     H263120   7.517   8.648   2.661
20960WAT      O63121   6.348   8.438   0.519
20960WAT     H163122   6.397   8.356   0.547
20960WAT     H263123   6.249   8.420   0.517
20961WAT      O63124   3.877   9.568   1.919
20961WAT     H163125   3.816   9.489   1.925
20961WAT     H263126   3.954   9.546   1.859
20962WAT      O63127   0.318   3.907   3.317
20962WAT     H163128   0.370   3.980   3.360
20962WAT     H263129   0.348   3.818   3.353
20963WAT      O63130   1.849   1.807   9.134
20963WAT     H163131   1.852   1.723   9.079
20963WAT     H263132   1.853   1.886   9.073
20964WAT      O63133   7.960   7.233   8.544
20964WAT     H163134   7.893   7.260   8.613
20964WAT     H263135   7.921   7.243   8.453
20965WAT      O63136   2.789   8.151   5.078
20965WAT     H163137   2.741   8.113   5.000
20965WAT     H263138   2.888   8.149   5.060
20966WAT      O63139   7.968   0.506   7.335
20966WAT     H163140   7.988   0.489   7.432
20966WAT     H263141   7.886   0.456   7.309
20967WAT      O63142   0.737   6.600   4.893
20967WAT     H163143   0.643   6.618   4.923
20967WAT     H263144   0.747   6.623   4.797
20968WAT      O63145   3.345   2.211   7.002
20968WAT     H163146   3.353   2.175   7.095
20968WAT     H263147   3.436   2.236   6.969
20969WAT      O63148   0.987   1.852   0.390
20969WAT     H163149   1.000   1.939   0.437
20969WAT     H263150   1.072   1.824   0.345
20970WAT      O63151   6.795   1.263   2.351
20970WAT     H163152   6.727   1.230   2.416
20970WAT     H263153   6.885   1.267   2.395
20971WAT      O63154   2.936   4.312   5.617
20971WAT     H163155   2.915   4.395   5.670
20971WAT     H263156   2.856   4.253   5.614
20972WAT      O63157   8.327   3.852   7.516
20972WAT     H163158   8.247   3.899   7.479
20972WAT     H263159   8.333   3.760   7.475
20973WAT      O63160   1.165   5.734   6.943
20973WAT     H163161   1.183   5.741   6.845
20973WAT     H263162   1.245   5.698   6.990
20974WAT      O63163   0.363   6.271   3.865
20974WAT     H163164   0.302   6.321   3.926
20974WAT     H263165   0.311   6.200   3.816
20975WAT      O63166   8.438   2.151   2.801
20975WAT     H163167   8.368   2.092   2.760
20975WAT     H263168   8.529   2.120   2.774
20976WAT      O63169   3.260   8.943   1.995
20976WAT     H163170   3.285   9.039   1.987
20976WAT     H263171   3.236   8.907   1.905
20977WAT      O63172   7.290   1.508   8.696
20977WAT     H163173   7.385   1.536   8.702
20977WAT     H263174   7.279   1.416   8.733
20978WAT      O63175   5.044   5.670   3.933
20978WAT     H163176   5.069   5.682   3.837
20978WAT     H263177   5.119   5.623   3.981
20979WAT      O63178   2.406   8.341   6.993
20979WAT     H163179   2.445   8.377   7.078
20979WAT     H263180   2.307   8.350   6.996
20980WAT      O63181   9.627   0.407   0.105
20980WAT     H163182   9.551   0.370   0.159
20980WAT     H263183   9.711   0.406   0.159
20981WAT      O63184   5.319   0.407   7.720
20981WAT     H163185   5.256   0.407   7.642
20981WAT     H263186   5.395   0.345   7.702
20982WAT      O63187   6.070   4.783   0.475
20982WAT     H163188   6.157   4.830   0.457
20982WAT     H263189   6.077   4.687   0.446
20983WAT      O63190   0.691   3.724   1.251
20983WAT     H163191   0.653   3.646   1.202
20983WAT     H263192   0.690   3.805   1.192
20984WAT      O63193   0.875   8.414   1.837
20984WAT     H163194   0.919   8.370   1.759
20984WAT     H263195   0.945   8.440   1.904
20985WAT      O63196   6.580   9.771   2.352
20985WAT     H163197   6.569   9.677   2.321
20985WAT     H263198   6.628   9.824   2.282
20986WAT      O63199   1.316   5.652   8.716
20986WAT     H163200   1.287   5.710   8.640
20986WAT     H263201   1.396   5.693   8.760
20987WAT      O63202   3.937   6.944   0.703
20987WAT     H163203   3.975   6.962   0.794
20987WAT     H263204   3.855   6.888   0.713
20988WAT      O63205   1.953   4.321   3.347
20988WAT     H163206   1.941   4.336   3.445
20988WAT     H263207   2.047   4.341   3.321
20989WAT      O63208   0.931   9.087   7.619
20989WAT     H163209   0.982   9.008   7.652
20989WAT     H263210   0.993   9.150   7.573
20990WAT      O63211   9.576   1.992   6.330
20990WAT     H163212   9.495   1.937   6.350
20990WAT     H263213   9.631   1.946   6.261
20991WAT      O63214   7.368   5.540   3.610
20991WAT     H163215   7.282   5.500   3.578
20991WAT     H263216   7.358   5.566   3.707
20992WAT      O63217   5.034   4.638   8.485
20992WAT     H163218   5.083   4.690   8.555
20992WAT     H263219   5.028   4.542   8.513
20993WAT      O63220   9.464   1.780   4.634
20993WAT     H163221   9.481   1.872   4.669
20993WAT     H263222   9.502   1.771   4.543
20994WAT      O63223   4.504   3.793   0.450
20994WAT     H163224   4.468   3.885   0.435
20994WAT     H263225   4.432   3.734   0.487
20995WAT      O63226   1.338   9.118   0.333
20995WAT     H163227   1.427   9.140   0.371
20995WAT     H263228   1.270   9.110   0.406
20996WAT      O63229   0.491   6.416   0.208
20996WAT     H163230   0.414   6.422   0.270
20996WAT     H263231   0.566   6.366   0.252
20997WAT      O63232   0.623   3.932   5.125
20997WAT     H163233   0.569   3.851   5.151
20997WAT     H263234   0.617   3.946   5.026
20998WAT      O63235   1.057   5.465   4.474
20998WAT     H163236   0.974   5.520   4.486
20998WAT     H263237   1.122   5.487   4.547
20999WAT      O63238   6.551   5.205   3.105
20999WAT     H163239   6.498   5.227   3.186
20999WAT     H263240   6.591   5.114   3.115
21000WAT      O63241   3.421   7.621   8.355
21000WAT     H163242   3.349   7.591   8.293
21000WAT     H263243   3.463   7.705   8.320
21001WAT      O63244   3.326   1.978   1.635
21001WAT     H163245   3.310   1.993   1.537
21001WAT     H263246   3.243   1.998   1.686
21002WAT      O63247   1.765   1.048   7.269
21002WAT     H163248   1.860   1.027   7.245
21002WAT     H263249   1.759   1.075   7.365
21003WAT      O63250   1.866   7.534   5.286
21003WAT     H163251   1.873   7.493   5.377
21003WAT     H263252   1.775   7.518   5.249
21004WAT      O63253   4.169   2.673   1.678
21004WAT     H163254   4.235   2.623   1.734
21004WAT     H263255   4.129   2.748   1.731
21005WAT      O63256   8.226   2.852   7.955
21005WAT     H163257   8.291   2.789   7.996
21005WAT     H263258   8.150   2.801   7.914
21006WAT      O63259   8.793   3.293   3.036
21006WAT     H163260   8.741   3.284   2.951
21006WAT     H263261   8.889   3.269   3.019
21007WAT      O63262   4.904   7.012   6.753
21007WAT     H163263   4.953   7.031   6.668
21007WAT     H263264   4.818   7.063   6.754
21008WAT      O63265   7.490   2.386   8.444
21008WAT     H163266   7.478   2.324   8.366
21008WAT     H263267   7.525   2.474   8.411
21009WAT      O63268   9.454   6.443   3.746
21009WAT     H163269   9.505   6.364   3.711
21009WAT     H263270   9.372   6.411   3.793
21010WAT      O63271   6.027   4.483   8.190
21010WAT     H163272   6.038   4.403   8.250
21010WAT     H263273   6.112   4.500   8.140
21011WAT      O63274   3.274   9.503   8.016
21011WAT     H163275   3.372   9.516   8.027
21011WAT     H263276   3.225   9.566   8.077
21012WAT      O63277   8.749   5.359   4.586
21012WAT     H163278   8.758   5.319   4.677
21012WAT     H263279   8.754   5.287   4.517
21013WAT      O63280   9.026   5.388   8.221
21013WAT     H163281   9.102   5.332   8.251
21013WAT     H263282   9.048   5.485   8.234
21014WAT      O63283   6.306   8.122   9.373
21014WAT     H163284   6.313   8.204   9.430
21014WAT     H263285   6.389   8.110   9.319
21015WAT      O63286   9.400   6.549   1.465
21015WAT     H163287   9.400   6.643   1.498
21015WAT     H263288   9.319   6.501   1.502
21016WAT      O63289   8.100   5.481   8.708
21016WAT     H163290   8.136   5.568   8.740
21016WAT     H263291   8.114   5.473   8.609
21017WAT      O63292   5.574   4.524   5.327
21017WAT     H163293   5.496   4.571   5.368
21017WAT     H263294   5.642   4.591   5.298
21018WAT      O63295   3.546   6.439   4.438
21018WAT     H163296   3.630   6.436   4.493
21018WAT     H263297   3.476   6.490   4.487
21019WAT      O63298   7.572   8.636   1.797
21019WAT     H163299   7.535   8.585   1.874
21019WAT     H263300   7.642   8.699   1.830
21020WAT      O63301   1.555   4.614   3.447
21020WAT     H163302   1.547   4.697   3.393
21020WAT     H263303   1.616   4.550   3.402
21021WAT      O63304   7.646   7.050   9.536
21021WAT     H163305   7.648   7.035   9.634
21021WAT     H263306   7.585   7.127   9.515
21022WAT      O63307   1.166   8.585   7.672
21022WAT     H163308   1.240   8.557   7.611
21022WAT     H263309   1.177   8.682   7.694
21023WAT      O63310   6.662   7.234   6.587
21023WAT     H163311   6.731   7.214   6.656
21023WAT     H263312   6.656   7.158   6.522
21024WAT      O63313   3.937   9.509   1.389
21024WAT     H163314   3.947   9.440   1.460
21024WAT     H263315   3.989   9.590   1.414
21025WAT      O63316   9.832   8.316   8.916
21025WAT     H163317   9.747   8.298   8.867
21025WAT     H263318   9.833   8.263   9.001
21026WAT      O63319   9.386   0.202   5.875
21026WAT     H163320   9.308   0.160   5.921
21026WAT     H263321   9.454   0.131   5.854
21027WAT      O63322   6.393   3.649   7.318
21027WAT     H163323   6.334   3.681   7.393
21027WAT     H263324   6.477   3.702   7.317
21028WAT      O63325   2.877   7.847   7.181
21028WAT     H163326   2.872   7.748   7.188
21028WAT     H263327   2.971   7.875   7.161
21029WAT      O63328   6.008   5.150   2.234
21029WAT     H163329   6.025   5.248   2.218
21029WAT     H263330   6.006   5.132   2.332
21030WAT      O63331   5.724   9.346   3.938
21030WAT     H163332   5.765   9.279   4.000
21030WAT     H263333   5.763   9.334   3.847
21031WAT      O63334   7.498   2.569   3.019
21031WAT     H163335   7.580   2.559   2.963
21031WAT     H263336   7.516   2.534   3.111
21032WAT      O63337   1.267   5.418   0.183
21032WAT     H163338   1.286   5.491   0.118
21032WAT     H263339   1.234   5.458   0.269
21033WAT      O63340   2.306   0.745   0.295
21033WAT     H163341   2.291   0.706   0.386
21033WAT     H263342   2.404   0.753   0.278
21034WAT      O63343   3.353   0.636   2.725
21034WAT     H163344   3.428   0.592   2.675
21034WAT     H263345   3.385   0.723   2.763
21035WAT      O63346   6.426   6.967   0.942
21035WAT     H163347   6.514   6.973   0.894
21035WAT     H263348   6.433   7.012   1.031
21036WAT      O63349   3.160   4.267   0.361
21036WAT     H163350   3.222   4.342   0.341
21036WAT     H263351   3.188   4.185   0.311
21037WAT      O63352   7.867   2.469   1.977
21037WAT     H163353   7.803   2.419   2.034
21037WAT     H263354   7.946   2.411   1.956
21038WAT      O63355   2.565   1.976   1.477
21038WAT     H163356   2.477   1.956   1.521
21038WAT     H263357   2.628   2.012   1.545
21039WAT      O63358   7.448   8.980   2.445
21039WAT     H163359   7.535   8.999   2.491
21039WAT     H263360   7.463   8.913   2.372
21040WAT      O63361   6.013   2.584   1.973
21040WAT     H163362   6.091   2.557   1.918
21040WAT     H263363   6.045   2.618   2.062
21041WAT      O63364   4.351   7.519   4.060
21041WAT     H163365   4.437   7.550   4.101
21041WAT     H263366   4.360   7.517   3.961
21042WAT      O63367   6.015   0.078   0.938
21042WAT     H163368   5.990   0.092   0.843
21042WAT     H263369   6.030   0.166   0.983
21043WAT      O63370   4.158   9.103   8.245
21043WAT     H163371   4.136   9.197   8.272
21043WAT     H263372   4.170   9.047   8.328
21044WAT      O63373   5.611   3.271   4.999
21044WAT     H163374   5.513   3.288   4.985
21044WAT     H263375   5.664   3.344   4.956
21045WAT      O63376   3.086   3.716   8.873
21045WAT     H163377   3.107   3.647   8.942
21045WAT     H263378   3.128   3.689   8.786
21046WAT      O63379   9.465   5.561   3.362
21046WAT     H163380   9.500   5.654   3.377
21046WAT     H263381   9.539   5.496   3.375
21047WAT      O63382   4.120   9.025   4.515
21047WAT     H163383   4.203   8.989   4.473
21047WAT     H263384   4.144   9.100   4.576
21048WAT      O63385   5.569   4.758   1.824
21048WAT     H163386   5.543   4.775   1.728
21048WAT     H263387   5.667   4.771   1.834
21049WAT      O63388   0.045   3.625   2.610
21049WAT     H163389   0.132   3.580   2.590
21049WAT     H263390   0.006   3.586   2.693
21050WAT      O63391   8.729   0.124   4.287
21050WAT     H163392   8.769   0.213   4.264
21050WAT     H263393   8.795   0.052   4.267
21051WAT      O63394   8.965   9.197   6.275
21051WAT     H163395   9.006   9.225   6.188
21051WAT     H263396   9.024   9.130   6.320
21052WAT      O63397   1.630   3.068   2.257
21052WAT     H163398   1.635   3.041   2.161
21052WAT     H263399   1.702   3.134   2.277
21053WAT      O63400   6.507   7.642   8.056
21053WAT     H163401   6.509   7.548   8.022
21053WAT     H263402   6.436   7.694   8.008
21054WAT      O63403   5.765   2.075   1.488
21054WAT     H163404   5.834   2.124   1.542
21054WAT     H263405   5.715   2.012   1.547
21055WAT      O63406   7.379   5.569   5.224
21055WAT     H163407   7.473   5.537   5.215
21055WAT     H263408   7.347   5.602   5.135
21056WAT      O63409   8.766   6.343   2.680
21056WAT     H163410   8.676   6.306   2.701
21056WAT     H263411   8.788   6.418   2.742
21057WAT      O63412   8.596   1.421   1.163
21057WAT     H163413   8.622   1.416   1.260
21057WAT     H263414   8.561   1.331   1.134
21058WAT      O63415   3.007   5.113   4.485
21058WAT     H163416   3.059   5.196   4.506
21058WAT     H263417   3.069   5.042   4.451
21059WAT      O63418   3.280   6.961   3.407
21059WAT     H163419   3.332   7.043   3.431
21059WAT     H263420   3.241   6.972   3.316
21060WAT      O63421   1.140   3.122   5.718
21060WAT     H163422   1.238   3.102   5.727
21060WAT     H263423   1.128   3.201   5.659
21061WAT      O63424   5.479   3.531   9.772
21061WAT     H163425   5.565   3.485   9.746
21061WAT     H263426   5.453   3.501   9.864
21062WAT      O63427   4.096   6.279   0.177
21062WAT     H163428   4.144   6.362   0.148
21062WAT     H263429   3.997   6.294   0.167
21063WAT      O63430   5.629   2.617   9.397
21063WAT     H163431   5.721   2.590   9.368
21063WAT     H263432   5.590   2.546   9.456
21064WAT      O63433   8.843   8.736   2.134
21064WAT     H163434   8.822   8.826   2.095
21064WAT     H263435   8.841   8.741   2.234
21065WAT      O63436   8.822   9.713   1.995
21065WAT     H163437   8.814   9.621   1.956
21065WAT     H263438   8.755   9.773   1.952
21066WAT      O63439   2.488   1.492   1.936
21066WAT     H163440   2.496   1.497   2.035
21066WAT     H263441   2.479   1.397   1.908
21067WAT      O63442   5.311   3.130   2.024
21067WAT     H163443   5.267   3.166   1.942
21067WAT     H263444   5.275   3.038   2.044
21068WAT      O63445   3.930   6.300   4.432
21068WAT     H163446   3.937   6.200   4.441
21068WAT     H263447   3.946   6.325   4.336
21069WAT      O63448   4.351   8.977   4.374
21069WAT     H163449   4.385   9.048   4.311
21069WAT     H263450   4.427   8.922   4.407
21070WAT      O63451   1.076   5.998   9.744
21070WAT     H163452   1.165   5.985   9.700
21070WAT     H263453   1.086   6.063   9.820
21071WAT      O63454   6.713   5.763   9.893
21071WAT     H163455   6.642   5.779   9.824
21071WAT     H263456   6.699   5.674   9.935
21072WAT      O63457   1.632   3.335   5.505
21072WAT     H163458   1.645   3.416   5.449
21072WAT     H263459   1.719   3.305   5.543
21073WAT      O63460   0.999   2.660   7.357
21073WAT     H163461   0.934   2.714   7.303
21073WAT     H263462   0.976   2.563   7.351
21074WAT      O63463   0.868   4.581   8.720
21074WAT     H163464   0.803   4.609   8.649
21074WAT     H263465   0.914   4.497   8.691
21075WAT      O63466   1.067   1.771   4.008
21075WAT     H163467   0.973   1.793   4.034
21075WAT     H263468   1.081   1.672   4.017
21076WAT      O63469   4.028   3.289   3.059
21076WAT     H163470   4.042   3.379   3.018
21076WAT     H263471   3.965   3.296   3.136
21077WAT      O63472   2.927   5.409   8.239
21077WAT     H163473   2.882   5.332   8.194
21077WAT     H263474   2.917   5.400   8.338
21078WAT      O63475   1.468   5.041   6.984
21078WAT     H163476   1.405   5.062   7.060
21078WAT     H263477   1.526   4.964   7.008
21079WAT      O63478   1.325   9.457   1.216
21079WAT     H163479   1.295   9.369   1.253
21079WAT     H263480   1.411   9.445   1.166
21080WAT      O63481   8.518   5.410   1.700
21080WAT     H163482   8.548   5.364   1.616
21080WAT     H263483   8.553   5.504   1.701
21081WAT      O63484   6.152   1.607   6.891
21081WAT     H163485   6.216   1.532   6.897
21081WAT     H263486   6.193   1.683   6.840
21082WAT      O63487   8.562   5.409   9.485
21082WAT     H163488   8.493   5.479   9.465
21082WAT     H263489   8.563   5.341   9.412
21083WAT      O63490   1.441   0.699   3.987
21083WAT     H163491   1.438   0.611   3.939
21083WAT     H263492   1.381   0.764   3.940
21084WAT      O63493   5.302   0.418   4.211
21084WAT     H163494   5.359   0.442   4.290
21084WAT     H263495   5.229   0.356   4.241
21085WAT      O63496   3.444   2.811   7.568
21085WAT     H163497   3.348   2.814   7.596
21085WAT     H263498   3.499   2.869   7.628
21086WAT      O63499   0.356   5.416   4.764
21086WAT     H163500   0.364   5.453   4.857
21086WAT     H263501   0.432   5.448   4.708
21087WAT      O63502   3.239   4.734   0.447
21087WAT     H163503   3.209   4.775   0.361
21087WAT     H263504   3.160   4.704   0.500
21088WAT      O63505   0.908   0.975   3.799
21088WAT     H163506   0.910   0.890   3.851
21088WAT     H263507   0.892   0.956   3.703
21089WAT      O63508   6.802   4.148   5.390
21089WAT     H163509   6.832   4.232   5.434
21089WAT     H263510   6.792   4.076   5.459
21090WAT      O63511   7.981   8.382   7.013
21090WAT     H163512   7.989   8.459   6.950
21090WAT     H263513   7.911   8.318   6.979
21091WAT      O63514   4.038   9.789   5.097
21091WAT     H163515   4.003   9.696   5.098
21091WAT     H263516   3.961   9.853   5.106
21092WAT      O63517   8.004   2.144   4.460
21092WAT     H163518   7.918   2.178   4.421
21092WAT     H263519   8.027   2.057   4.417
21093WAT      O63520   8.491   2.624   1.973
21093WAT     H163521   8.425   2.552   1.992
21093WAT     H263522   8.443   2.710   1.956
21094WAT      O63523   5.991   0.310   4.361
21094WAT     H163524   6.039   0.227   4.391
21094WAT     H263525   6.057   0.382   4.343
21095WAT      O63526   2.993   4.103   1.324
21095WAT     H163527   3.014   4.065   1.234
21095WAT     H263528   3.077   4.107   1.378
21096WAT      O63529   9.862   4.529   1.324
21096WAT     H163530   9.823   4.619   1.345
21096WAT     H263531   9.960   4.540   1.304
21097WAT      O63532   3.631   2.653   5.712
21097WAT     H163533   3.720   2.629   5.749
21097WAT     H263534   3.615   2.751   5.722
21098WAT      O63535   2.554   2.724   4.014
21098WAT     H163536   2.547   2.680   3.925
21098WAT     H263537   2.561   2.654   4.086
21099WAT      O63538   0.886   3.983   0.220
21099WAT     H163539   0.899   4.080   0.198
21099WAT     H263540   0.808   3.973   0.282
21100WAT      O63541   5.355   1.337   2.596
21100WAT     H163542   5.267   1.289   2.599
21100WAT     H263543   5.368   1.379   2.506
21101WAT      O63544   8.624   0.049   5.149
21101WAT     H163545   8.718   0.035   5.117
21101WAT     H263546   8.622   0.117   5.221
21102WAT      O63547   1.036   9.395   4.999
21102WAT     H163548   0.997   9.328   5.062
21102WAT     H263549   1.064   9.476   5.049
21103WAT      O63550   5.925   7.058   8.633
21103WAT     H163551   5.948   7.119   8.709
21103WAT     H263552   5.925   7.110   8.547
21104WAT      O63553   8.205   5.318   5.619
21104WAT     H163554   8.223   5.225   5.588
21104WAT     H263555   8.252   5.333   5.707
21105WAT      O63556   5.406   9.523   7.061
21105WAT     H163557   5.384   9.558   7.152
21105WAT     H263558   5.421   9.600   6.999
21106WAT      O63559   9.515   4.607   4.846
21106WAT     H163560   9.579   4.675   4.810
21106WAT     H263561   9.563   4.521   4.861
21107WAT      O63562   3.590   6.593   5.678
21107WAT     H163563   3.667   6.532   5.657
21107WAT     H263564   3.522   6.544   5.731
21108WAT      O63565   0.555   4.488   0.044
21108WAT     H163566   0.643   4.489   0.093
21108WAT     H263567   0.490   4.546   0.092
21109WAT      O63568   3.569   4.208   4.089
21109WAT     H163569   3.537   4.137   4.150
21109WAT     H263570   3.513   4.291   4.101
21110WAT      O63571   5.347   6.976   0.873
21110WAT     H163572   5.429   6.933   0.836
21110WAT     H263573   5.285   6.906   0.907
21111WAT      O63574   0.795   3.393   1.472
21111WAT     H163575   0.793   3.491   1.451
21111WAT     H263576   0.827   3.379   1.565
21112WAT      O63577   6.491   0.204   1.018
21112WAT     H163578   6.562   0.274   1.025
21112WAT     H263579   6.514   0.128   1.078
21113WAT      O63580   7.811   3.747   1.581
21113WAT     H163581   7.879   3.737   1.654
21113WAT     H263582   7.803   3.661   1.532
21114WAT      O63583   8.434   7.897   7.997
21114WAT     H163584   8.339   7.873   7.975
21114WAT     H263585   8.443   7.904   8.096
21115WAT      O63586   6.420   2.872   3.203
21115WAT     H163587   6.442   2.885   3.106
21115WAT     H263588   6.325   2.900   3.219
21116WAT      O63589   3.565   0.686   8.808
21116WAT     H163590   3.518   0.647   8.729
21116WAT     H263591   3.615   0.768   8.779
21117WAT      O63592   5.143   3.215   3.853
21117WAT     H163593   5.125   3.301   3.804
21117WAT     H263594   5.116   3.226   3.949
21118WAT      O63595   4.416   2.914   4.783
21118WAT     H163596   4.439   2.835   4.840
21118WAT     H263597   4.345   2.968   4.828
21119WAT      O63598   7.249   0.023   6.488
21119WAT     H163599   7.325   0.020   6.422
21119WAT     H263600   7.245  -0.064   6.537
21120WAT      O63601   1.182   0.013   0.513
21120WAT     H163602   1.152   0.107   0.498
21120WAT     H263603   1.103  -0.046   0.528
21121WAT      O63604   4.749   4.067   8.587
21121WAT     H163605   4.744   3.979   8.539
21121WAT     H263606   4.813   4.059   8.664
21122WAT      O63607   3.960   9.738   9.477
21122WAT     H163608   4.020   9.691   9.542
21122WAT     H263609   3.931   9.673   9.407
21123WAT      O63610   8.153   4.553   6.481
21123WAT     H163611   8.063   4.525   6.512
21123WAT     H263612   8.216   4.556   6.559
21124WAT      O63613   3.194   2.039   1.950
21124WAT     H163614   3.182   1.951   1.904
21124WAT     H263615   3.109   2.091   1.946
21125WAT      O63616   8.897   9.545   7.203
21125WAT     H163617   8.909   9.496   7.289
21125WAT     H263618   8.927   9.640   7.213
21126WAT      O63619   5.964   8.217   3.038
21126WAT     H163620   5.977   8.118   3.029
21126WAT     H263621   5.877   8.243   2.997
21127WAT      O63622   8.010   4.225   5.373
21127WAT     H163623   7.939   4.201   5.439
21127WAT     H263624   8.052   4.141   5.337
21128WAT      O63625   1.765   1.283   2.390
21128WAT     H163626   1.841   1.347   2.377
21128WAT     H263627   1.691   1.306   2.327
21129WAT      O63628   8.090   6.460   6.051
21129WAT     H163629   8.177   6.431   6.012
21129WAT     H263630   8.036   6.379   6.075
21130WAT      O63631   4.068   2.652   6.510
21130WAT     H163632   4.157   2.609   6.522
21130WAT     H263633   4.064   2.736   6.565
21131WAT      O63634   1.564   4.707   1.597
21131WAT     H163635   1.532   4.676   1.686
21131WAT     H263636   1.582   4.628   1.538
21132WAT      O63637   7.776   1.015   3.276
21132WAT     H163638   7.847   1.013   3.346
21132WAT     H263639   7.785   0.935   3.216
21133WAT      O63640   5.459   6.703   4.927
21133WAT     H163641   5.486   6.708   4.831
21133WAT     H263642   5.532   6.660   4.980
21134WAT      O63643   4.197   3.932   7.917
21134WAT     H163644   4.265   3.999   7.884
21134WAT     H263645   4.238   3.876   7.988
21135WAT      O63646   2.571   3.174   8.212
21135WAT     H163647   2.615   3.264   8.212
21135WAT     H263648   2.602   3.122   8.132
21136WAT      O63649   1.249   3.995   2.323
21136WAT     H163650   1.339   3.959   2.302
21136WAT     H263651   1.208   3.941   2.397
21137WAT      O63652   8.572   2.587   6.896
21137WAT     H163653   8.477   2.555   6.903
21137WAT     H263654   8.589   2.654   6.969
21138WAT      O63655   4.155   4.979   8.989
21138WAT     H163656   4.229   5.004   9.051
21138WAT     H263657   4.070   5.021   9.021
21139WAT      O63658   7.492   8.497   8.731
21139WAT     H163659   7.398   8.468   8.749
21139WAT     H263660   7.523   8.457   8.645
21140WAT      O63661   8.977   6.674   1.031
21140WAT     H163662   9.049   6.616   1.070
21140WAT     H263663   9.006   6.707   0.942
21141WAT      O63664   4.288   0.201   4.221
21141WAT     H163665   4.226   0.220   4.145
21141WAT     H263666   4.330   0.287   4.251
21142WAT      O63667   4.489   5.257   8.095
21142WAT     H163668   4.419   5.275   8.164
21142WAT     H263669   4.448   5.207   8.019
21143WAT      O63670   0.816   1.214   5.486
21143WAT     H163671   0.751   1.288   5.474
21143WAT     H263672   0.767   1.126   5.486
21144WAT      O63673   2.906   9.708   6.574
21144WAT     H163674   2.845   9.634   6.546
21144WAT     H263675   2.990   9.669   6.612
21145WAT      O63676   9.752   9.167   8.451
21145WAT     H163677   9.824   9.099   8.438
21145WAT     H263678   9.691   9.167   8.372
21146WAT      O63679   3.827   5.381   9.674
21146WAT     H163680   3.898   5.348   9.612
21146WAT     H263681   3.740   5.337   9.653
21147WAT      O63682   5.010   3.363   8.513
21147WAT     H163683   4.914   3.336   8.507
21147WAT     H263684   5.028   3.403   8.602
21148WAT      O63685   4.835   9.274   5.204
21148WAT     H163686   4.823   9.175   5.217
21148WAT     H263687   4.904   9.289   5.133
21149WAT      O63688   9.757   1.024   0.057
21149WAT     H163689   9.732   0.942   0.005
21149WAT     H263690   9.754   1.104  -0.003
21150WAT      O63691   5.771   6.832   1.107
21150WAT     H163692   5.745   6.906   1.168
21150WAT     H263693   5.778   6.747   1.159
21151WAT      O63694   8.341   7.590   6.335
21151WAT     H163695   8.261   7.636   6.374
21151WAT     H263696   8.424   7.625   6.378
21152WAT      O63697   0.412   0.897   2.780
21152WAT     H163698   0.488   0.908   2.844
21152WAT     H263699   0.329   0.872   2.830
21153WAT      O63700   9.878   8.115   7.156
21153WAT     H163701   9.843   8.205   7.131
21153WAT     H263702   9.803   8.048   7.156
21154WAT      O63703   0.392   5.786   9.522
21154WAT     H163704   0.344   5.740   9.447
21154WAT     H263705   0.489   5.763   9.518
21155WAT      O63706   5.712   3.249   2.172
21155WAT     H163707   5.781   3.322   2.179
21155WAT     H263708   5.642   3.276   2.106
21156WAT      O63709   9.628   9.243   1.992
21156WAT     H163710   9.585   9.187   2.063
21156WAT     H263711   9.675   9.183   1.927
21157WAT      O63712   4.466   1.799   8.999
21157WAT     H163713   4.472   1.837   9.091
21157WAT     H263714   4.466   1.699   9.004
21158WAT      O63715   1.719   1.291   0.085
21158WAT     H163716   1.687   1.348   0.009
21158WAT     H263717   1.819   1.295   0.090
21159WAT      O63718   7.664   4.072   5.986
21159WAT     H163719   7.723   3.993   6.005
21159WAT     H263720   7.698   4.122   5.907
21160WAT      O63721   0.901   5.721   6.978
21160WAT     H163722   0.998   5.720   7.003
21160WAT     H263723   0.850   5.775   7.045
21161WAT      O63724   1.448   0.696   7.962
21161WAT     H163725   1.521   0.682   7.896
21161WAT     H263726   1.455   0.788   8.001
21162WAT      O63727   3.993   5.017   6.729
21162WAT     H163728   3.988   5.116   6.713
21162WAT     H263729   4.039   5.000   6.816
21163WAT      O63730   9.401   3.044   4.284
21163WAT     H163731   9.495   3.046   4.319
21163WAT     H263732   9.390   3.111   4.211
21164WAT      O63733   9.450   4.879   3.814
21164WAT     H163734   9.385   4.819   3.860
21164WAT     H263735   9.503   4.930   3.883
21165WAT      O63736   7.098   0.391   1.960
21165WAT     H163737   7.170   0.406   1.892
21165WAT     H263738   7.051   0.477   1.977
21166WAT      O63739   5.660   5.234   6.634
21166WAT     H163740   5.706   5.153   6.671
21166WAT     H263741   5.627   5.291   6.709
21167WAT      O63742   1.253   3.136   2.067
21167WAT     H163743   1.344   3.103   2.041
21167WAT     H263744   1.193   3.135   1.987
21168WAT      O63745   7.938   4.481   0.446
21168WAT     H163746   7.940   4.572   0.488
21168WAT     H263747   7.911   4.489   0.350
21169WAT      O63748   1.102   1.365   6.090
21169WAT     H163749   1.141   1.426   6.158
21169WAT     H263750   1.116   1.270   6.117
21170WAT      O63751   4.079   0.184   7.587
21170WAT     H163752   4.173   0.198   7.615
21170WAT     H263753   4.017   0.222   7.656
21171WAT      O63754   9.858   4.425   8.650
21171WAT     H163755   9.957   4.425   8.664
21171WAT     H263756   9.829   4.515   8.617
21172WAT      O63757   9.648  -0.004   8.309
21172WAT     H163758   9.549  -0.007   8.299
21172WAT     H263759   9.684   0.078   8.264
21173WAT      O63760   0.704   1.240   1.920
21173WAT     H163761   0.637   1.314   1.933
21173WAT     H263762   0.681   1.164   1.981
21174WAT      O63763   7.833   3.601   6.183
21174WAT     H163764   7.932   3.598   6.192
21174WAT     H263765   7.795   3.509   6.198
21175WAT      O63766   7.552   5.303   2.649
21175WAT     H163767   7.511   5.302   2.740
21175WAT     H263768   7.488   5.262   2.583
21176WAT      O63769   9.365   0.881   4.896
21176WAT     H163770   9.326   0.789   4.907
21176WAT     H263771   9.292   0.949   4.906
21177WAT      O63772   1.714   8.882   5.070
21177WAT     H163773   1.656   8.800   5.071
21177WAT     H263774   1.658   8.962   5.049
21178WAT      O63775   6.163   3.773   1.021
21178WAT     H163776   6.222   3.740   1.095
21178WAT     H263777   6.169   3.873   1.016
21179WAT      O63778   0.827   5.486   4.008
21179WAT     H163779   0.779   5.570   4.036
21179WAT     H263780   0.804   5.412   4.072
21180WAT      O63781   7.869   5.610   8.355
21180WAT     H163782   7.875   5.659   8.268
21180WAT     H263783   7.946   5.547   8.365
21181WAT      O63784   4.174   3.365   7.876
21181WAT     H163785   4.252   3.308   7.902
21181WAT     H263786   4.205   3.437   7.813
21182WAT      O63787   8.311   0.822   9.436
21182WAT     H163788   8.272   0.808   9.527
21182WAT     H263789   8.323   0.734   9.390
21183WAT      O63790   2.263   2.682   6.219
21183WAT     H163791   2.164   2.692   6.221
21183WAT     H263792   2.295   2.695   6.125
21184WAT      O63793   6.111   1.630   2.634
21184WAT     H163794   6.137   1.651   2.729
21184WAT     H263795   6.191   1.635   2.575
21185WAT      O63796   7.165   4.524   3.472
21185WAT     H163797   7.228   4.452   3.443
21185WAT     H263798   7.217   4.605   3.500
21186WAT      O63799   3.214   8.113   1.311
21186WAT     H163800   3.210   8.128   1.409
21186WAT     H263801   3.208   8.201   1.263
21187WAT      O63802   5.239   4.594   3.706
21187WAT     H163803   5.262   4.676   3.758
21187WAT     H263804   5.272   4.513   3.755
21188WAT      O63805   6.375   8.146   7.446
21188WAT     H163806   6.355   8.230   7.395
21188WAT     H263807   6.435   8.088   7.392
21189WAT      O63808   4.815   7.273   1.967
21189WAT     H163809   4.750   7.339   1.930
21189WAT     H263810   4.886   7.322   2.017
21190WAT      O63811   7.982   8.566   1.678
21190WAT     H163812   7.888   8.552   1.646
21190WAT     H263813   7.980   8.600   1.772
21191WAT      O63814   7.941   4.794   2.279
21191WAT     H163815   7.879   4.783   2.356
21191WAT     H263816   7.895   4.845   2.206
21192WAT      O63817   8.618   5.012   9.155
21192WAT     H163818   8.614   5.039   9.058
21192WAT     H263819   8.635   4.914   9.161
21193WAT      O63820   8.361   6.553   2.455
21193WAT     H163821   8.368   6.585   2.549
21193WAT     H263822   8.285   6.599   2.409
21194WAT      O63823   7.446   8.303   6.078
21194WAT     H163824   7.494   8.365   6.016
21194WAT     H263825   7.432   8.215   6.032
21195WAT      O63826   6.627   2.724   6.017
21195WAT     H163827   6.603   2.757   6.108
21195WAT     H263828   6.726   2.713   6.011
21196WAT      O63829   9.251   2.940   5.387
21196WAT     H163830   9.238   2.906   5.294
21196WAT     H263831   9.218   3.034   5.393
21197WAT      O63832   4.302   8.814   2.324
21197WAT     H163833   4.256   8.767   2.399
21197WAT     H263834   4.352   8.747   2.269
21198WAT      O63835   8.306   3.393   1.602
21198WAT     H163836   8.274   3.488   1.601
21198WAT     H263837   8.401   3.390   1.570
21199WAT      O63838   6.504   2.238   5.961
21199WAT     H163839   6.421   2.198   5.923
21199WAT     H263840   6.584   2.203   5.911
21200WAT      O63841   5.274   7.493   3.052
21200WAT     H163842   5.256   7.452   3.142
21200WAT     H263843   5.311   7.586   3.065
21201WAT      O63844   2.646   9.140   2.713
21201WAT     H163845   2.587   9.207   2.667
21201WAT     H263846   2.591   9.062   2.742
21202WAT      O63847   7.202   8.357   3.726
21202WAT     H163848   7.275   8.394   3.669
21202WAT     H263849   7.196   8.412   3.810
21203WAT      O63850   3.309   5.235   3.584
21203WAT     H163851   3.273   5.141   3.587
21203WAT     H263852   3.243   5.295   3.539
21204WAT      O63853   8.396   5.865   1.721
21204WAT     H163854   8.336   5.853   1.642
21204WAT     H263855   8.347   5.916   1.792
21205WAT      O63856   1.623   0.999   5.875
21205WAT     H163857   1.562   0.925   5.846
21205WAT     H263858   1.584   1.046   5.954
21206WAT      O63859   0.923   4.044   9.465
21206WAT     H163860   0.853   4.061   9.535
21206WAT     H263861   0.974   4.128   9.449
21207WAT      O63862   4.996   7.986   1.938
21207WAT     H163863   5.020   8.013   2.031
21207WAT     H263864   5.075   7.941   1.895
21208WAT      O63865   5.517   1.373   7.644
21208WAT     H163866   5.594   1.437   7.647
21208WAT     H263867   5.432   1.421   7.668
21209WAT      O63868   2.568   4.856   5.294
21209WAT     H163869   2.503   4.882   5.366
21209WAT     H263870   2.550   4.910   5.212
21210WAT      O63871   1.196   1.594   6.977
21210WAT     H163872   1.189   1.511   7.032
21210WAT     H263873   1.290   1.605   6.944
21211WAT      O63874   9.830   7.685   3.169
21211WAT     H163875   9.784   7.702   3.082
21211WAT     H263876   9.928   7.701   3.157
21212WAT      O63877   4.603   3.532   9.406
21212WAT     H163878   4.680   3.482   9.444
21212WAT     H263879   4.524   3.525   9.468
21213WAT      O63880   1.017   1.962   5.275
21213WAT     H163881   0.941   1.958   5.210
21213WAT     H263882   1.064   1.874   5.277
21214WAT      O63883   4.412   0.785   6.326
21214WAT     H163884   4.313   0.796   6.335
21214WAT     H263885   4.456   0.813   6.412
21215WAT      O63886   6.911   7.712   9.667
21215WAT     H163887   6.979   7.756   9.726
21215WAT     H263888   6.822   7.715   9.712
21216WAT      O63889   6.736   3.253   6.810
21216WAT     H163890   6.654   3.309   6.797
21216WAT     H263891   6.731   3.173   6.751
21217WAT      O63892   0.269   6.649   5.832
21217WAT     H163893   0.205   6.716   5.870
21217WAT     H263894   0.314   6.600   5.907
21218WAT      O63895   1.900   0.315   9.121
21218WAT     H163896   1.976   0.373   9.152
21218WAT     H263897   1.823   0.327   9.184
21219WAT      O63898   7.402   7.169   4.416
21219WAT     H163899   7.357   7.120   4.341
21219WAT     H263900   7.459   7.106   4.468
21220WAT      O63901   1.771   3.294   6.958
21220WAT     H163902   1.869   3.276   6.953
21220WAT     H263903   1.745   3.360   6.888
21221WAT      O63904   7.500   1.424   3.968
21221WAT     H163905   7.477   1.485   4.044
21221WAT     H263906   7.531   1.477   3.890
21222WAT      O63907   1.671   1.828   2.254
21222WAT     H163908   1.649   1.858   2.347
21222WAT     H263909   1.718   1.901   2.205
21223WAT      O63910   6.541   4.774   5.966
21223WAT     H163911   6.617   4.830   5.933
21223WAT     H263912   6.455   4.819   5.943
21224WAT      O63913   0.771   7.896   0.430
21224WAT     H163914   0.780   7.981   0.483
21224WAT     H263915   0.859   7.875   0.387
21225WAT      O63916   1.699   0.146   4.393
21225WAT     H163917   1.747   0.138   4.481
21225WAT     H263918   1.766   0.160   4.320
21226WAT      O63919   4.523   0.549   0.984
21226WAT     H163920   4.520   0.466   0.929
21226WAT     H263921   4.432   0.589   0.989
21227WAT      O63922   3.863   1.145   9.541
21227WAT     H163923   3.867   1.209   9.618
21227WAT     H263924   3.954   1.104   9.527
21228WAT      O63925   9.638   7.507   8.886
21228WAT     H163926   9.631   7.429   8.948
21228WAT     H263927   9.576   7.579   8.916
21229WAT      O63928   0.459   9.367   0.300
21229WAT     H163929   0.403   9.353   0.382
21229WAT     H263930   0.479   9.279   0.258
21230WAT      O63931   4.457   8.228   3.299
21230WAT     H163932   4.377   8.253   3.245
21230WAT     H263933   4.429   8.179   3.381
21231WAT      O63934   3.642   3.527   4.895
21231WAT     H163935   3.666   3.606   4.839
21231WAT     H263936   3.602   3.558   4.981
21232WAT      O63937   1.744   4.506   4.668
21232WAT     H163938   1.769   4.413   4.695
21232WAT     H263939   1.646   4.520   4.681
21233WAT      O63940   0.912   1.909   6.128
21233WAT     H163941   0.857   1.828   6.104
21233WAT     H263942   0.934   1.959   6.044
21234WAT      O63943   8.323   6.820   9.255
21234WAT     H163944   8.338   6.730   9.213
21234WAT     H263945   8.346   6.815   9.352
21235WAT      O63946   6.100   7.615   2.268
21235WAT     H163947   6.194   7.583   2.253
21235WAT     H263948   6.044   7.590   2.190
21236WAT      O63949   8.748   5.941   3.520
21236WAT     H163950   8.733   5.872   3.591
21236WAT     H263951   8.767   5.896   3.433
21237WAT      O63952   4.489   3.700   4.146
21237WAT     H163953   4.463   3.689   4.242
21237WAT     H263954   4.419   3.658   4.088
21238WAT      O63955   1.230   3.730   5.498
21238WAT     H163956   1.328   3.726   5.479
21238WAT     H263957   1.216   3.758   5.593
21239WAT      O63958   0.913   3.471   6.906
21239WAT     H163959   0.850   3.460   6.984
21239WAT     H263960   0.957   3.384   6.886
21240WAT      O63961   9.706   8.194   9.606
21240WAT     H163962   9.750   8.240   9.529
21240WAT     H263963   9.607   8.203   9.599
21241WAT      O63964   1.437   0.658   3.060
21241WAT     H163965   1.466   0.732   3.119
21241WAT     H263966   1.373   0.599   3.109
21242WAT      O63967   5.858   0.980   0.618
21242WAT     H163968   5.919   1.032   0.678
21242WAT     H263969   5.837   1.035   0.537
21243WAT      O63970   1.086   7.487   8.164
21243WAT     H163971   1.142   7.555   8.211
21243WAT     H263972   1.046   7.527   8.082
21244WAT      O63973   1.387   3.751   6.898
21244WAT     H163974   1.294   3.779   6.872
21244WAT     H263975   1.443   3.832   6.915
21245WAT      O63976   4.832   6.175   4.421
21245WAT     H163977   4.760   6.176   4.490
21245WAT     H263978   4.910   6.123   4.455
21246WAT      O63979   2.943   1.342   8.295
21246WAT     H163980   2.996   1.344   8.380
21246WAT     H263981   2.959   1.255   8.249
21247WAT      O63982   7.026   9.413   2.756
21247WAT     H163983   7.064   9.325   2.786
21247WAT     H263984   6.945   9.434   2.810
21248WAT      O63985   2.188   2.756   9.401
21248WAT     H163986   2.264   2.696   9.377
21248WAT     H263987   2.150   2.796   9.318
21249WAT      O63988   4.374   6.091   3.976
21249WAT     H163989   4.436   6.121   3.903
21249WAT     H263990   4.327   6.008   3.948
21250WAT      O63991   3.084   2.391   1.609
21250WAT     H163992   3.159   2.391   1.543
21250WAT     H263993   3.112   2.440   1.691
21251WAT      O63994   1.293   7.523   4.014
21251WAT     H163995   1.200   7.486   4.009
21251WAT     H263996   1.290   7.619   4.041
21252WAT      O63997   4.526   2.173   7.250
21252WAT     H163998   4.623   2.150   7.244
21252WAT     H263999   4.503   2.239   7.178
21253WAT      O64000   1.421   0.394   7.815
21253WAT     H164001   1.407   0.467   7.882
21253WAT     H264002   1.410   0.432   7.723
21254WAT      O64003   7.890   2.766   5.607
21254WAT     H164004   7.953   2.744   5.681
21254WAT     H264005   7.835   2.686   5.584
21255WAT      O64006   8.658   7.938   4.135
21255WAT     H164007   8.615   7.860   4.180
21255WAT     H264008   8.754   7.944   4.163
21256WAT      O64009   6.958   2.148   3.407
21256WAT     H164010   7.028   2.125   3.340
21256WAT     H264011   6.913   2.234   3.381
21257WAT      O64012   6.259   2.311   9.287
21257WAT     H164013   6.265   2.403   9.326
21257WAT     H264014   6.284   2.243   9.357
21258WAT      O64015   9.056   3.739   5.643
21258WAT     H164016   8.981   3.798   5.673
21258WAT     H264017   9.093   3.774   5.557
21259WAT      O64018   2.853   0.204   1.817
21259WAT     H164019   2.855   0.141   1.739
21259WAT     H264020   2.890   0.159   1.898
21260WAT      O64021   5.366   5.144   2.127
21260WAT     H164022   5.416   5.097   2.054
21260WAT     H264023   5.399   5.111   2.216
21261WAT      O64024   0.678   7.499   2.842
21261WAT     H164025   0.690   7.426   2.909
21261WAT     H264026   0.596   7.481   2.787
21262WAT      O64027   6.888   5.546   3.528
21262WAT     H164028   6.875   5.508   3.437
21262WAT     H264029   6.799   5.568   3.568
21263WAT      O64030   0.653   5.373   6.131
21263WAT     H164031   0.648   5.386   6.230
21263WAT     H264032   0.562   5.383   6.091
21264WAT      O64033   3.756   1.319   5.880
21264WAT     H164034   3.825   1.387   5.857
21264WAT     H264035   3.673   1.337   5.828
21265WAT      O64036   8.207   5.373   3.103
21265WAT     H164037   8.163   5.284   3.091
21265WAT     H264038   8.159   5.425   3.174
21266WAT      O64039   1.081   5.812   8.914
21266WAT     H164040   1.175   5.833   8.891
21266WAT     H264041   1.024   5.818   8.833
21267WAT      O64042   6.981   2.124   3.141
21267WAT     H164043   7.016   2.045   3.090
21267WAT     H264044   6.920   2.177   3.084
21268WAT      O64045   7.795   0.096   9.716
21268WAT     H164046   7.733   0.164   9.755
21268WAT     H264047   7.757   0.004   9.730
21269WAT      O64048   1.078   9.819   4.279
21269WAT     H164049   1.100   9.769   4.362
21269WAT     H264050   0.979   9.826   4.269
21270WAT      O64051   2.487   1.888   2.797
21270WAT     H164052   2.498   1.977   2.842
21270WAT     H264053   2.390   1.867   2.789
21271WAT      O64054   8.652   5.520   4.126
21271WAT     H164055   8.697   5.534   4.215
21271WAT     H264056   8.722   5.515   4.054
21272WAT      O64057   4.879   3.682   6.443
21272WAT     H164058   4.828   3.596   6.453
21272WAT     H264059   4.815   3.756   6.423
21273WAT      O64060   5.879   4.948   8.022
21273WAT     H164061   5.780   4.938   8.033
21273WAT     H264062   5.923   4.926   8.109
21274WAT      O64063   4.107   3.011   9.058
21274WAT     H164064   4.203   3.040   9.054
21274WAT     H264065   4.086   2.979   9.150
21275WAT      O64066   0.216   4.942   3.555
21275WAT     H164067   0.127   4.942   3.601
21275WAT     H264068   0.251   4.849   3.550
21276WAT      O64069   1.926   0.474   4.663
21276WAT     H164070   1.874   0.554   4.632
21276WAT     H264071   1.978   0.499   4.746
21277WAT      O64072   8.467   0.537   7.965
21277WAT     H164073   8.404   0.569   7.894
21277WAT     H264074   8.553   0.509   7.924
21278WAT      O64075   9.646   4.644   0.748
21278WAT     H164076   9.587   4.710   0.702
21278WAT     H264077   9.683   4.685   0.832
21279WAT      O64078   5.764   1.757   3.554
21279WAT     H164079   5.692   1.807   3.505
21279WAT     H264080   5.821   1.822   3.604
21280WAT      O64081   3.808   0.498   6.199
21280WAT     H164082   3.835   0.531   6.109
21280WAT     H264083   3.760   0.411   6.190
21281WAT      O64084   3.795   2.320   2.961
21281WAT     H164085   3.695   2.316   2.971
21281WAT     H264086   3.838   2.303   3.049
21282WAT      O64087   7.362   6.338   2.610
21282WAT     H164088   7.304   6.373   2.685
21282WAT     H264089   7.453   6.379   2.617
21283WAT      O64090   1.611   1.372   9.491
21283WAT     H164091   1.559   1.385   9.406
21283WAT     H264092   1.688   1.435   9.493
21284WAT      O64093   4.819   4.146   8.259
21284WAT     H164094   4.910   4.118   8.291
21284WAT     H264095   4.798   4.237   8.294
21285WAT      O64096   0.338   3.297   7.863
21285WAT     H164097   0.375   3.266   7.775
21285WAT     H264098   0.267   3.366   7.847
21286WAT      O64099   1.253   7.937   1.635
21286WAT     H164100   1.202   7.857   1.606
21286WAT     H264101   1.347   7.911   1.659
21287WAT      O64102   8.738   8.456   8.292
21287WAT     H164103   8.809   8.408   8.343
21287WAT     H264104   8.679   8.389   8.247
21288WAT      O64105   8.214   4.700   6.049
21288WAT     H164106   8.128   4.718   6.096
21288WAT     H264107   8.222   4.602   6.028
21289WAT      O64108   6.634   3.400   9.076
21289WAT     H164109   6.704   3.443   9.133
21289WAT     H264110   6.652   3.420   8.980
21290WAT      O64111   5.799   0.838   9.661
21290WAT     H164112   5.852   0.815   9.580
21290WAT     H264113   5.728   0.904   9.637
21291WAT      O64114   0.601   9.762   5.570
21291WAT     H164115   0.612   9.775   5.471
21291WAT     H264116   0.604   9.851   5.615
21292WAT      O64117   2.290   6.111   7.553
21292WAT     H164118   2.289   6.046   7.628
21292WAT     H264119   2.384   6.135   7.530
21293WAT      O64120   1.511   8.335   2.632
21293WAT     H164121   1.591   8.298   2.585
21293WAT     H264122   1.496   8.429   2.602
21294WAT      O64123   7.954   0.811   6.355
21294WAT     H164124   7.920   0.822   6.448
21294WAT     H264125   8.054   0.808   6.356
21295WAT      O64126   2.659   6.166   8.585
21295WAT     H164127   2.565   6.147   8.617
21295WAT     H264128   2.665   6.150   8.487
21296WAT      O64129   2.182   7.643   8.033
21296WAT     H164130   2.109   7.576   8.044
21296WAT     H264131   2.251   7.608   7.971
21297WAT      O64132   0.387   5.682   1.757
21297WAT     H164133   0.309   5.688   1.819
21297WAT     H264134   0.457   5.747   1.784
21298WAT      O64135   7.649   8.888   3.235
21298WAT     H164136   7.718   8.823   3.202
21298WAT     H264137   7.695   8.968   3.273
21299WAT      O64138   6.038   5.438   2.191
21299WAT     H164139   6.098   5.506   2.233
21299WAT     H264140   6.028   5.457   2.094
21300WAT      O64141   1.307   7.318   7.577
21300WAT     H164142   1.358   7.378   7.516
21300WAT     H264143   1.371   7.263   7.631
21301WAT      O64144   6.296   5.070   5.283
21301WAT     H164145   6.289   5.164   5.251
21301WAT     H264146   6.380   5.029   5.246
21302WAT      O64147   7.849   9.669   2.263
21302WAT     H164148   7.894   9.708   2.184
21302WAT     H264149   7.751   9.690   2.260
21303WAT      O64150   2.079   3.519   3.097
21303WAT     H164151   2.164   3.496   3.144
21303WAT     H264152   2.020   3.572   3.158
21304WAT      O64153   1.488   4.624   3.093
21304WAT     H164154   1.475   4.577   3.180
21304WAT     H264155   1.484   4.723   3.107
21305WAT      O64156   9.667   5.557   3.987
21305WAT     H164157   9.611   5.583   3.908
21305WAT     H264158   9.609   5.552   4.068
21306WAT      O64159   0.389   0.629   1.636
21306WAT     H164160   0.369   0.620   1.539
21306WAT     H264161   0.345   0.555   1.687
21307WAT      O64162   6.473   4.754   2.122
21307WAT     H164163   6.444   4.711   2.036
21307WAT     H264164   6.513   4.685   2.182
21308WAT      O64165   4.410   8.741   1.741
21308WAT     H164166   4.332   8.755   1.679
21308WAT     H264167   4.376   8.719   1.832
21309WAT      O64168   9.309   1.672   4.109
21309WAT     H164169   9.346   1.764   4.093
21309WAT     H264170   9.210   1.678   4.121
21310WAT      O64171   4.775   0.174   7.628
21310WAT     H164172   4.779   0.273   7.617
21310WAT     H264173   4.865   0.134   7.612
21311WAT      O64174   3.029   8.591   2.172
21311WAT     H164175   2.940   8.609   2.129
21311WAT     H264176   3.014   8.550   2.263
21312WAT      O64177   2.061   7.916   5.690
21312WAT     H164178   1.962   7.908   5.685
21312WAT     H264179   2.090   7.925   5.785
21313WAT      O64180   7.201   1.923   0.796
21313WAT     H164181   7.264   1.929   0.718
21313WAT     H264182   7.108   1.945   0.766
21314WAT      O64183   8.577   5.311   8.468
21314WAT     H164184   8.675   5.306   8.485
21314WAT     H264185   8.559   5.344   8.376
21315WAT      O64186   7.107   1.307   1.517
21315WAT     H164187   7.114   1.239   1.445
21315WAT     H264188   7.146   1.394   1.486
21316WAT      O64189   8.056   0.483   2.350
21316WAT     H164190   8.002   0.560   2.317
21316WAT     H264191   8.046   0.475   2.449
21317WAT      O64192   0.965   7.915   6.429
21317WAT     H164193   1.050   7.876   6.394
21317WAT     H264194   0.899   7.925   6.354
21318WAT      O64195   0.523   1.670   9.322
21318WAT     H164196   0.483   1.654   9.412
21318WAT     H264197   0.573   1.589   9.292
21319WAT      O64198   2.980   8.923   1.506
21319WAT     H164199   2.993   8.974   1.421
21319WAT     H264200   2.930   8.839   1.487
21320WAT      O64201   2.921   6.159   9.615
21320WAT     H164202   3.018   6.140   9.606
21320WAT     H264203   2.905   6.257   9.607
21321WAT      O64204   0.374   6.269   1.119
21321WAT     H164205   0.276   6.284   1.111
21321WAT     H264206   0.409   6.227   1.035
21322WAT      O64207   8.306   7.112   1.701
21322WAT     H164208   8.238   7.182   1.720
21322WAT     H264209   8.318   7.103   1.602
21323WAT      O64210   4.964   5.670   8.448
21323WAT     H164211   4.899   5.737   8.412
21323WAT     H264212   4.927   5.578   8.438
21324WAT      O64213   8.697   6.620   1.669
21324WAT     H164214   8.777   6.570   1.703
21324WAT     H264215   8.721   6.717   1.660
21325WAT      O64216   5.751   5.554   1.700
21325WAT     H164217   5.782   5.631   1.644
21325WAT     H264218   5.724   5.588   1.790
21326WAT      O64219   8.085   1.067   7.754
21326WAT     H164220   8.095   1.124   7.672
21326WAT     H264221   8.016   1.107   7.814
21327WAT      O64222   1.792   9.291   5.767
21327WAT     H164223   1.862   9.327   5.828
21327WAT     H264224   1.706   9.340   5.783
21328WAT      O64225   8.821   3.502   7.699
21328WAT     H164226   8.731   3.460   7.693
21328WAT     H264227   8.827   3.579   7.636
21329WAT      O64228   6.840   5.239   0.847
21329WAT     H164229   6.833   5.168   0.777
21329WAT     H264230   6.876   5.200   0.932
21330WAT      O64231   5.939   2.097   6.745
21330WAT     H164232   5.996   2.023   6.782
21330WAT     H264233   5.870   2.058   6.685
21331WAT      O64234   3.511   7.944   3.826
21331WAT     H164235   3.466   7.972   3.741
21331WAT     H264236   3.577   7.871   3.807
21332WAT      O64237   7.256   1.690   5.224
21332WAT     H164238   7.271   1.689   5.323
21332WAT     H264239   7.206   1.607   5.197
21333WAT      O64240   5.184   2.253   2.642
21333WAT     H164241   5.283   2.254   2.635
21333WAT     H264242   5.156   2.291   2.730
21334WAT      O64243   3.602   8.240   2.167
21334WAT     H164244   3.701   8.253   2.179
21334WAT     H264245   3.563   8.201   2.251
21335WAT      O64246   5.834   1.318   0.360
21335WAT     H164247   5.893   1.398   0.358
21335WAT     H264248   5.890   1.235   0.366
21336WAT      O64249   1.167   2.407   6.481
21336WAT     H164250   1.102   2.331   6.485
21336WAT     H264251   1.117   2.493   6.471
21337WAT      O64252   1.165   7.910   5.669
21337WAT     H164253   1.206   8.000   5.684
21337WAT     H264254   1.230   7.850   5.623
21338WAT      O64255   2.313   4.128   1.054
21338WAT     H164256   2.361   4.040   1.053
21338WAT     H264257   2.262   4.138   1.139
21339WAT      O64258   1.324   8.648   8.067
21339WAT     H164259   1.333   8.563   8.118
21339WAT     H264260   1.413   8.676   8.032
21340WAT      O64261   5.025   7.288   4.236
21340WAT     H164262   5.005   7.386   4.228
21340WAT     H264263   4.959   7.247   4.299
21341WAT      O64264   1.163   0.585   0.935
21341WAT     H164265   1.121   0.629   1.014
21341WAT     H264266   1.255   0.553   0.959
21342WAT      O64267   6.654   9.702   9.514
21342WAT     H164268   6.749   9.674   9.497
21342WAT     H264269   6.653   9.787   9.568
21343WAT      O64270   4.712   2.237   4.537
21343WAT     H164271   4.789   2.230   4.474
21343WAT     H264272   4.731   2.183   4.619
21344WAT      O64273   5.255   0.233   1.721
21344WAT     H164274   5.350   0.263   1.733
21344WAT     H264275   5.219   0.201   1.809
21345WAT      O64276   2.254   4.760   3.142
21345WAT     H164277   2.178   4.764   3.206
21345WAT     H264278   2.231   4.699   3.066
21346WAT      O64279   6.492   8.238   2.811
21346WAT     H164280   6.435   8.320   2.805
21346WAT     H264281   6.435   8.157   2.798
21347WAT      O64282   3.135   5.633   7.844
21347WAT     H164283   3.181   5.721   7.853
21347WAT     H264284   3.084   5.612   7.927
21348WAT      O64285   5.702   5.953   8.650
21348WAT     H164286   5.755   6.038   8.649
21348WAT     H264287   5.655   5.944   8.562
21349WAT      O64288   4.699   9.142   0.097
21349WAT     H164289   4.632   9.215   0.083
21349WAT     H264290   4.662   9.075   0.161
21350WAT      O64291   3.878   2.211   6.705
21350WAT     H164292   3.865   2.309   6.693
21350WAT     H264293   3.819   2.178   6.778
21351WAT      O64294   1.025   1.036   8.233
21351WAT     H164295   1.045   1.059   8.138
21351WAT     H264296   0.981   0.946   8.236
21352WAT      O64297   9.465   1.556   6.330
21352WAT     H164298   9.418   1.629   6.379
21352WAT     H264299   9.411   1.530   6.250
21353WAT      O64300   4.502   2.404   2.537
21353WAT     H164301   4.582   2.344   2.538
21353WAT     H264302   4.445   2.384   2.616
21354WAT      O64303   2.903   6.170   3.067
21354WAT     H164304   2.823   6.226   3.085
21354WAT     H264305   2.875   6.082   3.029
21355WAT      O64306   9.516   8.887   6.209
21355WAT     H164307   9.492   8.790   6.206
21355WAT     H264308   9.573   8.909   6.130
21356WAT      O64309   3.737   1.977   3.286
21356WAT     H164310   3.652   1.952   3.239
21356WAT     H264311   3.730   1.950   3.383
21357WAT      O64312   7.155   7.825   3.423
21357WAT     H164313   7.207   7.744   3.449
21357WAT     H264314   7.143   7.884   3.503
21358WAT      O64315   5.822   6.153   4.122
21358WAT     H164316   5.774   6.124   4.039
21358WAT     H264317   5.755   6.184   4.190
21359WAT      O64318   5.465   7.718   8.503
21359WAT     H164319   5.384   7.776   8.509
21359WAT     H264320   5.466   7.654   8.580
21360WAT      O64321   3.747   7.454   0.161
21360WAT     H164322   3.810   7.379   0.138
21360WAT     H264323   3.653   7.422   0.155
21361WAT      O64324   9.749   5.948   7.779
21361WAT     H164325   9.776   6.029   7.831
21361WAT     H264326   9.717   5.975   7.689
21362WAT      O64327   7.235   2.429   4.473
21362WAT     H164328   7.330   2.451   4.453
21362WAT     H264329   7.175   2.501   4.438
21363WAT      O64330   2.751   4.948   6.033
21363WAT     H164331   2.702   5.034   6.052
21363WAT     H264332   2.721   4.912   5.945
21364WAT      O64333   1.419   3.150   0.511
21364WAT     H164334   1.430   3.088   0.434
21364WAT     H264335   1.351   3.112   0.574
21365WAT      O64336   7.482   9.091   7.881
21365WAT     H164337   7.579   9.109   7.894
21365WAT     H264338   7.469   8.997   7.849
21366WAT      O64339   0.166   0.848   1.348
21366WAT     H164340   0.175   0.831   1.250
21366WAT     H264341   0.105   0.781   1.389
21367WAT      O64342   3.999   8.487   4.971
21367WAT     H164343   4.087   8.441   4.986
21367WAT     H264344   3.990   8.512   4.874
21368WAT      O64345   5.695   7.967   8.084
21368WAT     H164346   5.780   7.952   8.033
21368WAT     H264347   5.717   7.993   8.178
21369WAT      O64348   9.341   1.651   6.810
21369WAT     H164349   9.321   1.704   6.893
21369WAT     H264350   9.422   1.689   6.764
21370WAT      O64351   5.517   1.339   4.183
21370WAT     H164352   5.497   1.374   4.091
21370WAT     H264353   5.578   1.261   4.176
21371WAT      O64354   7.969   0.709   2.189
21371WAT     H164355   7.989   0.652   2.109
21371WAT     H264356   7.906   0.781   2.163
21372WAT      O64357   9.230   1.531   0.403
21372WAT     H164358   9.309   1.590   0.388
21372WAT     H264359   9.221   1.511   0.501
21373WAT      O64360   0.873   8.982   7.257
21373WAT     H164361   0.796   9.003   7.317
21373WAT     H264362   0.927   9.065   7.241
21374WAT      O64363   3.314   3.313   9.822
21374WAT     H164364   3.266   3.228   9.799
21374WAT     H264365   3.268   3.390   9.779
21375WAT      O64366   8.887   5.117   8.054
21375WAT     H164367   8.981   5.099   8.082
21375WAT     H264368   8.824   5.084   8.125
21376WAT      O64369   2.760   9.258   2.385
21376WAT     H164370   2.714   9.173   2.410
21376WAT     H264371   2.693   9.325   2.354
21377WAT      O64372   8.395   2.068   4.044
21377WAT     H164373   8.414   2.166   4.051
21377WAT     H264374   8.297   2.052   4.050
21378WAT      O64375   3.467   1.523   2.903
21378WAT     H164376   3.425   1.611   2.881
21378WAT     H264377   3.532   1.536   2.977
21379WAT      O64378   6.129   4.955   6.413
21379WAT     H164379   6.176   4.938   6.500
21379WAT     H264380   6.032   4.936   6.424
21380WAT      O64381   0.186   2.183   2.386
21380WAT     H164382   0.087   2.196   2.393
21380WAT     H264383   0.210   2.154   2.294
21381WAT      O64384   1.501   8.281   9.588
21381WAT     H164385   1.489   8.198   9.534
21381WAT     H264386   1.579   8.270   9.649
21382WAT      O64387   9.401   0.465   0.753
21382WAT     H164388   9.465   0.397   0.718
21382WAT     H264389   9.452   0.543   0.789
21383WAT      O64390   6.075   3.575   9.127
21383WAT     H164391   5.977   3.586   9.145
21383WAT     H264392   6.089   3.506   9.055
21384WAT      O64393   6.161   0.450   2.252
21384WAT     H164394   6.187   0.492   2.165
21384WAT     H264395   6.074   0.402   2.242
21385WAT      O64396   7.321   8.241   4.774
21385WAT     H164397   7.256   8.177   4.815
21385WAT     H264398   7.402   8.191   4.744
21386WAT      O64399   0.980   3.319   6.291
21386WAT     H164400   1.023   3.403   6.259
21386WAT     H264401   0.962   3.327   6.389
21387WAT      O64402   1.260   6.083   7.419
21387WAT     H164403   1.318   6.062   7.341
21387WAT     H264404   1.236   6.180   7.418
21388WAT      O64405   2.164   6.666   3.585
21388WAT     H164406   2.225   6.735   3.547
21388WAT     H264407   2.146   6.687   3.681
21389WAT      O64408   2.545   9.102   8.020
21389WAT     H164409   2.467   9.110   7.959
21389WAT     H264410   2.630   9.101   7.967
21390WAT      O64411   2.708   1.917   3.408
21390WAT     H164412   2.645   1.850   3.370
21390WAT     H264413   2.667   2.008   3.405
21391WAT      O64414   1.584   7.438   0.677
21391WAT     H164415   1.490   7.462   0.701
21391WAT     H264416   1.585   7.392   0.588
21392WAT      O64417   9.304   2.339   4.380
21392WAT     H164418   9.330   2.274   4.308
21392WAT     H264419   9.383   2.356   4.440
21393WAT      O64420   7.641   5.443   5.232
21393WAT     H164421   7.657   5.455   5.134
21393WAT     H264422   7.724   5.411   5.277
21394WAT      O64423   1.633   9.223   6.014
21394WAT     H164424   1.597   9.239   5.922
21394WAT     H264425   1.702   9.292   6.036
21395WAT      O64426   2.662   8.738   4.172
21395WAT     H164427   2.727   8.813   4.183
21395WAT     H264428   2.572   8.775   4.152
21396WAT      O64429   8.255   3.878   0.210
21396WAT     H164430   8.266   3.951   0.143
21396WAT     H264431   8.287   3.791   0.171
21397WAT      O64432   4.836   4.831   2.011
21397WAT     H164433   4.844   4.762   2.082
21397WAT     H264434   4.752   4.817   1.959
21398WAT      O64435   7.178   9.450   5.425
21398WAT     H164436   7.151   9.358   5.398
21398WAT     H264437   7.152   9.465   5.521
21399WAT      O64438   4.391   2.526   3.974
21399WAT     H164439   4.433   2.468   3.904
21399WAT     H264440   4.294   2.537   3.954
21400WAT      O64441   7.680   1.070   1.094
21400WAT     H164442   7.662   0.986   1.043
21400WAT     H264443   7.689   1.147   1.030
21401WAT      O64444   8.457   6.598   1.515
21401WAT     H164445   8.546   6.573   1.554
21401WAT     H264446   8.423   6.680   1.559
21402WAT      O64447   2.393   0.749   3.067
21402WAT     H164448   2.298   0.745   3.037
21402WAT     H264449   2.400   0.805   3.150
21403WAT      O64450   4.069   1.329   0.473
21403WAT     H164451   4.042   1.400   0.538
21403WAT     H264452   4.168   1.333   0.458
21404WAT      O64453   8.496   0.968   9.823
21404WAT     H164454   8.414   1.008   9.781
21404WAT     H264455   8.492   0.869   9.814
21405WAT      O64456   8.902   3.354   0.429
21405WAT     H164457   8.980   3.418   0.436
21405WAT     H264458   8.824   3.402   0.390
21406WAT      O64459   3.946   9.604   6.713
21406WAT     H164460   3.869   9.603   6.776
21406WAT     H264461   3.961   9.512   6.676
21407WAT      O64462   9.799   0.048   9.236
21407WAT     H164463   9.781   0.147   9.231
21407WAT     H264464   9.883   0.032   9.288
21408WAT      O64465   7.310   3.974   3.420
21408WAT     H164466   7.318   4.044   3.348
21408WAT     H264467   7.226   3.923   3.407
21409WAT      O64468   5.259   3.771   4.833
21409WAT     H164469   5.349   3.803   4.801
21409WAT     H264470   5.244   3.803   4.926
21410WAT      O64471   2.703   5.278   0.107
21410WAT     H164472   2.684   5.372   0.137
21410WAT     H264473   2.640   5.253   0.033
21411WAT      O64474   9.043   7.676   7.225
21411WAT     H164475   9.005   7.703   7.313
21411WAT     H264476   9.119   7.737   7.201
21412WAT      O64477   5.930   9.675   8.445
21412WAT     H164478   5.843   9.652   8.487
21412WAT     H264479   6.002   9.676   8.514
21413WAT      O64480   9.297   7.443   1.582
21413WAT     H164481   9.354   7.379   1.531
21413WAT     H264482   9.216   7.396   1.616
21414WAT      O64483   8.307   8.225   4.529
21414WAT     H164484   8.228   8.192   4.476
21414WAT     H264485   8.390   8.183   4.494
21415WAT      O64486   8.313   1.539   3.249
21415WAT     H164487   8.221   1.539   3.210
21415WAT     H264488   8.330   1.627   3.293
21416WAT      O64489   7.235   8.306   4.188
21416WAT     H164490   7.185   8.378   4.235
21416WAT     H264491   7.172   8.233   4.161
21417WAT      O64492   6.447   8.868   3.741
21417WAT     H164493   6.379   8.829   3.803
21417WAT     H264494   6.460   8.805   3.664
21418WAT      O64495   8.618   7.228   7.093
21418WAT     H164496   8.712   7.258   7.079
21418WAT     H264497   8.598   7.224   7.191
21419WAT      O64498   2.773   2.426   3.487
21419WAT     H164499   2.750   2.427   3.584
21419WAT     H264500   2.855   2.480   3.471
21420WAT      O64501   0.361   8.994   0.585
21420WAT     H164502   0.371   9.073   0.645
21420WAT     H264503   0.276   8.946   0.607
21421WAT      O64504   6.058   6.624   3.819
21421WAT     H164505   6.048   6.545   3.879
21421WAT     H264506   6.037   6.708   3.870
21422WAT      O64507   0.256   9.082   8.530
21422WAT     H164508   0.256   9.090   8.630
21422WAT     H264509   0.338   9.125   8.494
21423WAT      O64510   6.570   2.760   1.924
21423WAT     H164511   6.647   2.700   1.901
21423WAT     H264512   6.564   2.834   1.856
21424WAT      O64513   5.521   6.689   7.097
21424WAT     H164514   5.536   6.623   7.170
21424WAT     H264515   5.424   6.714   7.093
21425WAT      O64516   7.197   5.551   1.728
21425WAT     H164517   7.200   5.649   1.711
21425WAT     H264518   7.103   5.518   1.716
21426WAT      O64519   3.483   9.133   8.613
21426WAT     H164520   3.457   9.105   8.705
21426WAT     H264521   3.476   9.233   8.605
21427WAT      O64522   6.320   5.392   0.944
21427WAT     H164523   6.324   5.486   0.980
21427WAT     H264524   6.396   5.378   0.881
21428WAT      O64525   8.951   2.261   1.366
21428WAT     H164526   8.990   2.170   1.350
21428WAT     H264527   8.855   2.261   1.341
21429WAT      O64528   3.838   2.754   3.997
21429WAT     H164529   3.783   2.671   3.994
21429WAT     H264530   3.903   2.749   4.074
21430WAT      O64531   7.075   4.361   3.678
21430WAT     H164532   7.149   4.293   3.670
21430WAT     H264533   7.090   4.434   3.611
21431WAT      O64534   5.562   6.050   8.046
21431WAT     H164535   5.584   5.960   8.083
21431WAT     H264536   5.488   6.041   7.979
21432WAT      O64537   9.347   0.090   9.679
21432WAT     H164538   9.399   0.111   9.762
21432WAT     H264539   9.274   0.157   9.667
21433WAT      O64540   6.282   9.594   0.989
21433WAT     H164541   6.320   9.671   0.938
21433WAT     H264542   6.183   9.603   0.994
21434WAT      O64543   5.527   0.948   2.538
21434WAT     H164544   5.427   0.955   2.540
21434WAT     H264545   5.559   0.947   2.443
21435WAT      O64546   8.826   9.677   3.497
21435WAT     H164547   8.924   9.684   3.515
21435WAT     H264548   8.775   9.715   3.574
21436WAT      O64549   9.311   9.827   2.987
21436WAT     H164550   9.257   9.882   3.052
21436WAT     H264551   9.251   9.761   2.942
21437WAT      O64552   6.615   5.133   5.136
21437WAT     H164553   6.711   5.149   5.116
21437WAT     H264554   6.605   5.101   5.230
21438WAT      O64555   8.082   6.760   3.338
21438WAT     H164556   8.178   6.788   3.345
21438WAT     H264557   8.076   6.673   3.289
21439WAT      O64558   8.782   9.765   2.767
21439WAT     H164559   8.803   9.838   2.702
21439WAT     H264560   8.830   9.681   2.739
21440WAT      O64561   2.055   7.752   8.965
21440WAT     H164562   2.028   7.817   8.894
21440WAT     H264563   2.004   7.666   8.953
21441WAT      O64564   1.928   3.503   9.191
21441WAT     H164565   1.898   3.518   9.097
21441WAT     H264566   2.000   3.434   9.193
21442WAT      O64567   0.788   8.863   0.331
21442WAT     H164568   0.746   8.813   0.256
21442WAT     H264569   0.887   8.867   0.318
21443WAT      O64570   2.426   7.287   1.219
21443WAT     H164571   2.457   7.204   1.266
21443WAT     H264572   2.486   7.305   1.141
21444WAT      O64573   8.650   5.825   8.487
21444WAT     H164574   8.605   5.905   8.528
21444WAT     H264575   8.661   5.754   8.556
21445WAT      O64576   8.582   3.415   1.530
21445WAT     H164577   8.653   3.483   1.512
21445WAT     H264578   8.593   3.338   1.468
21446WAT      O64579   0.820   9.416   5.822
21446WAT     H164580   0.742   9.477   5.834
21446WAT     H264581   0.904   9.464   5.848
21447WAT      O64582   4.763   6.785   4.376
21447WAT     H164583   4.775   6.860   4.310
21447WAT     H264584   4.843   6.779   4.435
21448WAT      O64585   8.428   9.167   8.553
21448WAT     H164586   8.392   9.100   8.618
21448WAT     H264587   8.353   9.223   8.517
21449WAT      O64588   2.605   8.394   4.963
21449WAT     H164589   2.685   8.341   4.936
21449WAT     H264590   2.628   8.491   4.962
21450WAT      O64591   7.255   2.125   2.257
21450WAT     H164592   7.307   2.083   2.183
21450WAT     H264593   7.224   2.216   2.229
21451WAT      O64594   2.901   0.530   7.390
21451WAT     H164595   2.814   0.481   7.388
21451WAT     H264596   2.902   0.599   7.318
21452WAT      O64597   1.795   8.868   0.187
21452WAT     H164598   1.831   8.842   0.276
21452WAT     H264599   1.833   8.957   0.161
21453WAT      O64600   4.055   9.604   8.135
21453WAT     H164601   4.014   9.539   8.199
21453WAT     H264602   4.111   9.669   8.186
21454WAT      O64603   5.806   2.549   4.084
21454WAT     H164604   5.805   2.519   3.989
21454WAT     H264605   5.856   2.483   4.140
21455WAT      O64606   5.787   8.870   7.564
21455WAT     H164607   5.730   8.930   7.508
21455WAT     H264608   5.791   8.906   7.657
21456WAT      O64609   1.071   8.229   1.355
21456WAT     H164610   1.078   8.328   1.350
21456WAT     H264611   1.087   8.200   1.450
21457WAT      O64612   1.205   1.607   2.638
21457WAT     H164613   1.274   1.586   2.568
21457WAT     H264614   1.176   1.522   2.682
21458WAT      O64615   9.793   6.708   5.657
21458WAT     H164616   9.814   6.725   5.753
21458WAT     H264617   9.844   6.627   5.626
21459WAT      O64618   5.688   1.961   4.557
21459WAT     H164619   5.646   1.986   4.645
21459WAT     H264620   5.719   1.866   4.561
21460WAT      O64621   7.076   6.374   6.696
21460WAT     H164622   6.990   6.394   6.648
21460WAT     H264623   7.148   6.357   6.630
21461WAT      O64624   7.038   4.732   3.374
21461WAT     H164625   6.944   4.750   3.403
21461WAT     H264626   7.074   4.653   3.422
21462WAT      O64627   5.059   2.143   8.317
21462WAT     H164628   5.076   2.146   8.218
21462WAT     H264629   5.022   2.231   8.346
21463WAT      O64630   9.628   9.648   7.034
21463WAT     H164631   9.626   9.571   7.098
21463WAT     H264632   9.570   9.626   6.955
21464WAT      O64633   4.571   3.687   1.555
21464WAT     H164634   4.562   3.600   1.604
21464WAT     H264635   4.645   3.740   1.596
21465WAT      O64636   7.705   5.397   2.415
21465WAT     H164637   7.665   5.369   2.502
21465WAT     H264638   7.640   5.457   2.367
21466WAT      O64639   9.760   5.628   2.996
21466WAT     H164640   9.808   5.618   3.084
21466WAT     H264641   9.816   5.682   2.934
21467WAT      O64642   7.599   6.788   0.178
21467WAT     H164643   7.584   6.695   0.145
21467WAT     H264644   7.528   6.848   0.142
21468WAT      O64645   6.678   7.702   9.788
21468WAT     H164646   6.645   7.608   9.787
21468WAT     H264647   6.672   7.739   9.880
21469WAT      O64648   9.103   2.526   4.653
21469WAT     H164649   9.166   2.589   4.607
21469WAT     H264650   9.126   2.522   4.750
21470WAT      O64651   7.240   4.191   7.272
21470WAT     H164652   7.175   4.188   7.196
21470WAT     H264653   7.205   4.136   7.348
21471WAT      O64654   6.942   8.876   5.290
21471WAT     H164655   7.040   8.856   5.280
21471WAT     H264656   6.903   8.895   5.200
21472WAT      O64657   0.519   5.777   3.034
21472WAT     H164658   0.478   5.759   3.124
21472WAT     H264659   0.459   5.740   2.963
21473WAT      O64660   4.998   7.120   2.263
21473WAT     H164661   4.910   7.139   2.305
21473WAT     H264662   5.029   7.202   2.214
21474WAT      O64663   1.516   4.393   5.731
21474WAT     H164664   1.475   4.450   5.802
21474WAT     H264665   1.490   4.297   5.746
21475WAT      O64666   5.214   8.202   3.590
21475WAT     H164667   5.262   8.117   3.611
21475WAT     H264668   5.129   8.181   3.543
21476WAT      O64669   5.320   7.623   2.487
21476WAT     H164670   5.416   7.598   2.502
21476WAT     H264671   5.304   7.631   2.389
21477WAT      O64672   1.002   9.229   9.389
21477WAT     H164673   0.940   9.264   9.460
21477WAT     H264674   1.015   9.299   9.319
21478WAT      O64675   0.022   8.327   3.007
21478WAT     H164676   0.090   8.276   2.954
21478WAT     H264677  -0.012   8.404   2.954
21479WAT      O64678   4.073   3.541   2.982
21479WAT     H164679   4.163   3.579   2.960
21479WAT     H264680   4.003   3.589   2.930
21480WAT      O64681   8.675   1.998   4.281
21480WAT     H164682   8.627   2.085   4.292
21480WAT     H264683   8.675   1.948   4.368
21481WAT      O64684   3.495   9.777   6.615
21481WAT     H164685   3.552   9.755   6.536
21481WAT     H264686   3.490   9.698   6.676
21482WAT      O64687   4.885   6.293   7.987
21482WAT     H164688   4.879   6.391   8.000
21482WAT     H264689   4.965   6.257   8.036
21483WAT      O64690   3.126   1.892   0.767
21483WAT     H164691   3.185   1.812   0.782
21483WAT     H264692   3.032   1.861   0.752
21484WAT      O64693   7.255   2.268   4.231
21484WAT     H164694   7.255   2.303   4.325
21484WAT     H264695   7.257   2.168   4.233
21485WAT      O64696   4.102   6.278   7.999
21485WAT     H164697   4.183   6.278   7.940
21485WAT     H264698   4.030   6.223   7.956
21486WAT      O64699   3.815   8.885   6.752
21486WAT     H164700   3.821   8.903   6.850
21486WAT     H264701   3.892   8.929   6.706
21487WAT      O64702   8.904   7.317   1.983
21487WAT     H164703   8.854   7.243   1.938
21487WAT     H264704   8.967   7.278   2.051
21488WAT      O64705   3.610   1.302   8.909
21488WAT     H164706   3.685   1.263   8.963
21488WAT     H264707   3.606   1.400   8.924
21489WAT      O64708   4.839   5.700   0.024
21489WAT     H164709   4.848   5.769  -0.048
21489WAT     H264710   4.782   5.736   0.098
21490WAT      O64711   9.484   6.721   7.961
21490WAT     H164712   9.557   6.709   8.029
21490WAT     H264713   9.498   6.657   7.885
21491WAT      O64714   0.906   8.142   1.941
21491WAT     H164715   0.889   8.220   1.880
21491WAT     H264716   0.949   8.174   2.025
21492WAT      O64717   3.938   3.156   3.414
21492WAT     H164718   3.909   3.069   3.374
21492WAT     H264719   3.903   3.231   3.357
21493WAT      O64720   2.116   4.755   8.369
21493WAT     H164721   2.094   4.846   8.336
21493WAT     H264722   2.194   4.760   8.431
21494WAT      O64723   2.139   3.095   2.297
21494WAT     H164724   2.122   3.101   2.395
21494WAT     H264725   2.146   3.187   2.258
21495WAT      O64726   1.358   6.035   0.751
21495WAT     H164727   1.357   5.981   0.667
21495WAT     H264728   1.440   6.014   0.804
21496WAT      O64729   2.798   1.131   3.368
21496WAT     H164730   2.869   1.182   3.416
21496WAT     H264731   2.830   1.038   3.352
21497WAT      O64732   3.544   3.398   3.349
21497WAT     H164733   3.446   3.410   3.338
21497WAT     H264734   3.570   3.415   3.444
21498WAT      O64735   1.332   8.571   8.432
21498WAT     H164736   1.263   8.499   8.430
21498WAT     H264737   1.381   8.567   8.519
21499WAT      O64738   1.796   5.030   4.459
21499WAT     H164739   1.891   5.057   4.443
21499WAT     H264740   1.774   4.950   4.403
21500WAT      O64741   9.009   4.515   8.707
21500WAT     H164742   9.098   4.561   8.716
21500WAT     H264743   8.983   4.477   8.796
21501WAT      O64744   7.910   0.703   4.106
21501WAT     H164745   7.861   0.777   4.060
21501WAT     H264746   7.896   0.618   4.055
21502WAT      O64747   0.683   1.092   7.769
21502WAT     H164748   0.720   1.000   7.758
21502WAT     H264749   0.631   1.116   7.686
21503WAT      O64750   1.065   5.711   0.090
21503WAT     H164751   0.972   5.738   0.112
21503WAT     H264752   1.069   5.676  -0.003
21504WAT      O64753   4.203   4.984   1.942
21504WAT     H164754   4.225   5.069   1.893
21504WAT     H264755   4.125   4.999   2.002
21505WAT      O64756   6.624   6.549   0.503
21505WAT     H164757   6.670   6.488   0.438
21505WAT     H264758   6.666   6.639   0.500
21506WAT      O64759   0.990   8.673   3.175
21506WAT     H164760   1.013   8.763   3.212
21506WAT     H264761   0.938   8.685   3.090
21507WAT      O64762   4.021   3.853   7.455
21507WAT     H164763   3.922   3.839   7.449
21507WAT     H264764   4.067   3.793   7.391
21508WAT      O64765   6.659   0.478   3.157
21508WAT     H164766   6.634   0.530   3.075
21508WAT     H264767   6.577   0.454   3.208
21509WAT      O64768   0.662   4.431   8.898
21509WAT     H164769   0.748   4.423   8.948
21509WAT     H264770   0.589   4.387   8.951
21510WAT      O64771   5.141   7.980   5.569
21510WAT     H164772   5.123   7.888   5.532
21510WAT     H264773   5.082   7.996   5.648
21511WAT      O64774   0.805   3.743   6.469
21511WAT     H164775   0.706   3.756   6.458
21511WAT     H264776   0.822   3.684   6.547
21512WAT      O64777   0.554   2.227   6.431
21512WAT     H164778   0.503   2.157   6.380
21512WAT     H264779   0.644   2.239   6.389
21513WAT      O64780   7.995   9.069   7.212
21513WAT     H164781   7.905   9.053   7.253
21513WAT     H264782   8.011   9.167   7.204
21514WAT      O64783   4.503   9.728   5.181
21514WAT     H164784   4.542   9.637   5.167
21514WAT     H264785   4.434   9.746   5.112
21515WAT      O64786   3.344   9.646   9.128
21515WAT     H164787   3.296   9.618   9.211
21515WAT     H264788   3.428   9.592   9.118
21516WAT      O64789   3.758   7.568   8.868
21516WAT     H164790   3.717   7.623   8.795
21516WAT     H264791   3.698   7.491   8.889
21517WAT      O64792   7.474   5.588   6.429
21517WAT     H164793   7.522   5.653   6.487
21517WAT     H264794   7.435   5.636   6.350
21518WAT      O64795   0.281   3.281   0.512
21518WAT     H164796   0.369   3.251   0.548
21518WAT     H264797   0.296   3.339   0.431
21519WAT      O64798   5.060   8.609   2.768
21519WAT     H164799   5.135   8.544   2.762
21519WAT     H264800   4.978   8.570   2.725
21520WAT      O64801   0.840   8.758   1.034
21520WAT     H164802   0.878   8.794   1.119
21520WAT     H264803   0.777   8.683   1.054
21521WAT      O64804   1.148   4.468   6.690
21521WAT     H164805   1.091   4.480   6.608
21521WAT     H264806   1.231   4.523   6.680
21522WAT      O64807   1.327   4.646   0.725
21522WAT     H164808   1.287   4.655   0.634
21522WAT     H264809   1.282   4.570   0.774
21523WAT      O64810   9.790   9.185   6.258
21523WAT     H164811   9.871   9.227   6.217
21523WAT     H264812   9.804   9.087   6.265
21524WAT      O64813   6.765   5.507   0.463
21524WAT     H164814   6.844   5.460   0.424
21524WAT     H264815   6.737   5.581   0.402
21525WAT      O64816   7.304   1.000   9.378
21525WAT     H164817   7.382   0.952   9.418
21525WAT     H264818   7.259   1.054   9.449
21526WAT      O64819   7.225   4.745   2.683
21526WAT     H164820   7.305   4.729   2.625
21526WAT     H264821   7.227   4.839   2.717
21527WAT      O64822   8.902   5.107   3.205
21527WAT     H164823   8.865   5.185   3.256
21527WAT     H264824   8.976   5.066   3.258
21528WAT      O64825   6.628   4.101   1.443
21528WAT     H164826   6.566   4.030   1.478
21528WAT     H264827   6.672   4.147   1.520
21529WAT      O64828   6.086   5.861   7.046
21529WAT     H164829   6.145   5.883   6.968
21529WAT     H264830   6.143   5.837   7.125
21530WAT      O64831   0.463   5.548   4.197
21530WAT     H164832   0.395   5.482   4.229
21530WAT     H264833   0.506   5.513   4.114
21531WAT      O64834   7.611   1.819   4.007
21531WAT     H164835   7.513   1.799   4.009
21531WAT     H264836   7.625   1.917   3.992
21532WAT      O64837   8.776   6.799   3.388
21532WAT     H164838   8.859   6.812   3.442
21532WAT     H264839   8.697   6.828   3.442
21533WAT      O64840   6.326   8.312   2.517
21533WAT     H164841   6.329   8.337   2.613
21533WAT     H264842   6.342   8.214   2.507
21534WAT      O64843   3.595   3.481   0.014
21534WAT     H164844   3.606   3.424  -0.068
21534WAT     H264845   3.520   3.546  -0.001
21535WAT      O64846   5.209   7.572  -0.003
21535WAT     H164847   5.196   7.608   0.089
21535WAT     H264848   5.268   7.491   0.001
21536WAT      O64849   7.415   0.370   2.622
21536WAT     H164850   7.356   0.394   2.699
21536WAT     H264851   7.465   0.451   2.592
21537WAT      O64852   5.278   2.903   5.704
21537WAT     H164853   5.197   2.867   5.659
21537WAT     H264854   5.345   2.830   5.717
21538WAT      O64855   3.827   3.779   6.485
21538WAT     H164856   3.921   3.811   6.472
21538WAT     H264857   3.785   3.764   6.396
21539WAT      O64858   3.246   2.816   5.633
21539WAT     H164859   3.286   2.789   5.721
21539WAT     H264860   3.147   2.801   5.637
21540WAT      O64861   7.381   1.203   2.673
21540WAT     H164862   7.441   1.140   2.624
21540WAT     H264863   7.371   1.173   2.768
21541WAT      O64864   2.391   7.317   5.567
21541WAT     H164865   2.352   7.244   5.624
21541WAT     H264866   2.431   7.387   5.625
21542WAT      O64867   0.659   4.745   8.579
21542WAT     H164868   0.710   4.828   8.602
21542WAT     H264869   0.608   4.714   8.659
21543WAT      O64870   7.918   3.095   7.968
21543WAT     H164871   7.862   3.013   7.956
21543WAT     H264872   7.939   3.107   8.065
21544WAT      O64873   2.006   7.912   8.752
21544WAT     H164874   2.003   7.877   8.659
21544WAT     H264875   2.058   7.998   8.755
21545WAT      O64876   7.419   4.577   0.881
21545WAT     H164877   7.446   4.667   0.845
21545WAT     H264878   7.443   4.507   0.814
21546WAT      O64879   4.915   1.422   3.323
21546WAT     H164880   4.884   1.449   3.414
21546WAT     H264881   4.966   1.337   3.329
21547WAT      O64882   4.607   7.448   2.965
21547WAT     H164883   4.665   7.446   2.883
21547WAT     H264884   4.520   7.404   2.947
21548WAT      O64885   3.828   0.316   0.662
21548WAT     H164886   3.811   0.255   0.585
21548WAT     H264887   3.833   0.410   0.629
21549WAT      O64888   6.504   3.104   1.134
21549WAT     H164889   6.534   3.195   1.164
21549WAT     H264890   6.470   3.109   1.040
21550WAT      O64891   8.320   2.654   8.732
21550WAT     H164892   8.380   2.728   8.703
21550WAT     H264893   8.360   2.608   8.811
21551WAT      O64894   8.001   2.006   1.941
21551WAT     H164895   8.006   1.930   2.006
21551WAT     H264896   7.998   2.092   1.991
21552WAT      O64897   5.825   0.723   6.762
21552WAT     H164898   5.817   0.697   6.665
21552WAT     H264899   5.736   0.753   6.796
21553WAT      O64900   7.042   6.492   5.851
21553WAT     H164901   7.103   6.572   5.851
21553WAT     H264902   7.034   6.457   5.757
21554WAT      O64903   4.309   9.296   5.837
21554WAT     H164904   4.261   9.356   5.901
21554WAT     H264905   4.341   9.350   5.759
21555WAT      O64906   4.647   3.142   1.172
21555WAT     H164907   4.593   3.219   1.207
21555WAT     H264908   4.591   3.060   1.170
21556WAT      O64909   5.198   9.211   2.228
21556WAT     H164910   5.169   9.258   2.311
21556WAT     H264911   5.172   9.264   2.148
21557WAT      O64912   7.754   6.082   4.149
21557WAT     H164913   7.758   5.987   4.179
21557WAT     H264914   7.840   6.128   4.171
21558WAT      O64915   3.716   1.793   5.493
21558WAT     H164916   3.689   1.713   5.547
21558WAT     H264917   3.702   1.773   5.396
21559WAT      O64918   8.590   9.441   0.538
21559WAT     H164919   8.562   9.520   0.482
21559WAT     H264920   8.668   9.396   0.495
21560WAT      O64921   2.707   6.570   8.179
21560WAT     H164922   2.712   6.547   8.277
21560WAT     H264923   2.738   6.492   8.125
21561WAT      O64924   9.123   0.765   3.347
21561WAT     H164925   9.048   0.816   3.389
21561WAT     H264926   9.208   0.818   3.353
21562WAT      O64927   9.611   4.075   4.464
21562WAT     H164928   9.711   4.077   4.455
21562WAT     H264929   9.570   4.101   4.376
21563WAT      O64930   4.467   6.074   0.287
21563WAT     H164931   4.559   6.050   0.254
21563WAT     H264932   4.446   6.023   0.370
21564WAT      O64933   8.691   8.536   7.837
21564WAT     H164934   8.679   8.439   7.819
21564WAT     H264935   8.655   8.589   7.760
21565WAT      O64936   1.679   9.075   7.912
21565WAT     H164937   1.583   9.102   7.905
21565WAT     H264938   1.718   9.064   7.821
21566WAT      O64939   8.450   2.161   1.093
21566WAT     H164940   8.367   2.211   1.119
21566WAT     H264941   8.427   2.093   1.023
21567WAT      O64942   0.486   2.728   2.404
21567WAT     H164943   0.426   2.803   2.434
21567WAT     H264944   0.431   2.646   2.390
21568WAT      O64945   7.969   1.553   7.292
21568WAT     H164946   7.890   1.610   7.314
21568WAT     H264947   8.047   1.580   7.348
21569WAT      O64948   2.335   7.913   8.335
21569WAT     H164949   2.336   7.955   8.426
21569WAT     H264950   2.403   7.840   8.331
21570WAT      O64951   3.653   2.977   1.655
21570WAT     H164952   3.581   2.993   1.722
21570WAT     H264953   3.622   3.007   1.565
21571WAT      O64954   2.567   1.742   8.521
21571WAT     H164955   2.630   1.699   8.585
21571WAT     H264956   2.550   1.681   8.444
21572WAT      O64957   5.540   8.913   1.900
21572WAT     H164958   5.628   8.960   1.896
21572WAT     H264959   5.535   8.846   1.826
21573WAT      O64960   4.618   6.947   4.711
21573WAT     H164961   4.671   6.866   4.737
21573WAT     H264962   4.521   6.924   4.709
21574WAT      O64963   3.248   7.992   9.080
21574WAT     H164964   3.241   7.979   9.179
21574WAT     H264965   3.343   7.987   9.051
21575WAT      O64966   2.084   2.184   0.080
21575WAT     H164967   2.118   2.090   0.076
21575WAT     H264968   2.002   2.193   0.023
21576WAT      O64969   3.253   6.336   8.179
21576WAT     H164970   3.285   6.277   8.104
21576WAT     H264971   3.172   6.386   8.149
21577WAT      O64972   9.825   3.024   4.777
21577WAT     H164973   9.847   3.014   4.874
21577WAT     H264974   9.903   2.995   4.721
21578WAT      O64975   8.753   5.455   6.281
21578WAT     H164976   8.732   5.515   6.358
21578WAT     H264977   8.778   5.510   6.201
21579WAT      O64978   1.727   5.632   0.544
21579WAT     H164979   1.773   5.720   0.551
21579WAT     H264980   1.631   5.642   0.570
21580WAT      O64981   9.808   3.659   9.855
21580WAT     H164982   9.711   3.680   9.841
21580WAT     H264983   9.835   3.584   9.794
21581WAT      O64984   5.944   7.199   8.398
21581WAT     H164985   5.992   7.281   8.367
21581WAT     H264986   5.858   7.189   8.347
21582WAT      O64987   3.086   0.283   4.150
21582WAT     H164988   3.028   0.246   4.223
21582WAT     H264989   3.055   0.375   4.126
21583WAT      O64990   4.104   7.054   2.295
21583WAT     H164991   4.071   6.980   2.236
21583WAT     H264992   4.188   7.092   2.256
21584WAT      O64993   2.839   8.739   5.170
21584WAT     H164994   2.796   8.659   5.213
21584WAT     H264995   2.912   8.708   5.109
21585WAT      O64996   7.103   8.001   7.296
21585WAT     H164997   7.172   7.964   7.233
21585WAT     H264998   7.081   7.933   7.366
21586WAT      O64999   6.975   4.826   8.851
21586WAT     H165000   6.928   4.914   8.856
21586WAT     H265001   7.053   4.826   8.914
21587WAT      O65002   3.131   6.836   5.663
21587WAT     H165003   3.165   6.782   5.740
21587WAT     H265004   3.127   6.933   5.690
21588WAT      O65005   5.132   2.458   3.593
21588WAT     H165006   5.138   2.359   3.596
21588WAT     H265007   5.204   2.494   3.532
21589WAT      O65008   0.827   8.348   3.856
21589WAT     H165009   0.795   8.255   3.843
21589WAT     H265010   0.832   8.369   3.954
21590WAT      O65011   8.712   3.321   7.950
21590WAT     H165012   8.787   3.255   7.941
21590WAT     H265013   8.680   3.347   7.859
21591WAT      O65014   5.426   5.474   1.954
21591WAT     H165015   5.364   5.466   2.032
21591WAT     H265016   5.387   5.427   1.875
21592WAT      O65017   7.278   3.666   4.214
21592WAT     H165018   7.269   3.634   4.309
21592WAT     H265019   7.200   3.633   4.161
21593WAT      O65020   3.159   6.032   4.814
21593WAT     H165021   3.090   5.959   4.813
21593WAT     H265022   3.213   6.028   4.730
21594WAT      O65023   7.628   3.486   7.195
21594WAT     H165024   7.671   3.576   7.200
21594WAT     H265025   7.612   3.451   7.288
21595WAT      O65026   7.991   9.141   8.515
21595WAT     H165027   8.078   9.186   8.496
21595WAT     H265028   7.932   9.145   8.434
21596WAT      O65029   3.076   0.668   1.063
21596WAT     H165030   3.066   0.695   1.159
21596WAT     H265031   3.020   0.586   1.046
21597WAT      O65032   2.007   1.305   0.136
21597WAT     H165033   1.998   1.339   0.229
21597WAT     H265034   2.095   1.258   0.126
21598WAT      O65035   7.868   3.774   0.209
21598WAT     H165036   7.810   3.730   0.277
21598WAT     H265037   7.940   3.827   0.256
21599WAT      O65038   0.623   0.472   9.328
21599WAT     H165039   0.614   0.526   9.411
21599WAT     H265040   0.599   0.377   9.346
21600WAT      O65041   6.835   1.083   8.876
21600WAT     H165042   6.826   1.132   8.789
21600WAT     H265043   6.745   1.071   8.917
21601WAT      O65044   7.888   7.688   2.876
21601WAT     H165045   7.891   7.771   2.822
21601WAT     H265046   7.978   7.643   2.873
21602WAT      O65047   8.938   5.034   8.546
21602WAT     H165048   8.943   5.001   8.452
21602WAT     H265049   8.930   4.957   8.608
21603WAT      O65050   7.881   7.466   8.200
21603WAT     H165051   7.927   7.532   8.258
21603WAT     H265052   7.836   7.396   8.257
21604WAT      O65053   6.338   9.525   9.206
21604WAT     H165054   6.308   9.437   9.242
21604WAT     H265055   6.339   9.522   9.106
21605WAT      O65056   7.936   1.478   9.323
21605WAT     H165057   7.930   1.500   9.225
21605WAT     H265058   7.984   1.392   9.334
21606WAT      O65059   0.130   2.490   5.809
21606WAT     H165060   0.083   2.577   5.800
21606WAT     H265061   0.099   2.443   5.892
21607WAT      O65062   5.754   2.002   8.380
21607WAT     H165063   5.662   1.996   8.419
21607WAT     H265064   5.810   1.928   8.417
21608WAT      O65065   9.191   4.316   9.674
21608WAT     H165066   9.109   4.283   9.721
21608WAT     H265067   9.246   4.237   9.646
21609WAT      O65068   6.880   9.840   7.081
21609WAT     H165069   6.799   9.881   7.040
21609WAT     H265070   6.959   9.853   7.021
21610WAT      O65071   1.055   4.847   5.583
21610WAT     H165072   1.067   4.912   5.659
21610WAT     H265073   1.124   4.775   5.590
21611WAT      O65074   9.132   9.252   6.059
21611WAT     H165075   9.041   9.273   6.022
21611WAT     H265076   9.185   9.203   5.990
21612WAT      O65077   7.953   1.093   7.187
21612WAT     H165078   8.049   1.067   7.177
21612WAT     H265079   7.900   1.055   7.111
21613WAT      O65080   0.748   7.463   4.338
21613WAT     H165081   0.818   7.513   4.288
21613WAT     H265082   0.685   7.420   4.274
21614WAT      O65083   7.195   2.333   2.048
21614WAT     H165084   7.291   2.340   2.021
21614WAT     H265085   7.142   2.292   1.974
21615WAT      O65086   6.032   1.951   5.471
21615WAT     H165087   6.127   1.946   5.440
21615WAT     H265088   6.019   2.033   5.527
21616WAT      O65089   2.616   8.135   4.610
21616WAT     H165090   2.538   8.074   4.601
21616WAT     H265091   2.625   8.165   4.705
21617WAT      O65092   3.997   3.060   0.130
21617WAT     H165093   4.061   3.115   0.184
21617WAT     H265094   3.914   3.113   0.113
21618WAT      O65095   4.207   3.815   9.044
21618WAT     H165096   4.215   3.749   9.119
21618WAT     H265097   4.294   3.861   9.031
21619WAT      O65098   3.163   5.680   2.490
21619WAT     H165099   3.157   5.600   2.430
21619WAT     H265100   3.077   5.691   2.540
21620WAT      O65101   4.970   1.195   5.709
21620WAT     H165102   4.875   1.224   5.719
21620WAT     H265103   4.993   1.189   5.612
21621WAT      O65104   9.340   7.273   2.380
21621WAT     H165105   9.403   7.335   2.333
21621WAT     H265106   9.286   7.223   2.313
21622WAT      O65107   0.218   8.918   4.744
21622WAT     H165108   0.153   8.886   4.675
21622WAT     H265109   0.207   8.864   4.828
21623WAT      O65110   6.964   7.857   4.817
21623WAT     H165111   7.036   7.817   4.874
21623WAT     H265112   6.907   7.783   4.779
21624WAT      O65113   3.825   3.273   5.916
21624WAT     H165114   3.806   3.347   5.851
21624WAT     H265115   3.786   3.296   6.005
21625WAT      O65116   1.073   8.731   8.521
21625WAT     H165117   1.084   8.694   8.429
21625WAT     H265118   1.138   8.687   8.583
21626WAT      O65119   8.842   9.795   6.570
21626WAT     H165120   8.832   9.783   6.668
21626WAT     H265121   8.939   9.804   6.546
21627WAT      O65122   8.780   6.214   5.796
21627WAT     H165123   8.799   6.171   5.708
21627WAT     H265124   8.700   6.171   5.837
21628WAT      O65125   7.641   8.649   5.047
21628WAT     H165126   7.712   8.598   5.095
21628WAT     H265127   7.575   8.586   5.006
21629WAT      O65128   5.964   3.309   0.683
21629WAT     H165129   5.912   3.394   0.682
21629WAT     H265130   5.904   3.233   0.707
21630WAT      O65131   4.736   3.437   2.459
21630WAT     H165132   4.639   3.462   2.456
21630WAT     H265133   4.775   3.446   2.368
21631WAT      O65134   5.011   2.033   2.711
21631WAT     H165135   5.026   2.128   2.683
21631WAT     H265136   5.096   1.982   2.705
21632WAT      O65137   6.067   5.288   8.517
21632WAT     H165138   6.021   5.235   8.446
21632WAT     H265139   6.028   5.380   8.521
21633WAT      O65140   8.778   5.648   8.702
21633WAT     H165141   8.783   5.696   8.789
21633WAT     H265142   8.864   5.601   8.684
21634WAT      O65143   0.298   5.793   5.580
21634WAT     H165144   0.307   5.873   5.639
21634WAT     H265145   0.204   5.760   5.583
21635WAT      O65146   9.459   8.298   4.489
21635WAT     H165147   9.486   8.275   4.582
21635WAT     H265148   9.430   8.394   4.484
21636WAT      O65149   6.326   4.943   1.405
21636WAT     H165150   6.270   4.878   1.457
21636WAT     H265151   6.391   4.893   1.349
21637WAT      O65152   6.964   4.722   5.245
21637WAT     H165153   6.932   4.628   5.231
21637WAT     H265154   6.976   4.766   5.157
21638WAT      O65155   4.468   5.318   2.998
21638WAT     H165156   4.544   5.283   2.942
21638WAT     H265157   4.423   5.393   2.949
21639WAT      O65158   5.686   2.337   7.422
21639WAT     H165159   5.762   2.300   7.476
21639WAT     H265160   5.621   2.263   7.403
21640WAT      O65161   8.277   7.547   5.646
21640WAT     H165162   8.276   7.540   5.546
21640WAT     H265163   8.371   7.534   5.679
21641WAT      O65164   0.540   5.414   5.623
21641WAT     H165165   0.551   5.372   5.533
21641WAT     H265166   0.463   5.370   5.671
21642WAT      O65167   3.274   1.600   6.778
21642WAT     H165168   3.212   1.607   6.856
21642WAT     H265169   3.368   1.604   6.810
21643WAT      O65170   7.026   5.705   2.122
21643WAT     H165171   7.080   5.758   2.056
21643WAT     H265172   7.034   5.746   2.212
21644WAT      O65173   6.900   5.792   3.402
21644WAT     H165174   6.886   5.705   3.450
21644WAT     H265175   6.812   5.838   3.392
21645WAT      O65176   5.555   9.206   5.388
21645WAT     H165177   5.573   9.115   5.426
21645WAT     H265178   5.457   9.224   5.390
21646WAT      O65179   7.773   5.464   0.774
21646WAT     H165180   7.866   5.429   0.784
21646WAT     H265181   7.731   5.473   0.864
21647WAT      O65182   1.754   1.905   3.784
21647WAT     H165183   1.737   2.004   3.780
21647WAT     H265184   1.688   1.862   3.846
21648WAT      O65185   3.472   3.014   1.868
21648WAT     H165186   3.439   2.939   1.925
21648WAT     H265187   3.397   3.077   1.849
21649WAT      O65188   3.248   4.980   9.286
21649WAT     H165189   3.217   4.919   9.212
21649WAT     H265190   3.274   4.925   9.365
21650WAT      O65191   8.841   7.571   4.576
21650WAT     H165192   8.894   7.608   4.500
21650WAT     H265193   8.762   7.630   4.594
21651WAT      O65194   5.097   5.739   9.580
21651WAT     H165195   5.035   5.786   9.644
21651WAT     H265196   5.094   5.785   9.491
21652WAT      O65197   7.417   7.852   8.763
21652WAT     H165198   7.395   7.772   8.708
21652WAT     H265199   7.500   7.834   8.816
21653WAT      O65200   9.090   0.663   6.432
21653WAT     H165201   9.035   0.627   6.357
21653WAT     H265202   9.089   0.763   6.428
21654WAT      O65203   7.242   6.408   3.189
21654WAT     H165204   7.313   6.350   3.230
21654WAT     H265205   7.155   6.393   3.236
21655WAT      O65206   7.821   1.306   8.894
21655WAT     H165207   7.771   1.222   8.917
21655WAT     H265208   7.826   1.365   8.974
21656WAT      O65209   7.413   8.422   2.478
21656WAT     H165210   7.508   8.393   2.467
21656WAT     H265211   7.403   8.476   2.562
21657WAT      O65212   7.626   4.939   2.239
21657WAT     H165213   7.662   4.895   2.321
21657WAT     H265214   7.629   5.038   2.250
21658WAT      O65215   4.758   5.657   5.482
21658WAT     H165216   4.797   5.574   5.441
21658WAT     H265217   4.711   5.710   5.412
21659WAT      O65218   5.441   4.406   9.866
21659WAT     H165219   5.502   4.368   9.797
21659WAT     H265220   5.441   4.347   9.947
21660WAT      O65221   9.058   3.441   8.560
21660WAT     H165222   9.086   3.391   8.642
21660WAT     H265223   9.138   3.459   8.503
21661WAT      O65224   0.535   7.826   0.288
21661WAT     H165225   0.613   7.868   0.333
21661WAT     H265226   0.551   7.822   0.189
21662WAT      O65227   3.273   8.039   1.952
21662WAT     H165228   3.211   7.960   1.942
21662WAT     H265229   3.278   8.066   2.048
21663WAT      O65230   6.069   2.925   9.807
21663WAT     H165231   6.104   2.991   9.873
21663WAT     H265232   5.980   2.956   9.772
21664WAT      O65233   5.005   2.652   7.608
21664WAT     H165234   5.054   2.576   7.566
21664WAT     H265235   4.969   2.624   7.697
21665WAT      O65236   2.678   1.667   0.413
21665WAT     H165237   2.596   1.702   0.369
21665WAT     H265238   2.727   1.742   0.458
21666WAT      O65239   8.139   9.243   6.053
21666WAT     H165240   8.154   9.185   6.132
21666WAT     H265241   8.068   9.202   5.995
21667WAT      O65242   5.443   6.827   2.664
21667WAT     H165243   5.442   6.789   2.757
21667WAT     H265244   5.419   6.924   2.668
21668WAT      O65245   2.820   1.613   9.688
21668WAT     H165246   2.724   1.633   9.709
21668WAT     H265247   2.830   1.599   9.590
21669WAT      O65248   4.399   1.685   2.659
21669WAT     H165249   4.481   1.712   2.610
21669WAT     H265250   4.321   1.685   2.597
21670WAT      O65251   4.460   6.526   9.165
21670WAT     H165252   4.441   6.507   9.069
21670WAT     H265253   4.419   6.614   9.191
21671WAT      O65254   5.966   6.742   6.569
21671WAT     H165255   6.064   6.753   6.587
21671WAT     H265256   5.938   6.649   6.592
21672WAT      O65257   5.032   3.174   5.204
21672WAT     H165258   4.940   3.213   5.212
21672WAT     H265259   5.059   3.171   5.108
21673WAT      O65260   2.787   6.572   3.398
21673WAT     H165261   2.857   6.519   3.350
21673WAT     H265262   2.727   6.615   3.331
21674WAT      O65263   7.455   2.815   7.428
21674WAT     H165264   7.389   2.888   7.409
21674WAT     H265265   7.438   2.778   7.520
21675WAT      O65266   7.803   8.533   5.809
21675WAT     H165267   7.818   8.603   5.879
21675WAT     H265268   7.774   8.576   5.724
21676WAT      O65269   1.599   5.500   1.847
21676WAT     H165270   1.607   5.401   1.864
21676WAT     H265271   1.686   5.544   1.867
21677WAT      O65272   0.331   5.080   7.549
21677WAT     H165273   0.297   5.117   7.463
21677WAT     H265274   0.418   5.033   7.533
21678WAT      O65275   5.018   8.007   9.489
21678WAT     H165276   4.919   8.017   9.495
21678WAT     H265277   5.041   7.909   9.487
21679WAT      O65278   2.440   2.561   0.448
21679WAT     H165279   2.484   2.471   0.445
21679WAT     H265280   2.341   2.549   0.448
21680WAT      O65281   7.987   4.594   3.757
21680WAT     H165282   8.022   4.519   3.701
21680WAT     H265283   7.977   4.676   3.701
21681WAT      O65284   1.516   2.679   3.474
21681WAT     H165285   1.483   2.650   3.564
21681WAT     H265286   1.456   2.642   3.403
21682WAT      O65287   3.115   8.452   9.639
21682WAT     H165288   3.095   8.549   9.633
21682WAT     H265289   3.033   8.399   9.616
21683WAT      O65290   5.052   7.345   3.478
21683WAT     H165291   5.046   7.305   3.386
21683WAT     H265292   4.968   7.394   3.498
21684WAT      O65293   0.527   1.824   1.934
21684WAT     H165294   0.603   1.885   1.959
21684WAT     H265295   0.485   1.787   2.017
21685WAT      O65296   0.937   5.608   3.608
21685WAT     H165297   1.003   5.681   3.591
21685WAT     H265298   0.903   5.574   3.520
21686WAT      O65299   4.037   5.235   9.077
21686WAT     H165300   4.061   5.319   9.127
21686WAT     H265301   3.943   5.209   9.100
21687WAT      O65302   7.537   1.590   8.655
21687WAT     H165303   7.548   1.531   8.575
21687WAT     H265304   7.582   1.678   8.639
21688WAT      O65305   4.764   0.547   4.296
21688WAT     H165306   4.716   0.498   4.222
21688WAT     H265307   4.844   0.593   4.259
21689WAT      O65308   6.606   1.780   6.013
21689WAT     H165309   6.562   1.723   6.083
21689WAT     H265310   6.694   1.740   5.989
21690WAT      O65311   0.193   4.676   4.826
21690WAT     H165312   0.113   4.726   4.791
21690WAT     H265313   0.173   4.578   4.828
21691WAT      O65314   8.002   2.554   2.794
21691WAT     H165315   8.008   2.586   2.699
21691WAT     H265316   8.055   2.469   2.803
21692WAT      O65317   6.169   2.243   1.812
21692WAT     H165318   6.113   2.219   1.891
21692WAT     H265319   6.139   2.191   1.732
21693WAT      O65320   8.416   8.298   9.651
21693WAT     H165321   8.468   8.364   9.596
21693WAT     H265322   8.451   8.206   9.635
21694WAT      O65323   7.524   2.328   7.058
21694WAT     H165324   7.569   2.305   7.144
21694WAT     H265325   7.439   2.377   7.077
21695WAT      O65326   9.362   0.698   4.182
21695WAT     H165327   9.420   0.757   4.126
21695WAT     H265328   9.297   0.754   4.234
21696WAT      O65329   8.264   3.774   5.514
21696WAT     H165330   8.274   3.865   5.473
21696WAT     H265331   8.256   3.782   5.613
21697WAT      O65332   3.466   9.514   4.353
21697WAT     H165333   3.371   9.483   4.353
21697WAT     H265334   3.518   9.462   4.421
21698WAT      O65335   7.779   4.358   6.837
21698WAT     H165336   7.775   4.261   6.813
21698WAT     H265337   7.831   4.369   6.921
21699WAT      O65338   4.746   6.135   1.424
21699WAT     H165339   4.695   6.156   1.341
21699WAT     H265340   4.689   6.083   1.487
21700WAT      O65341   3.625   6.699   8.355
21700WAT     H165342   3.636   6.625   8.421
21700WAT     H265343   3.695   6.768   8.370
21701WAT      O65344   2.481   3.014   2.066
21701WAT     H165345   2.449   3.001   2.160
21701WAT     H265346   2.410   2.984   2.002
21702WAT      O65347   0.014   5.714   6.516
21702WAT     H165348  -0.037   5.714   6.602
21702WAT     H265349   0.101   5.667   6.530
21703WAT      O65350   7.484   3.482   4.797
21703WAT     H165351   7.401   3.438   4.831
21703WAT     H265352   7.484   3.578   4.824
21704WAT      O65353   3.539   2.473   4.696
21704WAT     H165354   3.448   2.509   4.719
21704WAT     H265355   3.594   2.546   4.655
21705WAT      O65356   0.486   8.634   1.628
21705WAT     H165357   0.551   8.651   1.554
21705WAT     H265358   0.529   8.576   1.697
21706WAT      O65359   9.310   0.832   8.807
21706WAT     H165360   9.381   0.826   8.876
21706WAT     H265361   9.309   0.924   8.768
21707WAT      O65362   9.495   1.405   5.791
21707WAT     H165363   9.424   1.460   5.835
21707WAT     H265364   9.575   1.399   5.850
21708WAT      O65365   6.230   7.178   7.820
21708WAT     H165366   6.242   7.216   7.728
21708WAT     H265367   6.311   7.125   7.844
21709WAT      O65368   6.883   7.971   3.125
21709WAT     H165369   6.917   7.880   3.151
21709WAT     H265370   6.879   7.977   3.025
21710WAT      O65371   4.366   9.625   2.560
21710WAT     H165372   4.439   9.614   2.492
21710WAT     H265373   4.383   9.707   2.615
21711WAT      O65374   8.152   3.159   9.483
21711WAT     H165375   8.160   3.259   9.483
21711WAT     H265376   8.114   3.128   9.570
21712WAT      O65377   6.445   3.384   8.610
21712WAT     H165378   6.545   3.375   8.613
21712WAT     H265379   6.411   3.403   8.702
21713WAT      O65380   4.700   1.898   4.297
21713WAT     H165381   4.709   1.809   4.251
21713WAT     H265382   4.677   1.884   4.393
21714WAT      O65383   3.444   2.705   5.130
21714WAT     H165384   3.420   2.730   5.225
21714WAT     H265385   3.430   2.785   5.071
21715WAT      O65386   4.976   1.134   1.526
21715WAT     H165387   4.904   1.163   1.588
21715WAT     H265388   5.004   1.040   1.548
21716WAT      O65389   6.370   9.597   8.941
21716WAT     H165390   6.353   9.535   8.865
21716WAT     H265391   6.437   9.665   8.914
21717WAT      O65392   3.794   8.581   0.184
21717WAT     H165393   3.829   8.587   0.277
21717WAT     H265394   3.694   8.581   0.186
21718WAT      O65395   4.734   7.305   5.184
21718WAT     H165396   4.637   7.303   5.160
21718WAT     H265397   4.774   7.392   5.153
21719WAT      O65398   6.604   0.929   5.764
21719WAT     H165399   6.513   0.969   5.771
21719WAT     H265400   6.663   0.988   5.709
21720WAT      O65401   3.265   3.152   2.056
21720WAT     H165402   3.247   3.208   1.975
21720WAT     H265403   3.178   3.124   2.097
21721WAT      O65404   7.161   3.482   5.312
21721WAT     H165405   7.211   3.396   5.319
21721WAT     H265406   7.223   3.558   5.325
21722WAT      O65407   5.321   0.384   9.818
21722WAT     H165408   5.328   0.298   9.870
21722WAT     H265409   5.227   0.398   9.789
21723WAT      O65410   9.345   5.055   2.388
21723WAT     H165411   9.377   5.054   2.293
21723WAT     H265412   9.394   4.985   2.440
21724WAT      O65413   4.362   9.758   0.026
21724WAT     H165414   4.431   9.711  -0.028
21724WAT     H265415   4.316   9.827  -0.030
21725WAT      O65416   2.297   6.344   7.046
21725WAT     H165417   2.277   6.414   6.978
21725WAT     H265418   2.343   6.385   7.124
21726WAT      O65419   0.401   2.538   1.827
21726WAT     H165420   0.427   2.449   1.866
21726WAT     H265421   0.479   2.600   1.832
21727WAT      O65422   9.601   0.727   2.319
21727WAT     H165423   9.528   0.663   2.295
21727WAT     H265424   9.602   0.802   2.253
21728WAT      O65425   7.870   0.574   6.805
21728WAT     H165426   7.840   0.506   6.872
21728WAT     H265427   7.895   0.529   6.719
21729WAT      O65428   7.108   6.290   3.745
21729WAT     H165429   7.088   6.214   3.808
21729WAT     H265430   7.140   6.369   3.798
21730WAT      O65431   4.375   6.144   5.779
21730WAT     H165432   4.287   6.185   5.751
21730WAT     H265433   4.416   6.097   5.701
21731WAT      O65434   2.022   5.581   2.432
21731WAT     H165435   2.011   5.536   2.344
21731WAT     H265436   1.963   5.662   2.436
21732WAT      O65437   2.487   6.233   3.568
21732WAT     H165438   2.508   6.253   3.472
21732WAT     H265439   2.394   6.198   3.575
21733WAT      O65440   8.191   9.387   8.215
21733WAT     H165441   8.240   9.299   8.212
21733WAT     H265442   8.209   9.439   8.132
21734WAT      O65443   4.809   1.944   2.869
21734WAT     H165444   4.797   1.845   2.861
21734WAT     H265445   4.898   1.970   2.832
21735WAT      O65446   8.480   6.236   3.713
21735WAT     H165447   8.540   6.238   3.633
21735WAT     H265448   8.385   6.247   3.684
21736WAT      O65449   4.366   8.502   5.142
21736WAT     H165450   4.310   8.464   5.068
21736WAT     H265451   4.357   8.601   5.144
21737WAT      O65452   4.356   6.573   5.800
21737WAT     H165453   4.361   6.649   5.865
21737WAT     H265454   4.395   6.491   5.841
21738WAT      O65455   2.377   8.626   6.009
21738WAT     H165456   2.419   8.557   6.068
21738WAT     H265457   2.278   8.618   6.015
21739WAT      O65458   4.662   9.492   5.164
21739WAT     H165459   4.727   9.418   5.182
21739WAT     H265460   4.702   9.555   5.098
21740WAT      O65461   0.967   8.754   9.388
21740WAT     H165462   1.026   8.687   9.433
21740WAT     H265463   0.974   8.745   9.289
21741WAT      O65464   6.636   0.291   8.084
21741WAT     H165465   6.599   0.208   8.126
21741WAT     H265466   6.728   0.308   8.119
21742WAT      O65467   4.977   6.358   5.406
21742WAT     H165468   4.899   6.420   5.410
21742WAT     H265469   4.945   6.264   5.414
21743WAT      O65470   2.364   8.051   8.572
21743WAT     H165471   2.442   8.020   8.627
21743WAT     H265472   2.284   8.061   8.631
21744WAT      O65473   4.374   3.452   4.404
21744WAT     H165474   4.384   3.547   4.432
21744WAT     H265475   4.452   3.424   4.350
21745WAT      O65476   5.752   5.429   6.462
21745WAT     H165477   5.713   5.354   6.515
21745WAT     H265478   5.716   5.427   6.369
21746WAT      O65479   2.580   0.789   0.192
21746WAT     H165480   2.533   0.876   0.180
21746WAT     H265481   2.607   0.753   0.102
21747WAT      O65482   1.846   9.519   9.680
21747WAT     H165483   1.810   9.611   9.693
21747WAT     H265484   1.857   9.500   9.583
21748WAT      O65485   3.495   7.786   9.352
21748WAT     H165486   3.547   7.830   9.278
21748WAT     H265487   3.548   7.792   9.437
21749WAT      O65488   1.801   3.829   9.069
21749WAT     H165489   1.704   3.811   9.076
21749WAT     H265490   1.844   3.761   9.010
21750WAT      O65491   5.734   1.540   8.933
21750WAT     H165492   5.742   1.635   8.961
21750WAT     H265493   5.643   1.523   8.896
21751WAT      O65494   2.351   6.615   2.804
21751WAT     H165495   2.402   6.532   2.827
21751WAT     H265496   2.313   6.655   2.887
21752WAT      O65497   9.263   0.208   8.435
21752WAT     H165498   9.164   0.225   8.434
21752WAT     H265499   9.309   0.274   8.376
21753WAT      O65500   3.908   8.567   9.199
21753WAT     H165501   3.813   8.576   9.229
21753WAT     H265502   3.920   8.616   9.112
21754WAT      O65503   6.648   3.270   0.115
21754WAT     H165504   6.679   3.178   0.094
21754WAT     H265505   6.707   3.336   0.069
21755WAT      O65506   3.745   0.074   9.824
21755WAT     H165507   3.811   0.116   9.887
21755WAT     H265508   3.653   0.080   9.863
21756WAT      O65509   1.308   4.967   1.180
21756WAT     H165510   1.328   4.913   1.099
21756WAT     H265511   1.336   5.062   1.165
21757WAT      O65512   9.196   6.566   3.809
21757WAT     H165513   9.204   6.556   3.710
21757WAT     H265514   9.216   6.479   3.853
21758WAT      O65515   1.095   4.295   0.985
21758WAT     H165516   1.049   4.352   0.916
21758WAT     H265517   1.182   4.263   0.949
21759WAT      O65518   5.457   4.507   7.107
21759WAT     H165519   5.466   4.414   7.142
21759WAT     H265520   5.513   4.517   7.025
21760WAT      O65521   2.733   5.744   1.834
21760WAT     H165522   2.754   5.660   1.784
21760WAT     H265523   2.759   5.733   1.931
21761WAT      O65524   4.374   0.030   5.572
21761WAT     H165525   4.406   0.114   5.527
21761WAT     H265526   4.428   0.015   5.655
21762WAT      O65527   9.250   5.127   1.265
21762WAT     H165528   9.197   5.076   1.333
21762WAT     H265529   9.195   5.202   1.229
21763WAT      O65530   5.816   4.043   8.345
21763WAT     H165531   5.807   4.125   8.402
21763WAT     H265532   5.848   3.967   8.401
21764WAT      O65533   3.141   6.455   7.197
21764WAT     H165534   3.220   6.515   7.192
21764WAT     H265535   3.072   6.496   7.257
21765WAT      O65536   9.690   9.174   7.089
21765WAT     H165537   9.679   9.202   6.994
21765WAT     H265538   9.774   9.120   7.099
21766WAT      O65539   3.931   4.620   2.675
21766WAT     H165540   3.952   4.573   2.590
21766WAT     H265541   4.015   4.658   2.714
21767WAT      O65542   0.792   7.422   6.033
21767WAT     H165543   0.862   7.489   6.007
21767WAT     H265544   0.722   7.466   6.089
21768WAT      O65545   2.560   2.811   0.428
21768WAT     H165546   2.504   2.893   0.419
21768WAT     H265547   2.506   2.730   0.405
21769WAT      O65548   2.069   3.036   8.133
21769WAT     H165549   2.138   3.077   8.192
21769WAT     H265550   2.058   2.939   8.156
21770WAT      O65551   7.688   8.920   9.243
21770WAT     H165552   7.606   8.916   9.185
21770WAT     H265553   7.735   8.832   9.240
21771WAT      O65554   9.212   6.479   7.662
21771WAT     H165555   9.311   6.489   7.674
21771WAT     H265556   9.180   6.547   7.597
21772WAT      O65557   7.163   9.766   4.863
21772WAT     H165558   7.161   9.847   4.804
21772WAT     H265559   7.127   9.791   4.953
21773WAT      O65560   0.415   4.325   0.882
21773WAT     H165561   0.340   4.287   0.936
21773WAT     H265562   0.387   4.413   0.843
21774WAT      O65563   4.462   5.278   9.029
21774WAT     H165564   4.496   5.370   9.050
21774WAT     H265565   4.407   5.281   8.946
21775WAT      O65566   9.214   7.564   9.718
21775WAT     H165567   9.170   7.475   9.726
21775WAT     H265568   9.161   7.632   9.768
21776WAT      O65569   4.714   7.540   8.628
21776WAT     H165570   4.673   7.597   8.557
21776WAT     H265571   4.666   7.554   8.714
21777WAT      O65572   7.869   2.682   9.371
21777WAT     H165573   7.774   2.658   9.392
21777WAT     H265574   7.883   2.780   9.389
21778WAT      O65575   8.235   5.521   4.194
21778WAT     H165576   8.319   5.498   4.242
21778WAT     H265577   8.167   5.449   4.208
21779WAT      O65578   8.377   5.304   3.665
21779WAT     H165579   8.445   5.261   3.606
21779WAT     H265580   8.390   5.403   3.664
21780WAT      O65581   5.589   6.922   2.216
21780WAT     H165582   5.625   6.833   2.188
21780WAT     H265583   5.491   6.914   2.233
21781WAT      O65584   3.423   8.376   0.733
21781WAT     H165585   3.358   8.330   0.672
21781WAT     H265586   3.483   8.435   0.678
21782WAT      O65587   4.818   4.062   2.649
21782WAT     H165588   4.869   4.093   2.730
21782WAT     H265589   4.761   4.137   2.615
21783WAT      O65590   9.843   2.198   3.540
21783WAT     H165591   9.798   2.145   3.612
21783WAT     H265592   9.933   2.229   3.573
21784WAT      O65593   8.413   1.903   2.065
21784WAT     H165594   8.414   1.873   1.969
21784WAT     H265595   8.507   1.911   2.098
21785WAT      O65596   5.397   4.629   8.255
21785WAT     H165597   5.455   4.653   8.333
21785WAT     H265598   5.352   4.541   8.272
21786WAT      O65599   5.385   5.607   8.788
21786WAT     H165600   5.328   5.682   8.822
21786WAT     H265601   5.479   5.639   8.777
21787WAT      O65602   3.529   2.569   2.095
21787WAT     H165603   3.609   2.566   2.035
21787WAT     H265604   3.484   2.480   2.095
21788WAT      O65605   0.164   4.927   5.736
21788WAT     H165606   0.185   4.867   5.658
21788WAT     H265607   0.220   4.901   5.814
21789WAT      O65608   5.164   7.682   4.153
21789WAT     H165609   5.108   7.616   4.203
21789WAT     H265610   5.130   7.775   4.170
21790WAT      O65611   9.135   0.624   4.452
21790WAT     H165612   9.165   0.707   4.405
21790WAT     H265613   9.201   0.601   4.524
21791WAT      O65614   6.997   9.165   1.873
21791WAT     H165615   6.907   9.135   1.841
21791WAT     H265616   7.062   9.089   1.865
21792WAT      O65617   4.925   6.352   0.420
21792WAT     H165618   4.854   6.419   0.396
21792WAT     H265619   4.983   6.391   0.491
21793WAT      O65620   3.664   6.012   1.902
21793WAT     H165621   3.611   6.038   1.983
21793WAT     H265622   3.609   5.951   1.845
21794WAT      O65623   5.906   0.402   2.877
21794WAT     H165624   5.866   0.484   2.835
21794WAT     H265625   5.957   0.351   2.807
21795WAT      O65626   1.928   1.549   6.081
21795WAT     H165627   1.863   1.482   6.046
21795WAT     H265628   1.947   1.617   6.010
21796WAT      O65629   9.218   2.941   6.131
21796WAT     H165630   9.230   3.039   6.116
21796WAT     H265631   9.307   2.898   6.141
21797WAT      O65632   6.191   9.724   3.348
21797WAT     H165633   6.250   9.800   3.376
21797WAT     H265634   6.245   9.639   3.345
21798WAT      O65635   8.890   4.552   9.378
21798WAT     H165636   8.942   4.543   9.463
21798WAT     H265637   8.936   4.502   9.305
21799WAT      O65638   3.762   7.962   1.628
21799WAT     H165639   3.685   7.983   1.567
21799WAT     H265640   3.832   7.913   1.578
21800WAT      O65641   5.211   7.044   6.066
21800WAT     H165642   5.152   6.966   6.089
21800WAT     H265643   5.194   7.072   5.972
21801WAT      O65644   6.046   6.853   0.008
21801WAT     H165645   6.063   6.947   0.036
21801WAT     H265646   6.039   6.795   0.090
21802WAT      O65647   8.109   2.858   4.620
21802WAT     H165648   8.153   2.945   4.597
21802WAT     H265649   8.115   2.843   4.719
21803WAT      O65650   2.874   5.450   5.738
21803WAT     H165651   2.969   5.421   5.751
21803WAT     H265652   2.853   5.525   5.801
21804WAT      O65653   7.703   6.339   5.548
21804WAT     H165654   7.701   6.247   5.509
21804WAT     H265655   7.766   6.341   5.625
21805WAT      O65656   0.404   6.104   3.073
21805WAT     H165657   0.417   6.092   3.172
21805WAT     H265658   0.491   6.091   3.027
21806WAT      O65659   0.560   1.710   6.788
21806WAT     H165660   0.555   1.792   6.844
21806WAT     H265661   0.648   1.707   6.741
21807WAT      O65662   1.085   5.733   5.214
21807WAT     H165663   1.164   5.674   5.202
21807WAT     H265664   1.041   5.713   5.302
21808WAT      O65665   8.524   1.449   3.781
21808WAT     H165666   8.569   1.473   3.867
21808WAT     H265667   8.498   1.533   3.733
21809WAT      O65668   8.713   3.167   1.672
21809WAT     H165669   8.651   3.182   1.595
21809WAT     H265670   8.806   3.194   1.646
21810WAT      O65671   5.384   7.064   1.642
21810WAT     H165672   5.397   7.154   1.683
21810WAT     H265673   5.287   7.041   1.643
21811WAT      O65674   2.662   2.674   0.927
21811WAT     H165675   2.637   2.667   0.830
21811WAT     H265676   2.634   2.591   0.975
21812WAT      O65677   2.439   1.700   0.566
21812WAT     H165678   2.523   1.648   0.584
21812WAT     H265679   2.380   1.647   0.505
21813WAT      O65680   1.524   3.489   3.256
21813WAT     H165681   1.537   3.550   3.334
21813WAT     H265682   1.565   3.531   3.174
21814WAT      O65683   3.943   4.558   9.608
21814WAT     H165684   3.961   4.474   9.558
21814WAT     H265685   3.976   4.549   9.702
21815WAT      O65686   3.440   5.519   2.501
21815WAT     H165687   3.349   5.534   2.462
21815WAT     H265688   3.432   5.509   2.600
21816WAT      O65689   0.077   9.319   1.501
21816WAT     H165690   0.151   9.252   1.513
21816WAT     H265691   0.037   9.308   1.410
21817WAT      O65692   5.729   5.447   0.522
21817WAT     H165693   5.827   5.450   0.500
21817WAT     H265694   5.715   5.479   0.615
21818WAT      O65695   3.109   0.925   0.711
21818WAT     H165696   3.036   0.879   0.661
21818WAT     H265697   3.112   1.021   0.683
21819WAT      O65698   3.322   5.692   1.167
21819WAT     H165699   3.245   5.752   1.145
21819WAT     H265700   3.329   5.620   1.098
21820WAT      O65701   7.551   7.696   5.265
21820WAT     H165702   7.636   7.713   5.314
21820WAT     H265703   7.558   7.610   5.213
21821WAT      O65704   4.902   7.710   6.853
21821WAT     H165705   4.915   7.692   6.756
21821WAT     H265706   4.960   7.787   6.882
21822WAT      O65707   3.760   5.136   5.601
21822WAT     H165708   3.855   5.123   5.628
21822WAT     H265709   3.706   5.166   5.680
21823WAT      O65710   3.464   2.957   9.598
21823WAT     H165711   3.543   3.016   9.582
21823WAT     H265712   3.496   2.866   9.626
21824WAT      O65713   2.562   9.433   2.337
21824WAT     H165714   2.516   9.448   2.249
21824WAT     H265715   2.584   9.521   2.379
21825WAT      O65716   2.347   1.919   7.450
21825WAT     H165717   2.319   1.912   7.546
21825WAT     H265718   2.443   1.945   7.445
21826WAT      O65719   4.302   0.351   8.129
21826WAT     H165720   4.360   0.271   8.117
21826WAT     H265721   4.349   0.418   8.187
21827WAT      O65722   6.016   7.370   4.915
21827WAT     H165723   6.109   7.378   4.877
21827WAT     H265724   6.011   7.289   4.972
21828WAT      O65725   0.813   6.511   8.161
21828WAT     H165726   0.889   6.447   8.161
21828WAT     H265727   0.841   6.596   8.116
21829WAT      O65728   7.797   1.783   7.325
21829WAT     H165729   7.711   1.782   7.274
21829WAT     H265730   7.867   1.833   7.274
21830WAT      O65731   7.978   5.373   1.573
21830WAT     H165732   7.878   5.368   1.572
21830WAT     H265733   8.016   5.292   1.528
21831WAT      O65734   3.484   7.945   7.859
21831WAT     H165735   3.496   8.010   7.784
21831WAT     H265736   3.519   7.985   7.944
21832WAT      O65737   5.592   5.154   7.514
21832WAT     H165738   5.612   5.148   7.416
21832WAT     H265739   5.541   5.073   7.543
21833WAT      O65740   7.259   5.409   6.557
21833WAT     H165741   7.317   5.479   6.514
21833WAT     H265742   7.163   5.431   6.539
21834WAT      O65743   3.044   3.051   5.766
21834WAT     H165744   3.070   3.082   5.675
21834WAT     H265745   3.039   2.951   5.767
21835WAT      O65746   1.469   3.072   6.571
21835WAT     H165747   1.399   3.081   6.500
21835WAT     H265748   1.429   3.093   6.660
21836WAT      O65749   7.595   3.893   5.327
21836WAT     H165750   7.542   3.973   5.299
21836WAT     H265751   7.556   3.856   5.411
21837WAT      O65752   6.859   8.791   1.839
21837WAT     H165753   6.765   8.772   1.811
21837WAT     H265754   6.880   8.738   1.922
21838WAT      O65755   0.408   5.407   6.052
21838WAT     H165756   0.420   5.469   5.974
21838WAT     H265757   0.356   5.327   6.023
21839WAT      O65758   0.034   1.669   8.932
21839WAT     H165759   0.123   1.650   8.973
21839WAT     H265760   0.023   1.767   8.920
21840WAT      O65761   1.655   4.446   2.924
21840WAT     H165762   1.727   4.402   2.977
21840WAT     H265763   1.596   4.500   2.984
21841WAT      O65764   4.592   4.723   8.621
21841WAT     H165765   4.539   4.747   8.702
21841WAT     H265766   4.633   4.805   8.582
21842WAT      O65767   8.524   5.424   6.119
21842WAT     H165768   8.597   5.436   6.186
21842WAT     H265769   8.440   5.468   6.153
21843WAT      O65770   5.306   4.503   5.964
21843WAT     H165771   5.208   4.502   5.984
21843WAT     H265772   5.354   4.552   6.037
21844WAT      O65773   2.838   1.831   9.367
21844WAT     H165774   2.895   1.755   9.398
21844WAT     H265775   2.742   1.810   9.387
21845WAT      O65776   0.445   2.148   2.485
21845WAT     H165777   0.506   2.108   2.416
21845WAT     H265778   0.359   2.173   2.442
21846WAT      O65779   0.260   8.562   4.372
21846WAT     H165780   0.234   8.657   4.387
21846WAT     H265781   0.268   8.545   4.273
21847WAT      O65782   6.062   3.336   4.231
21847WAT     H165783   6.100   3.351   4.322
21847WAT     H265784   6.126   3.280   4.177
21848WAT      O65785   0.519   0.456   8.391
21848WAT     H165786   0.547   0.378   8.335
21848WAT     H265787   0.594   0.482   8.452
21849WAT      O65788   3.193   2.162   5.887
21849WAT     H165789   3.138   2.191   5.965
21849WAT     H265790   3.133   2.149   5.807
21850WAT      O65791   9.183   9.304   2.887
21850WAT     H165792   9.208   9.237   2.817
21850WAT     H265793   9.084   9.304   2.900
21851WAT      O65794   9.476   2.452   9.332
21851WAT     H165795   9.421   2.383   9.379
21851WAT     H265796   9.572   2.440   9.356
21852WAT      O65797   6.503   2.461   2.468
21852WAT     H165798   6.418   2.511   2.480
21852WAT     H265799   6.580   2.525   2.467
21853WAT      O65800   0.871   2.875   7.727
21853WAT     H165801   0.867   2.945   7.655
21853WAT     H265802   0.792   2.814   7.718
21854WAT      O65803   5.179   3.105   3.061
21854WAT     H165804   5.265   3.060   3.041
21854WAT     H265805   5.113   3.088   2.987
21855WAT      O65806   8.978   4.368   4.458
21855WAT     H165807   8.902   4.362   4.393
21855WAT     H265808   8.962   4.444   4.521
21856WAT      O65809   5.003   4.781   7.190
21856WAT     H165810   4.921   4.790   7.134
21856WAT     H265811   4.986   4.822   7.280
21857WAT      O65812   1.668   0.095   3.162
21857WAT     H165813   1.702   0.177   3.115
21857WAT     H265814   1.743   0.031   3.177
21858WAT      O65815   1.133   5.136   8.603
21858WAT     H165816   1.227   5.167   8.585
21858WAT     H265817   1.122   5.043   8.570
21859WAT      O65818   5.403   2.709   1.513
21859WAT     H165819   5.466   2.664   1.576
21859WAT     H265820   5.372   2.795   1.554
21860WAT      O65821   7.338   1.366   7.829
21860WAT     H165822   7.437   1.365   7.812
21860WAT     H265823   7.313   1.450   7.876
21861WAT      O65824   2.420   5.265   7.910
21861WAT     H165825   2.396   5.178   7.866
21861WAT     H265826   2.486   5.247   7.983
21862WAT      O65827   0.564   0.215   6.209
21862WAT     H165828   0.646   0.233   6.265
21862WAT     H265829   0.523   0.302   6.181
21863WAT      O65830   8.066   8.173   6.079
21863WAT     H165831   8.138   8.241   6.061
21863WAT     H265832   8.105   8.096   6.130
21864WAT      O65833   0.872   5.765   5.059
21864WAT     H165834   0.820   5.844   5.091
21864WAT     H265835   0.952   5.751   5.117
21865WAT      O65836   5.445   8.500   0.968
21865WAT     H165837   5.525   8.451   1.001
21865WAT     H265838   5.447   8.504   0.868
21866WAT      O65839   8.590   7.336   5.521
21866WAT     H165840   8.565   7.251   5.475
21866WAT     H265841   8.610   7.406   5.453
21867WAT      O65842   9.805   2.346   2.652
21867WAT     H165843   9.767   2.390   2.570
21867WAT     H265844   9.811   2.413   2.726
21868WAT      O65845   2.029   2.459   5.757
21868WAT     H165846   1.939   2.455   5.713
21868WAT     H265847   2.026   2.406   5.842
21869WAT      O65848   7.780   8.230   7.502
21869WAT     H165849   7.715   8.306   7.507
21869WAT     H265850   7.830   8.235   7.416
21870WAT      O65851   7.564   9.291   1.082
21870WAT     H165852   7.503   9.309   1.160
21870WAT     H265853   7.558   9.366   1.016
21871WAT      O65854   4.836   1.735   7.964
21871WAT     H165855   4.836   1.806   8.034
21871WAT     H265856   4.808   1.775   7.876
21872WAT      O65857   0.772   3.080   0.006
21872WAT     H165858   0.779   3.139  -0.075
21872WAT     H265859   0.726   3.130   0.080
21873WAT      O65860   6.329   7.568   3.515
21873WAT     H165861   6.248   7.625   3.533
21873WAT     H265862   6.331   7.492   3.579
21874WAT      O65863   8.719   4.538   7.923
21874WAT     H165864   8.769   4.580   7.997
21874WAT     H265865   8.641   4.486   7.960
21875WAT      O65866   8.826   8.298   6.901
21875WAT     H165867   8.746   8.286   6.843
21875WAT     H265868   8.851   8.395   6.904
21876WAT      O65869   2.193   0.705   3.547
21876WAT     H165870   2.271   0.659   3.588
21876WAT     H265871   2.223   0.787   3.500
21877WAT      O65872   5.996   8.264   1.426
21877WAT     H165873   5.926   8.249   1.496
21877WAT     H265874   6.025   8.360   1.427
21878WAT      O65875   5.964   4.417   9.424
21878WAT     H165876   5.941   4.363   9.343
21878WAT     H265877   6.051   4.464   9.408
21879WAT      O65878   3.777   3.676   8.962
21879WAT     H165879   3.815   3.759   8.922
21879WAT     H265880   3.840   3.641   9.032
21880WAT      O65881   7.894   9.541   6.765
21880WAT     H165882   7.922   9.475   6.834
21880WAT     H265883   7.975   9.574   6.715
21881WAT      O65884   2.962   4.106   4.733
21881WAT     H165885   2.964   4.007   4.722
21881WAT     H265886   2.969   4.128   4.831
21882WAT      O65887   0.316   1.786   8.531
21882WAT     H165888   0.350   1.695   8.507
21882WAT     H265889   0.274   1.828   8.451
21883WAT      O65890   7.582   2.692   7.212
21883WAT     H165891   7.675   2.723   7.232
21883WAT     H265892   7.522   2.717   7.289
21884WAT      O65893   8.123   2.033   6.582
21884WAT     H165894   8.176   2.088   6.647
21884WAT     H265895   8.047   1.990   6.630
21885WAT      O65896   4.169   7.007   9.870
21885WAT     H165897   4.131   6.982   9.959
21885WAT     H265898   4.128   6.949   9.799
21886WAT      O65899   5.093   6.580   6.983
21886WAT     H165900   5.148   6.637   7.044
21886WAT     H265901   5.147   6.556   6.903
21887WAT      O65902   4.909   3.625   9.814
21887WAT     H165903   4.999   3.596   9.848
21887WAT     H265904   4.917   3.714   9.769
21888WAT      O65905   0.813   6.769   4.220
21888WAT     H165906   0.713   6.773   4.218
21888WAT     H265907   0.848   6.853   4.262
21889WAT      O65908   6.137   2.408   0.164
21889WAT     H165909   6.153   2.311   0.146
21889WAT     H265910   6.051   2.420   0.214
21890WAT      O65911   2.993   1.016   8.915
21890WAT     H165912   2.951   0.993   9.002
21890WAT     H265913   3.084   0.975   8.910
21891WAT      O65914   2.612   6.874   5.205
21891WAT     H165915   2.548   6.879   5.128
21891WAT     H265916   2.578   6.808   5.271
21892WAT      O65917   6.670   4.541   6.923
21892WAT     H165918   6.589   4.537   6.863
21892WAT     H265919   6.641   4.535   7.018
21893WAT      O65920   9.349   5.743   2.704
21893WAT     H165921   9.429   5.707   2.657
21893WAT     H265922   9.378   5.793   2.786
21894WAT      O65923   3.379   7.204   9.433
21894WAT     H165924   3.342   7.212   9.526
21894WAT     H265925   3.319   7.253   9.369
21895WAT      O65926   9.712   0.652   3.470
21895WAT     H165927   9.727   0.559   3.435
21895WAT     H265928   9.616   0.677   3.457
21896WAT      O65929   1.780   3.151   6.071
21896WAT     H165930   1.777   3.162   5.972
21896WAT     H265931   1.751   3.236   6.115
21897WAT      O65932   7.138   2.006   5.181
21897WAT     H165933   7.139   1.923   5.126
21897WAT     H265934   7.230   2.046   5.183
21898WAT      O65935   2.213   0.115   4.661
21898WAT     H165936   2.308   0.086   4.652
21898WAT     H265937   2.191   0.179   4.586
21899WAT      O65938   3.873   9.145   9.588
21899WAT     H165939   3.942   9.152   9.516
21899WAT     H265940   3.913   9.169   9.676
21900WAT      O65941   1.635   8.333   5.492
21900WAT     H165942   1.721   8.335   5.542
21900WAT     H265943   1.653   8.304   5.397
21901WAT      O65944   0.601   8.714   1.271
21901WAT     H165945   0.623   8.802   1.228
21901WAT     H265946   0.676   8.650   1.255
21902WAT      O65947   4.677   3.106   3.333
21902WAT     H165948   4.590   3.096   3.285
21902WAT     H265949   4.723   3.190   3.303
21903WAT      O65950   4.061   2.409   8.673
21903WAT     H165951   3.970   2.445   8.649
21903WAT     H265952   4.093   2.348   8.601
21904WAT      O65953   0.527   1.945   8.333
21904WAT     H165954   0.567   1.855   8.346
21904WAT     H265955   0.509   1.960   8.236
21905WAT      O65956   4.509   4.783   1.544
21905WAT     H165957   4.441   4.771   1.616
21905WAT     H265958   4.551   4.695   1.521
21906WAT      O65959   7.146   9.106   6.784
21906WAT     H165960   7.069   9.047   6.809
21906WAT     H265961   7.132   9.198   6.821
21907WAT      O65962   9.269   0.667   9.843
21907WAT     H165963   9.271   0.761   9.879
21907WAT     H265964   9.362   0.630   9.843
21908WAT      O65965   2.722   8.483   7.587
21908WAT     H165966   2.812   8.480   7.629
21908WAT     H265967   2.698   8.392   7.552
21909WAT      O65968   3.020   8.023   6.476
21909WAT     H165969   3.034   8.113   6.516
21909WAT     H265970   3.082   8.012   6.398
21910WAT      O65971   7.819   1.110   6.279
21910WAT     H165972   7.755   1.140   6.350
21910WAT     H265973   7.834   1.012   6.288
21911WAT      O65974   6.942   9.731   1.471
21911WAT     H165975   6.990   9.721   1.384
21911WAT     H265976   6.980   9.666   1.537
21912WAT      O65977   7.988   6.988   8.926
21912WAT     H165978   7.983   6.964   9.023
21912WAT     H265979   8.042   6.920   8.877
21913WAT      O65980   6.829   5.213   2.418
21913WAT     H165981   6.855   5.116   2.415
21913WAT     H265982   6.865   5.259   2.336
21914WAT      O65983   8.707   8.531   6.197
21914WAT     H165984   8.690   8.498   6.104
21914WAT     H265985   8.755   8.461   6.249
21915WAT      O65986   0.345   5.179   4.265
21915WAT     H165987   0.293   5.225   4.337
21915WAT     H265988   0.282   5.131   4.204
21916WAT      O65989   0.458   5.478   2.571
21916WAT     H165990   0.435   5.434   2.658
21916WAT     H265991   0.406   5.436   2.497
21917WAT      O65992   2.717   6.701   6.986
21917WAT     H165993   2.814   6.723   6.981
21917WAT     H265994   2.668   6.775   7.032
21918WAT      O65995   3.151   1.988   3.457
21918WAT     H165996   3.142   2.085   3.434
21918WAT     H265997   3.206   1.979   3.540
21919WAT      O65998   2.299   3.998   8.340
21919WAT     H165999   2.318   3.915   8.288
21919WAT     H266000   2.365   4.069   8.313
21920WAT      O66001   7.563   8.249   8.570
21920WAT     H166002   7.647   8.302   8.559
21920WAT     H266003   7.520   8.236   8.481
21921WAT      O66004   4.213   8.832   5.837
21921WAT     H166005   4.269   8.783   5.770
21921WAT     H266006   4.116   8.822   5.813
21922WAT      O66007   6.145   1.725   3.841
21922WAT     H166008   6.057   1.769   3.825
21922WAT     H266009   6.188   1.764   3.922
21923WAT      O66010   1.659   8.985   0.595
21923WAT     H166011   1.658   9.081   0.568
21923WAT     H266012   1.731   8.970   0.663
21924WAT      O66013   7.390   1.837   7.701
21924WAT     H166014   7.443   1.797   7.776
21924WAT     H266015   7.397   1.937   7.704
21925WAT      O66016   5.016   1.629   4.041
21925WAT     H166017   4.921   1.610   4.017
21925WAT     H266018   5.055   1.692   3.974
21926WAT      O66019   6.205   0.959   9.753
21926WAT     H166020   6.213   1.000   9.844
21926WAT     H266021   6.213   1.030   9.683
21927WAT      O66022   5.521   0.949   3.762
21927WAT     H166023   5.508   0.985   3.854
21927WAT     H266024   5.615   0.969   3.732
21928WAT      O66025   1.924   2.047   0.889
21928WAT     H166026   1.999   2.047   0.954
21928WAT     H266027   1.938   2.120   0.822
21929WAT      O66028   4.108   4.602   1.757
21929WAT     H166029   4.072   4.616   1.665
21929WAT     H266030   4.106   4.505   1.779
21930WAT      O66031   2.664   6.566   3.759
21930WAT     H166032   2.568   6.582   3.734
21930WAT     H266033   2.721   6.637   3.717
21931WAT      O66034   3.030   3.058   0.566
21931WAT     H166035   3.097   3.027   0.498
21931WAT     H266036   3.079   3.088   0.649
21932WAT      O66037   2.989   7.586   3.945
21932WAT     H166038   3.001   7.537   3.859
21932WAT     H266039   2.892   7.609   3.957
21933WAT      O66040   7.032   5.912   3.646
21933WAT     H166041   7.102   5.979   3.620
21933WAT     H266042   7.029   5.838   3.579
21934WAT      O66043   7.977   6.489   9.820
21934WAT     H166044   7.939   6.448   9.738
21934WAT     H266045   8.050   6.431   9.856
21935WAT      O66046   2.999   7.889   6.736
21935WAT     H166047   2.992   7.948   6.656
21935WAT     H266048   3.026   7.945   6.815
21936WAT      O66049   0.324   1.104   3.602
21936WAT     H166050   0.384   1.183   3.592
21936WAT     H266051   0.330   1.069   3.696
21937WAT      O66052   2.298   2.513   4.609
21937WAT     H166053   2.257   2.422   4.613
21937WAT     H266054   2.231   2.581   4.638
21938WAT      O66055   0.845   0.430   4.966
21938WAT     H166056   0.759   0.431   5.016
21938WAT     H266057   0.870   0.524   4.942
21939WAT      O66058   8.118   5.578   1.428
21939WAT     H166059   8.067   5.631   1.360
21939WAT     H266060   8.060   5.506   1.464
21940WAT      O66061   7.622   5.491   5.540
21940WAT     H166062   7.643   5.397   5.568
21940WAT     H266063   7.619   5.496   5.441
21941WAT      O66064   4.915   5.304   1.403
21941WAT     H166065   4.963   5.390   1.424
21941WAT     H266066   4.981   5.233   1.381
21942WAT      O66067   3.222   5.271   1.878
21942WAT     H166068   3.210   5.181   1.836
21942WAT     H266069   3.148   5.331   1.847
21943WAT      O66070   4.658   1.980   1.593
21943WAT     H166071   4.651   1.887   1.555
21943WAT     H266072   4.749   2.017   1.572
21944WAT      O66073   0.098   1.796   4.468
21944WAT     H166074   0.193   1.802   4.498
21944WAT     H266075   0.091   1.827   4.374
21945WAT      O66076   0.765   9.734   3.111
21945WAT     H166077   0.761   9.834   3.100
21945WAT     H266078   0.856   9.709   3.146
21946WAT      O66079   3.991   3.550   3.247
21946WAT     H166080   4.034   3.554   3.157
21946WAT     H266081   4.033   3.618   3.307
21947WAT      O66082   7.240   5.931   5.051
21947WAT     H166083   7.188   5.866   4.997
21947WAT     H266084   7.221   6.024   5.020
21948WAT      O66085   4.619   4.521   1.518
21948WAT     H166086   4.623   4.451   1.447
21948WAT     H266087   4.710   4.532   1.558
21949WAT      O66088   4.536   2.441   2.265
21949WAT     H166089   4.546   2.540   2.277
21949WAT     H266090   4.543   2.396   2.354
21950WAT      O66091   5.073   8.744   0.875
21950WAT     H166092   5.098   8.647   0.883
21950WAT     H266093   5.153   8.801   0.892
21951WAT      O66094   4.569   7.930   0.550
21951WAT     H166095   4.536   7.851   0.498
21951WAT     H266096   4.563   8.012   0.493
21952WAT      O66097   9.016   1.147   2.207
21952WAT     H166098   9.000   1.216   2.135
21952WAT     H266099   8.998   1.188   2.296
21953WAT      O66100   0.830   0.636   0.399
21953WAT     H166101   0.818   0.620   0.497
21953WAT     H266102   0.927   0.644   0.377
21954WAT      O66103   8.193   1.284   2.060
21954WAT     H166104   8.192   1.276   1.961
21954WAT     H266105   8.250   1.362   2.087
21955WAT      O66106   0.535   6.691   0.240
21955WAT     H166107   0.551   6.612   0.180
21955WAT     H266108   0.536   6.660   0.335
21956WAT      O66109   4.027   9.240   7.925
21956WAT     H166110   4.006   9.155   7.877
21956WAT     H266111   4.126   9.247   7.940
21957WAT      O66112   4.377   3.716   6.595
21957WAT     H166113   4.368   3.681   6.501
21957WAT     H266114   4.365   3.640   6.659
21958WAT      O66115   3.772   8.917   2.648
21958WAT     H166116   3.714   8.871   2.715
21958WAT     H266117   3.723   8.929   2.562
21959WAT      O66118   7.753   0.740   7.490
21959WAT     H166119   7.750   0.736   7.390
21959WAT     H266120   7.847   0.729   7.521
21960WAT      O66121   6.897   0.037   8.775
21960WAT     H166122   6.886   0.136   8.766
21960WAT     H266123   6.829   0.002   8.840
21961WAT      O66124   3.899   6.273   6.546
21961WAT     H166125   3.800   6.263   6.530
21961WAT     H266126   3.924   6.226   6.631
21962WAT      O66127   0.153   2.448   0.943
21962WAT     H166128   0.182   2.543   0.951
21962WAT     H266129   0.188   2.395   1.020
21963WAT      O66130   9.286   6.814   2.125
21963WAT     H166131   9.369   6.816   2.069
21963WAT     H266132   9.262   6.908   2.153
21964WAT      O66133   9.185   5.522   5.031
21964WAT     H166134   9.175   5.620   5.015
21964WAT     H266135   9.195   5.474   4.943
21965WAT      O66136   7.379   5.507   6.989
21965WAT     H166137   7.477   5.527   6.992
21965WAT     H266138   7.330   5.567   7.053
21966WAT      O66139   5.863   0.095   7.429
21966WAT     H166140   5.849  -0.002   7.449
21966WAT     H266141   5.776   0.137   7.404
21967WAT      O66142   9.140   8.401   1.904
21967WAT     H166143   9.067   8.451   1.950
21967WAT     H266144   9.161   8.318   1.955
21968WAT      O66145   5.723   2.525   8.559
21968WAT     H166146   5.732   2.439   8.508
21968WAT     H266147   5.655   2.583   8.514
21969WAT      O66148   4.715   2.634   1.275
21969WAT     H166149   4.728   2.591   1.364
21969WAT     H266150   4.750   2.727   1.277
21970WAT      O66151   8.352   2.808   3.944
21970WAT     H166152   8.380   2.875   3.876
21970WAT     H266153   8.425   2.794   4.011
21971WAT      O66154   9.060   9.818   5.632
21971WAT     H166155   9.149   9.795   5.593
21971WAT     H266156   9.072   9.874   5.714
21972WAT      O66157   6.606   5.865   2.339
21972WAT     H166158   6.647   5.955   2.354
21972WAT     H266159   6.506   5.874   2.337
21973WAT      O66160   5.349   2.251   0.928
21973WAT     H166161   5.441   2.232   0.896
21973WAT     H266162   5.286   2.253   0.850
21974WAT      O66163   6.846   7.688   0.739
21974WAT     H166164   6.766   7.748   0.748
21974WAT     H266165   6.851   7.627   0.818
21975WAT      O66166   9.798   1.999   3.350
21975WAT     H166167   9.813   2.062   3.427
21975WAT     H266168   9.860   2.022   3.275
21976WAT      O66169   6.416   4.591   8.303
21976WAT     H166170   6.388   4.615   8.396
21976WAT     H266171   6.389   4.497   8.283
21977WAT      O66172   3.045   3.320   1.556
21977WAT     H166173   3.100   3.362   1.484
21977WAT     H266174   3.082   3.230   1.578
21978WAT      O66175   0.572   6.190   3.541
21978WAT     H166176   0.662   6.232   3.532
21978WAT     H266177   0.582   6.097   3.577
21979WAT      O66178   2.438   0.432   1.964
21979WAT     H166179   2.398   0.490   1.892
21979WAT     H266180   2.534   0.414   1.942
21980WAT      O66181   3.356   9.326   6.112
21980WAT     H166182   3.262   9.304   6.086
21980WAT     H266183   3.391   9.255   6.173
21981WAT      O66184   9.785   7.866   6.915
21981WAT     H166185   9.774   7.869   7.015
21981WAT     H266186   9.697   7.880   6.871
21982WAT      O66187   3.850   3.758   7.215
21982WAT     H166188   3.766   3.803   7.185
21982WAT     H266189   3.929   3.813   7.186
21983WAT      O66190   3.423   0.391   4.022
21983WAT     H166191   3.509   0.386   4.074
21983WAT     H266192   3.353   0.337   4.068
21984WAT      O66193   4.121   0.665   0.148
21984WAT     H166194   4.064   0.646   0.228
21984WAT     H266195   4.064   0.706   0.077
21985WAT      O66196   2.973   4.548   6.476
21985WAT     H166197   3.041   4.619   6.454
21985WAT     H266198   2.903   4.547   6.404
21986WAT      O66199   6.651   0.620   7.538
21986WAT     H166200   6.740   0.666   7.545
21986WAT     H266201   6.658   0.527   7.574
21987WAT      O66202   8.450   1.949   7.002
21987WAT     H166203   8.414   2.002   7.078
21987WAT     H266204   8.389   1.872   6.983
21988WAT      O66205   8.292   5.723   3.447
21988WAT     H166206   8.294   5.766   3.357
21988WAT     H266207   8.228   5.771   3.506
21989WAT      O66208   9.381   7.550   6.838
21989WAT     H166209   9.295   7.512   6.803
21989WAT     H266210   9.373   7.649   6.849
21990WAT      O66211   6.399   4.039   6.090
21990WAT     H166212   6.299   4.041   6.083
21990WAT     H266213   6.439   4.091   6.015
21991WAT      O66214   3.063   9.315   0.499
21991WAT     H166215   2.999   9.388   0.523
21991WAT     H266216   3.024   9.261   0.424
21992WAT      O66217   6.506   4.487   7.866
21992WAT     H166218   6.552   4.571   7.839
21992WAT     H266219   6.558   4.408   7.833
21993WAT      O66220   1.898   5.837   2.527
21993WAT     H166221   1.873   5.909   2.593
21993WAT     H266222   1.864   5.862   2.437
21994WAT      O66223   2.770   2.131   8.538
21994WAT     H166224   2.736   2.225   8.540
21994WAT     H266225   2.757   2.090   8.628
21995WAT      O66226   4.907   8.679   4.500
21995WAT     H166227   4.960   8.624   4.565
21995WAT     H266228   4.840   8.620   4.454
21996WAT      O66229   1.192   0.035   3.116
21996WAT     H166230   1.128  -0.014   3.175
21996WAT     H266231   1.240   0.105   3.170
21997WAT      O66232   1.562   4.213   3.444
21997WAT     H166233   1.586   4.154   3.521
21997WAT     H266234   1.503   4.287   3.476
21998WAT      O66235   5.052   4.536   8.118
21998WAT     H166236   5.057   4.488   8.206
21998WAT     H266237   5.058   4.634   8.133
21999WAT      O66238   2.192   8.328   5.299
21999WAT     H166239   2.191   8.228   5.305
21999WAT     H266240   2.273   8.358   5.249
22000WAT      O66241   9.068   1.967   5.781
22000WAT     H166242   9.092   2.002   5.690
22000WAT     H266243   8.994   2.022   5.819
22001WAT      O66244   1.265   7.474   8.475
22001WAT     H166245   1.175   7.481   8.518
22001WAT     H266246   1.322   7.409   8.526
22002WAT      O66247   8.587   6.653   4.618
22002WAT     H166248   8.560   6.749   4.612
22002WAT     H266249   8.542   6.601   4.545
22003WAT      O66250   2.274   1.671   5.420
22003WAT     H166251   2.352   1.734   5.428
22003WAT     H266252   2.195   1.710   5.468
22004WAT      O66253   0.308   0.155   3.077
22004WAT     H166254   0.329   0.172   3.173
22004WAT     H266255   0.249   0.074   3.070
22005WAT      O66256   8.111   1.437   2.826
22005WAT     H166257   8.184   1.415   2.763
22005WAT     H266258   8.055   1.511   2.788
22006WAT      O66259   7.826   8.256   5.577
22006WAT     H166260   7.773   8.313   5.514
22006WAT     H266261   7.764   8.191   5.622
22007WAT      O66262   4.368   2.763   4.155
22007WAT     H166263   4.445   2.700   4.166
22007WAT     H266264   4.343   2.768   4.058
22008WAT      O66265   1.111   1.446   1.387
22008WAT     H166266   1.061   1.519   1.341
22008WAT     H266267   1.191   1.484   1.433
22009WAT      O66268   6.303   6.927   9.743
22009WAT     H166269   6.218   6.904   9.696
22009WAT     H266270   6.301   6.891   9.836
22010WAT      O66271   5.257   7.287   1.178
22010WAT     H166272   5.281   7.361   1.115
22010WAT     H266273   5.205   7.217   1.129
22011WAT      O66274   1.174   7.648   5.175
22011WAT     H166275   1.076   7.638   5.191
22011WAT     H266276   1.215   7.557   5.164
22012WAT      O66277   8.086   3.811   8.961
22012WAT     H166278   8.104   3.867   9.041
22012WAT     H266279   8.100   3.866   8.878
22013WAT      O66280   5.518   5.372   1.504
22013WAT     H166281   5.583   5.305   1.540
22013WAT     H266282   5.532   5.381   1.405
22014WAT      O66283   6.757   5.843   4.229
22014WAT     H166284   6.832   5.907   4.245
22014WAT     H266285   6.768   5.764   4.289
22015WAT      O66286   8.970   6.669   7.527
22015WAT     H166287   9.032   6.632   7.457
22015WAT     H266288   8.890   6.611   7.534
22016WAT      O66289   4.812   9.792   8.664
22016WAT     H166290   4.797   9.740   8.580
22016WAT     H266291   4.873   9.741   8.724
22017WAT      O66292   7.283   1.080   7.867
22017WAT     H166293   7.280   1.180   7.865
22017WAT     H266294   7.375   1.049   7.890
22018WAT      O66295   6.562   6.060   4.170
22018WAT     H166296   6.501   6.029   4.097
22018WAT     H266297   6.622   5.986   4.198
22019WAT      O66298   4.982   9.354   9.414
22019WAT     H166299   4.954   9.331   9.507
22019WAT     H266300   4.988   9.453   9.404
22020WAT      O66301   9.627   4.483   1.074
22020WAT     H166302   9.686   4.504   1.153
22020WAT     H266303   9.579   4.397   1.090
22021WAT      O66304   2.540   5.748   5.471
22021WAT     H166305   2.490   5.724   5.554
22021WAT     H266306   2.613   5.812   5.494
22022WAT      O66307   8.857   1.780   4.240
22022WAT     H166308   8.757   1.778   4.251
22022WAT     H266309   8.885   1.868   4.203
22023WAT      O66310   5.393   9.149   6.716
22023WAT     H166311   5.478   9.107   6.748
22023WAT     H266312   5.398   9.248   6.730
22024WAT      O66313   8.834   2.615   0.143
22024WAT     H166314   8.756   2.668   0.109
22024WAT     H266315   8.837   2.527   0.096
22025WAT      O66316   1.468   7.445   7.104
22025WAT     H166317   1.430   7.523   7.052
22025WAT     H266318   1.399   7.373   7.111
22026WAT      O66319   5.524   1.761   4.799
22026WAT     H166320   5.437   1.796   4.764
22026WAT     H266321   5.556   1.686   4.742
22027WAT      O66322   6.339   3.143   4.584
22027WAT     H166323   6.241   3.153   4.571
22027WAT     H266324   6.358   3.052   4.623
22028WAT      O66325   8.622   6.412   5.036
22028WAT     H166326   8.695   6.344   5.028
22028WAT     H266327   8.534   6.366   5.033
22029WAT      O66328   2.555   5.674   6.437
22029WAT     H166329   2.475   5.696   6.493
22029WAT     H266330   2.528   5.671   6.341
22030WAT      O66331   6.232   1.475   3.853
22030WAT     H166332   6.191   1.567   3.852
22030WAT     H266333   6.160   1.407   3.839
22031WAT      O66334   4.556   4.577   3.120
22031WAT     H166335   4.568   4.619   3.210
22031WAT     H266336   4.479   4.621   3.074
22032WAT      O66337   1.164   8.346   0.292
22032WAT     H166338   1.201   8.387   0.376
22032WAT     H266339   1.218   8.376   0.214
22033WAT      O66340   4.735   0.277   1.092
22033WAT     H166341   4.785   0.201   1.134
22033WAT     H266342   4.710   0.252   0.998
22034WAT      O66343   4.374   3.524   3.705
22034WAT     H166344   4.379   3.425   3.691
22034WAT     H266345   4.465   3.563   3.701
22035WAT      O66346   3.624   6.696   6.078
22035WAT     H166347   3.603   6.603   6.107
22035WAT     H266348   3.573   6.761   6.135
22036WAT      O66349   4.684   5.561   3.779
22036WAT     H166350   4.755   5.496   3.807
22036WAT     H266351   4.664   5.623   3.855
22037WAT      O66352   9.831   6.638   7.219
22037WAT     H166353   9.842   6.557   7.163
22037WAT     H266354   9.912   6.696   7.212
22038WAT      O66355   0.636   3.972   7.591
22038WAT     H166356   0.593   4.024   7.666
22038WAT     H266357   0.734   3.992   7.588
22039WAT      O66358   3.858   3.227   1.461
22039WAT     H166359   3.776   3.249   1.514
22039WAT     H266360   3.933   3.288   1.488
22040WAT      O66361   3.524   8.095   1.553
22040WAT     H166362   3.570   8.150   1.623
22040WAT     H266363   3.455   8.037   1.595
22041WAT      O66364   3.479   9.581   6.828
22041WAT     H166365   3.395   9.626   6.857
22041WAT     H266366   3.469   9.482   6.837
22042WAT      O66367   3.733   9.664   3.892
22042WAT     H166368   3.760   9.749   3.847
22042WAT     H266369   3.814   9.617   3.927
22043WAT      O66370   1.350   1.522   0.232
22043WAT     H166371   1.320   1.427   0.222
22043WAT     H266372   1.449   1.525   0.244
22044WAT      O66373   8.065   3.176   4.788
22044WAT     H166374   8.133   3.156   4.717
22044WAT     H266375   8.077   3.113   4.864
22045WAT      O66376   5.307   8.907   8.678
22045WAT     H166377   5.270   8.999   8.663
22045WAT     H266378   5.236   8.839   8.657
22046WAT      O66379   4.533   1.396   1.370
22046WAT     H166380   4.559   1.462   1.299
22046WAT     H266381   4.536   1.303   1.333
22047WAT      O66382   4.450   0.293   5.793
22047WAT     H166383   4.480   0.315   5.700
22047WAT     H266384   4.517   0.234   5.837
22048WAT      O66385   2.712   5.842   4.431
22048WAT     H166386   2.726   5.796   4.343
22048WAT     H266387   2.614   5.853   4.447
22049WAT      O66388   6.857   4.132   4.297
22049WAT     H166389   6.880   4.125   4.200
22049WAT     H266390   6.787   4.202   4.310
22050WAT      O66391   7.786   4.720   0.780
22050WAT     H166392   7.820   4.626   0.777
22050WAT     H266393   7.789   4.754   0.873
22051WAT      O66394   7.300   9.599   1.402
22051WAT     H166395   7.355   9.531   1.451
22051WAT     H266396   7.358   9.677   1.377
22052WAT      O66397   3.133   1.448   5.915
22052WAT     H166398   3.050   1.394   5.925
22052WAT     H266399   3.133   1.522   5.982
22053WAT      O66400   9.117   0.968   6.938
22053WAT     H166401   9.108   1.024   7.020
22053WAT     H266402   9.051   0.893   6.942
22054WAT      O66403   6.667   5.847   7.525
22054WAT     H166404   6.763   5.838   7.551
22054WAT     H266405   6.612   5.785   7.580
22055WAT      O66406   1.774   5.955   3.299
22055WAT     H166407   1.793   6.018   3.374
22055WAT     H266408   1.747   5.866   3.336
22056WAT      O66409   2.967   1.815   5.919
22056WAT     H166410   3.007   1.729   5.950
22056WAT     H266411   3.011   1.891   5.966
22057WAT      O66412   7.501   2.844   2.094
22057WAT     H166413   7.596   2.813   2.084
22057WAT     H266414   7.441   2.782   2.043
22058WAT      O66415   4.650   1.521   3.514
22058WAT     H166416   4.597   1.582   3.572
22058WAT     H266417   4.717   1.471   3.569
22059WAT      O66418   4.821   3.111   3.564
22059WAT     H166419   4.752   3.123   3.493
22059WAT     H266420   4.911   3.139   3.528
22060WAT      O66421   9.215   3.444   8.330
22060WAT     H166422   9.304   3.414   8.295
22060WAT     H266423   9.222   3.539   8.362
22061WAT      O66424   3.201   7.337   2.895
22061WAT     H166425   3.168   7.248   2.926
22061WAT     H266426   3.290   7.327   2.852
22062WAT      O66427   1.444   9.700   5.548
22062WAT     H166428   1.521   9.712   5.485
22062WAT     H266429   1.373   9.645   5.503
22063WAT      O66430   2.049   5.733   4.977
22063WAT     H166431   2.072   5.828   4.955
22063WAT     H266432   2.037   5.723   5.076
22064WAT      O66433   1.362   2.211   6.467
22064WAT     H166434   1.348   2.165   6.555
22064WAT     H266435   1.319   2.301   6.469
22065WAT      O66436   5.435   6.307   0.255
22065WAT     H166437   5.480   6.394   0.277
22065WAT     H266438   5.337   6.322   0.246
22066WAT      O66439   1.249   8.010   7.949
22066WAT     H166440   1.270   7.968   8.037
22066WAT     H266441   1.172   8.073   7.960
22067WAT      O66442   1.542   3.554   3.739
22067WAT     H166443   1.495   3.481   3.789
22067WAT     H266444   1.581   3.518   3.655
22068WAT      O66445   6.724   0.022   6.119
22068WAT     H166446   6.750  -0.025   6.203
22068WAT     H266447   6.672   0.104   6.142
22069WAT      O66448   1.836   1.179   5.502
22069WAT     H166449   1.908   1.229   5.453
22069WAT     H266450   1.751   1.183   5.450
22070WAT      O66451   6.086   5.139   8.738
22070WAT     H166452   6.087   5.182   8.648
22070WAT     H266453   6.115   5.044   8.730
22071WAT      O66454   2.851   3.353   0.739
22071WAT     H166455   2.809   3.267   0.711
22071WAT     H266456   2.903   3.391   0.663
22072WAT      O66457   4.942   4.382   2.750
22072WAT     H166458   4.890   4.350   2.829
22072WAT     H266459   4.894   4.358   2.666
22073WAT      O66460   0.521   3.783   9.602
22073WAT     H166461   0.492   3.762   9.696
22073WAT     H266462   0.487   3.714   9.540
22074WAT      O66463   3.716   7.750   4.526
22074WAT     H166464   3.780   7.812   4.481
22074WAT     H266465   3.764   7.700   4.598
22075WAT      O66466   2.312   0.714   1.386
22075WAT     H166467   2.270   0.624   1.398
22075WAT     H266468   2.351   0.745   1.473
22076WAT      O66469   0.648   2.066   0.090
22076WAT     H166470   0.562   2.088   0.135
22076WAT     H266471   0.700   2.001   0.147
22077WAT      O66472   6.810   5.442   3.281
22077WAT     H166473   6.880   5.427   3.212
22077WAT     H266474   6.802   5.361   3.339
22078WAT      O66475   4.867   3.664   6.014
22078WAT     H166476   4.773   3.631   6.025
22078WAT     H266477   4.880   3.699   5.922
22079WAT      O66478   6.556   4.970   1.942
22079WAT     H166479   6.501   5.054   1.938
22079WAT     H266480   6.543   4.926   2.031
22080WAT      O66481   7.672   5.348   1.534
22080WAT     H166482   7.706   5.312   1.447
22080WAT     H266483   7.611   5.426   1.516
22081WAT      O66484   3.282   2.500   9.629
22081WAT     H166485   3.364   2.539   9.586
22081WAT     H266486   3.303   2.476   9.724
22082WAT      O66487   5.034   4.222   7.331
22082WAT     H166488   5.133   4.237   7.326
22082WAT     H266489   5.009   4.193   7.423
22083WAT      O66490   4.679   4.311   5.726
22083WAT     H166491   4.751   4.339   5.789
22083WAT     H266492   4.718   4.257   5.652
22084WAT      O66493   0.463   8.334   3.073
22084WAT     H166494   0.415   8.326   3.160
22084WAT     H266495   0.439   8.420   3.029
22085WAT      O66496   6.492   0.743   2.060
22085WAT     H166497   6.547   0.824   2.040
22085WAT     H266498   6.445   0.755   2.148
22086WAT      O66499   2.502   8.427   2.241
22086WAT     H166500   2.418   8.373   2.234
22086WAT     H266501   2.577   8.378   2.194
22087WAT      O66502   4.098   5.829   4.466
22087WAT     H166503   4.099   5.772   4.383
22087WAT     H266504   4.114   5.772   4.546
22088WAT      O66505   8.589   5.798   6.229
22088WAT     H166506   8.664   5.862   6.247
22088WAT     H266507   8.556   5.761   6.316
22089WAT      O66508   6.165   1.874   0.018
22089WAT     H166509   6.215   1.810   0.075
22089WAT     H266510   6.096   1.825  -0.035
22090WAT      O66511   5.236   1.927   5.685
22090WAT     H166512   5.213   1.831   5.671
22090WAT     H266513   5.229   1.950   5.782
22091WAT      O66514   0.996   3.683   1.407
22091WAT     H166515   1.063   3.756   1.425
22091WAT     H266516   0.904   3.716   1.429
22092WAT      O66517   2.418   2.935   6.840
22092WAT     H166518   2.373   2.849   6.820
22092WAT     H266519   2.490   2.921   6.908
22093WAT      O66520   0.905   8.943   8.614
22093WAT     H166521   0.953   8.881   8.552
22093WAT     H266522   0.955   9.030   8.619
22094WAT      O66523   2.921   0.667   5.030
22094WAT     H166524   2.927   0.739   4.960
22094WAT     H266525   3.012   0.650   5.067
22095WAT      O66526   8.821   3.885   5.694
22095WAT     H166527   8.825   3.982   5.720
22095WAT     H266528   8.748   3.873   5.626
22096WAT      O66529   3.310   6.483   1.996
22096WAT     H166530   3.391   6.515   2.045
22096WAT     H266531   3.295   6.539   1.915
22097WAT      O66532   1.360   6.795   9.490
22097WAT     H166533   1.367   6.890   9.522
22097WAT     H266534   1.266   6.764   9.497
22098WAT      O66535   2.982   1.655   4.609
22098WAT     H166536   2.897   1.622   4.649
22098WAT     H266537   3.027   1.717   4.673
22099WAT      O66538   6.332   4.114   3.908
22099WAT     H166539   6.405   4.100   3.975
22099WAT     H266540   6.312   4.211   3.900
22100WAT      O66541   3.414   9.119   7.393
22100WAT     H166542   3.407   9.171   7.478
22100WAT     H266543   3.504   9.077   7.387
22101WAT      O66544   7.165   4.877   9.748
22101WAT     H166545   7.248   4.924   9.718
22101WAT     H266546   7.151   4.894   9.845
22102WAT      O66547   0.944   8.193   0.762
22102WAT     H166548   1.030   8.231   0.727
22102WAT     H266549   0.881   8.176   0.686
22103WAT      O66550   2.202   9.098   7.993
22103WAT     H166551   2.235   9.007   8.020
22103WAT     H266552   2.102   9.097   7.990
22104WAT      O66553   4.407   1.752   2.018
22104WAT     H166554   4.426   1.844   2.052
22104WAT     H266555   4.491   1.711   1.984
22105WAT      O66556   0.790   6.669   1.948
22105WAT     H166557   0.690   6.671   1.947
22105WAT     H266558   0.826   6.689   1.857
22106WAT      O66559   1.722   8.700   8.674
22106WAT     H166560   1.784   8.652   8.738
22106WAT     H266561   1.686   8.782   8.718
22107WAT      O66562   0.569   3.327   4.941
22107WAT     H166563   0.572   3.404   4.878
22107WAT     H266564   0.482   3.279   4.932
22108WAT      O66565   2.334   4.728   5.792
22108WAT     H166566   2.424   4.741   5.748
22108WAT     H266567   2.263   4.768   5.735
22109WAT      O66568   4.249   4.564   0.289
22109WAT     H166569   4.264   4.561   0.388
22109WAT     H266570   4.182   4.635   0.268
22110WAT      O66571   1.741   7.864   6.170
22110WAT     H166572   1.689   7.804   6.110
22110WAT     H266573   1.707   7.855   6.264
22111WAT      O66574   3.197   8.836   0.701
22111WAT     H166575   3.104   8.866   0.682
22111WAT     H266576   3.222   8.863   0.794
22112WAT      O66577   7.565   4.342   7.825
22112WAT     H166578   7.640   4.320   7.888
22112WAT     H266579   7.482   4.361   7.878
22113WAT      O66580   2.253   5.580   4.607
22113WAT     H166581   2.211   5.659   4.563
22113WAT     H266582   2.186   5.506   4.613
22114WAT      O66583   0.134   2.170   4.121
22114WAT     H166584   0.070   2.230   4.072
22114WAT     H266585   0.128   2.189   4.219
22115WAT      O66586   6.422   6.463   9.085
22115WAT     H166587   6.334   6.453   9.040
22115WAT     H266588   6.446   6.560   9.093
22116WAT      O66589   3.204   8.487   9.879
22116WAT     H166590   3.186   8.482   9.781
22116WAT     H266591   3.127   8.447   9.928
22117WAT      O66592   8.913   3.142   7.948
22117WAT     H166593   8.992   3.086   7.922
22117WAT     H266594   8.848   3.087   8.000
22118WAT      O66595   6.959   8.781   2.740
22118WAT     H166596   6.998   8.773   2.649
22118WAT     H266597   7.032   8.795   2.807
22119WAT      O66598   6.483   5.811   8.184
22119WAT     H166599   6.539   5.894   8.193
22119WAT     H266600   6.490   5.757   8.268
22120WAT      O66601   4.764   9.007   2.023
22120WAT     H166602   4.763   8.931   2.088
22120WAT     H266603   4.755   8.972   1.930
22121WAT      O66604   1.405   8.495   3.461
22121WAT     H166605   1.333   8.503   3.392
22121WAT     H266606   1.449   8.406   3.453
22122WAT      O66607   9.818   8.776   7.491
22122WAT     H166608   9.845   8.832   7.569
22122WAT     H266609   9.718   8.772   7.486
22123WAT      O66610   3.917   6.323   5.619
22123WAT     H166611   3.869   6.291   5.538
22123WAT     H266612   3.928   6.422   5.615
22124WAT      O66613   1.435   0.155   7.643
22124WAT     H166614   1.374   0.175   7.566
22124WAT     H266615   1.440   0.235   7.703
22125WAT      O66616   5.053   6.029   4.523
22125WAT     H166617   5.090   6.112   4.482
22125WAT     H266618   5.053   5.955   4.455
22126WAT      O66619   2.127   1.365   6.209
22126WAT     H166620   2.054   1.407   6.155
22126WAT     H266621   2.190   1.317   6.148
22127WAT      O66622   6.829   6.373   0.510
22127WAT     H166623   6.788   6.288   0.544
22127WAT     H266624   6.867   6.424   0.587
22128WAT      O66625   8.812   7.405   5.779
22128WAT     H166626   8.841   7.312   5.758
22128WAT     H266627   8.848   7.433   5.868
22129WAT      O66628   3.871   8.508   6.576
22129WAT     H166629   3.941   8.579   6.589
22129WAT     H266630   3.784   8.552   6.551
22130WAT      O66631   1.362   4.998   2.695
22130WAT     H166632   1.345   5.083   2.644
22130WAT     H266633   1.276   4.963   2.731
22131WAT      O66634   7.319   5.038   1.376
22131WAT     H166635   7.390   5.008   1.440
22131WAT     H266636   7.298   5.134   1.392
22132WAT      O66637   7.657   4.765   6.006
22132WAT     H166638   7.734   4.826   5.987
22132WAT     H266639   7.672   4.678   5.960
22133WAT      O66640   2.383   7.480   7.899
22133WAT     H166641   2.339   7.399   7.860
22133WAT     H266642   2.451   7.515   7.834
22134WAT      O66643   3.052   3.610   1.104
22134WAT     H166644   2.993   3.622   1.185
22134WAT     H266645   3.003   3.557   1.035
22135WAT      O66646   8.201   0.237   4.458
22135WAT     H166647   8.144   0.188   4.392
22135WAT     H266648   8.165   0.329   4.471
22136WAT      O66649   5.702   8.507   5.669
22136WAT     H166650   5.626   8.571   5.670
22136WAT     H266651   5.668   8.414   5.655
22137WAT      O66652   6.801   1.896   1.778
22137WAT     H166653   6.738   1.973   1.790
22137WAT     H266654   6.785   1.853   1.689
22138WAT      O66655   1.154   9.833   8.322
22138WAT     H166656   1.150   9.805   8.418
22138WAT     H266657   1.247   9.821   8.287
22139WAT      O66658   5.132   3.552   2.518
22139WAT     H166659   5.144   3.618   2.593
22139WAT     H266660   5.217   3.502   2.505
22140WAT      O66661   4.113   2.618   9.292
22140WAT     H166662   4.075   2.700   9.250
22140WAT     H266663   4.180   2.643   9.362
22141WAT      O66664   5.707   1.298   3.193
22141WAT     H166665   5.633   1.264   3.135
22141WAT     H266666   5.672   1.315   3.285
22142WAT      O66667   2.990   4.040   2.458
22142WAT     H166668   2.950   3.981   2.388
22142WAT     H266669   2.964   4.005   2.549
22143WAT      O66670   0.248   3.191   3.727
22143WAT     H166671   0.322   3.131   3.697
22143WAT     H266672   0.276   3.239   3.810
22144WAT      O66673   0.337   7.392   4.196
22144WAT     H166674   0.286   7.362   4.276
22144WAT     H266675   0.274   7.437   4.132
22145WAT      O66676   3.609   1.020   3.863
22145WAT     H166677   3.693   1.072   3.878
22145WAT     H266678   3.531   1.083   3.863
22146WAT      O66679   3.776   9.089   1.407
22146WAT     H166680   3.842   9.014   1.410
22146WAT     H266681   3.817   9.171   1.448
22147WAT      O66682   2.678   9.291   8.226
22147WAT     H166683   2.769   9.296   8.185
22147WAT     H266684   2.627   9.217   8.183
22148WAT      O66685   3.373   0.078   2.467
22148WAT     H166686   3.364  -0.021   2.451
22148WAT     H266687   3.469   0.101   2.485
22149WAT      O66688   1.095   0.731   5.715
22149WAT     H166689   1.003   0.691   5.723
22149WAT     H266690   1.115   0.787   5.796
22150WAT      O66691   0.224   9.315   4.502
22150WAT     H166692   0.216   9.266   4.589
22150WAT     H266693   0.315   9.357   4.496
22151WAT      O66694   2.803   7.354   7.754
22151WAT     H166695   2.770   7.321   7.842
22151WAT     H266696   2.781   7.451   7.745
22152WAT      O66697   0.624   3.550   3.190
22152WAT     H166698   0.678   3.529   3.271
22152WAT     H266699   0.555   3.479   3.176
22153WAT      O66700   1.759   2.519   9.035
22153WAT     H166701   1.684   2.556   8.980
22153WAT     H266702   1.727   2.502   9.129
22154WAT      O66703   5.691   4.126   7.495
22154WAT     H166704   5.760   4.167   7.555
22154WAT     H266705   5.698   4.027   7.499
22155WAT      O66706   6.091   2.980   0.452
22155WAT     H166707   6.169   2.948   0.399
22155WAT     H266708   6.051   2.904   0.502
22156WAT      O66709   6.698   9.035   4.037
22156WAT     H166710   6.683   8.967   3.965
22156WAT     H266711   6.781   9.012   4.087
22157WAT      O66712   9.182   9.326   4.333
22157WAT     H166713   9.142   9.278   4.411
22157WAT     H266714   9.263   9.376   4.363
22158WAT      O66715   7.346   9.418   9.016
22158WAT     H166716   7.398   9.481   8.958
22158WAT     H266717   7.399   9.335   9.030
22159WAT      O66718   3.296   0.787   0.572
22159WAT     H166719   3.281   0.689   0.559
22159WAT     H266720   3.211   0.829   0.606
22160WAT      O66721   3.126   3.355   5.821
22160WAT     H166722   3.219   3.368   5.787
22160WAT     H266723   3.078   3.288   5.763
22161WAT      O66724   2.494   5.368   1.963
22161WAT     H166725   2.592   5.379   1.979
22161WAT     H266726   2.471   5.399   1.871
22162WAT      O66727   6.337   5.524   0.363
22162WAT     H166728   6.374   5.455   0.425
22162WAT     H266729   6.280   5.479   0.295
22163WAT      O66730   0.606   5.399   0.077
22163WAT     H166731   0.655   5.476   0.035
22163WAT     H266732   0.614   5.318   0.019
22164WAT      O66733   2.734   9.150   5.774
22164WAT     H166734   2.663   9.127   5.708
22164WAT     H266735   2.700   9.132   5.867
22165WAT      O66736   6.899   7.025   7.633
22165WAT     H166737   6.867   6.969   7.710
22165WAT     H266738   6.960   6.970   7.576
22166WAT      O66739   5.837   6.351   3.735
22166WAT     H166740   5.892   6.378   3.814
22166WAT     H266741   5.868   6.262   3.702
22167WAT      O66742   6.658   6.313   2.550
22167WAT     H166743   6.750   6.321   2.587
22167WAT     H266744   6.600   6.386   2.588
22168WAT      O66745   7.703   6.591   7.093
22168WAT     H166746   7.751   6.641   7.165
22168WAT     H266747   7.607   6.618   7.092
22169WAT      O66748   4.652   1.437   2.876
22169WAT     H166749   4.558   1.468   2.894
22169WAT     H266750   4.669   1.352   2.926
22170WAT      O66751   2.343   7.145   9.590
22170WAT     H166752   2.435   7.141   9.552
22170WAT     H266753   2.315   7.241   9.600
22171WAT      O66754   7.949   6.723   1.180
22171WAT     H166755   7.994   6.708   1.268
22171WAT     H266756   7.896   6.642   1.156
22172WAT      O66757   5.752   6.816   9.855
22172WAT     H166758   5.844   6.785   9.834
22172WAT     H266759   5.685   6.753   9.815
22173WAT      O66760   6.617   1.615   1.438
22173WAT     H166761   6.571   1.622   1.349
22173WAT     H266762   6.681   1.538   1.436
22174WAT      O66763   3.647   3.422   5.711
22174WAT     H166764   3.712   3.493   5.684
22174WAT     H266765   3.644   3.351   5.641
22175WAT      O66766   9.577   1.667   0.925
22175WAT     H166767   9.480   1.689   0.918
22175WAT     H266768   9.609   1.626   0.840
22176WAT      O66769   4.834   7.984   6.179
22176WAT     H166770   4.891   8.053   6.225
22176WAT     H266771   4.860   7.979   6.082
22177WAT      O66772   3.573   6.964   0.419
22177WAT     H166773   3.544   6.869   0.414
22177WAT     H266774   3.562   6.997   0.513
22178WAT      O66775   1.518   1.600   8.143
22178WAT     H166776   1.523   1.546   8.227
22178WAT     H266777   1.534   1.540   8.064
22179WAT      O66778   3.042   2.965   5.286
22179WAT     H166779   3.041   2.870   5.256
22179WAT     H266780   2.949   2.993   5.311
22180WAT      O66781   9.336   3.470   5.287
22180WAT     H166782   9.409   3.510   5.233
22180WAT     H266783   9.263   3.438   5.227
22181WAT      O66784   3.755   4.294   1.474
22181WAT     H166785   3.793   4.291   1.381
22181WAT     H266786   3.824   4.261   1.538
22182WAT      O66787   7.990   2.511   6.265
22182WAT     H166788   8.086   2.485   6.271
22182WAT     H266789   7.981   2.609   6.284
22183WAT      O66790   4.365   1.599   5.857
22183WAT     H166791   4.331   1.643   5.939
22183WAT     H266792   4.410   1.513   5.882
22184WAT      O66793   3.026   5.289   2.761
22184WAT     H166794   2.999   5.203   2.804
22184WAT     H266795   3.080   5.270   2.679
22185WAT      O66796   0.869   0.288   7.370
22185WAT     H166797   0.892   0.349   7.446
22185WAT     H266798   0.834   0.201   7.407
22186WAT      O66799   7.869   6.262   5.726
22186WAT     H166800   7.942   6.302   5.780
22186WAT     H266801   7.899   6.173   5.690
22187WAT      O66802   2.266   5.325   7.273
22187WAT     H166803   2.360   5.317   7.307
22187WAT     H266804   2.228   5.233   7.259
22188WAT      O66805   8.985   1.633   0.676
22188WAT     H166806   9.047   1.560   0.703
22188WAT     H266807   8.982   1.640   0.576
22189WAT      O66808   7.829   7.377   6.111
22189WAT     H166809   7.925   7.358   6.132
22189WAT     H266810   7.821   7.471   6.077
22190WAT      O66811   6.306   9.328   2.611
22190WAT     H166812   6.341   9.310   2.703
22190WAT     H266813   6.372   9.384   2.561
22191WAT      O66814   1.668   8.537   9.719
22191WAT     H166815   1.682   8.557   9.816
22191WAT     H266816   1.661   8.438   9.707
22192WAT      O66817   3.061   5.647   1.998
22192WAT     H166818   3.016   5.606   1.919
22192WAT     H266819   2.991   5.687   2.058
22193WAT      O66820   5.045   9.693   5.050
22193WAT     H166821   5.101   9.618   5.084
22193WAT     H266822   5.078   9.721   4.960
22194WAT      O66823   7.249   4.439   4.530
22194WAT     H166824   7.327   4.489   4.493
22194WAT     H266825   7.164   4.484   4.503
22195WAT      O66826   9.548   9.125   5.848
22195WAT     H166827   9.557   9.224   5.842
22195WAT     H266828   9.595   9.083   5.770
22196WAT      O66829   9.663   9.250   9.555
22196WAT     H166830   9.602   9.171   9.565
22196WAT     H266831   9.718   9.239   9.472
22197WAT      O66832   4.674   0.834   3.299
22197WAT     H166833   4.736   0.882   3.237
22197WAT     H266834   4.585   0.822   3.255
22198WAT      O66835   4.074   9.370   7.090
22198WAT     H166836   4.083   9.470   7.092
22198WAT     H266837   4.146   9.329   7.146
22199WAT      O66838   5.782   3.897   4.602
22199WAT     H166839   5.738   3.958   4.535
22199WAT     H266840   5.818   3.952   4.678
22200WAT      O66841   0.519   0.722   0.993
22200WAT     H166842   0.532   0.655   0.919
22200WAT     H266843   0.603   0.775   1.005
22201WAT      O66844   0.999   8.570   2.883
22201WAT     H166845   1.083   8.589   2.932
22201WAT     H266846   0.978   8.647   2.822
22202WAT      O66847   5.573   7.306   5.763
22202WAT     H166848   5.521   7.388   5.786
22202WAT     H266849   5.628   7.324   5.681
22203WAT      O66850   7.717   1.301   4.822
22203WAT     H166851   7.817   1.292   4.830
22203WAT     H266852   7.680   1.339   4.907
22204WAT      O66853   9.657   6.887   5.313
22204WAT     H166854   9.718   6.953   5.357
22204WAT     H266855   9.711   6.824   5.256
22205WAT      O66856   1.260   3.511   1.764
22205WAT     H166857   1.344   3.559   1.787
22205WAT     H266858   1.221   3.469   1.846
22206WAT      O66859   9.721   2.948   8.905
22206WAT     H166860   9.773   2.976   8.825
22206WAT     H266861   9.718   2.848   8.909
22207WAT      O66862   5.295   8.087   2.988
22207WAT     H166863   5.312   8.180   3.022
22207WAT     H266864   5.295   8.088   2.888
22208WAT      O66865   7.102   3.372   7.332
22208WAT     H166866   7.035   3.345   7.401
22208WAT     H266867   7.166   3.437   7.371
22209WAT      O66868   8.341   7.472   2.875
22209WAT     H166869   8.265   7.448   2.936
22209WAT     H266870   8.386   7.555   2.908
22210WAT      O66871   5.008   4.393   1.604
22210WAT     H166872   4.952   4.473   1.622
22210WAT     H266873   4.981   4.319   1.664
22211WAT      O66874   3.640   8.349   6.241
22211WAT     H166875   3.712   8.395   6.189
22211WAT     H266876   3.557   8.405   6.240
22212WAT      O66877   2.630   6.807   1.940
22212WAT     H166878   2.538   6.825   1.905
22212WAT     H266879   2.697   6.826   1.868
22213WAT      O66880   6.874   5.829   2.638
22213WAT     H166881   6.788   5.870   2.667
22213WAT     H266882   6.950   5.881   2.677
22214WAT      O66883   3.099   6.939   4.798
22214WAT     H166884   3.098   6.912   4.702
22214WAT     H266885   3.167   7.011   4.812
22215WAT      O66886   1.446   7.051   9.549
22215WAT     H166887   1.445   7.075   9.646
22215WAT     H266888   1.397   7.120   9.496
22216WAT      O66889   0.212   8.136   0.614
22216WAT     H166890   0.164   8.194   0.549
22216WAT     H266891   0.146   8.084   0.668
22217WAT      O66892   5.908   3.690   1.069
22217WAT     H166893   6.004   3.709   1.052
22217WAT     H266894   5.858   3.688   0.983
22218WAT      O66895   6.084   2.317   9.070
22218WAT     H166896   6.134   2.335   8.985
22218WAT     H266897   6.149   2.309   9.145
22219WAT      O66898   5.012   2.502   6.364
22219WAT     H166899   5.008   2.584   6.420
22219WAT     H266900   4.991   2.422   6.420
22220WAT      O66901   5.000   5.239   7.171
22220WAT     H166902   4.979   5.322   7.118
22220WAT     H266903   4.980   5.256   7.267
22221WAT      O66904   7.428   6.638   7.132
22221WAT     H166905   7.380   6.550   7.134
22221WAT     H266906   7.372   6.705   7.082
22222WAT      O66907   8.522   3.929   7.131
22222WAT     H166908   8.485   3.947   7.040
22222WAT     H266909   8.614   3.967   7.137
22223WAT      O66910   9.281   3.729   9.671
22223WAT     H166911   9.333   3.648   9.697
22223WAT     H266912   9.303   3.804   9.733
22224WAT      O66913   6.567   5.353   3.540
22224WAT     H166914   6.472   5.325   3.530
22224WAT     H266915   6.572   5.453   3.543
22225WAT      O66916   3.196   1.417   2.541
22225WAT     H166917   3.228   1.386   2.631
22225WAT     H266918   3.263   1.480   2.502
22226WAT      O66919   4.924   8.597   8.238
22226WAT     H166920   4.999   8.634   8.182
22226WAT     H266921   4.871   8.532   8.184
22227WAT      O66922   7.720   3.219   5.446
22227WAT     H166923   7.726   3.234   5.348
22227WAT     H266924   7.633   3.175   5.467
22228WAT      O66925   0.880   8.062   7.584
22228WAT     H166926   0.875   8.150   7.537
22228WAT     H266927   0.937   7.999   7.531
22229WAT      O66928   0.846   9.382   7.613
22229WAT     H166929   0.755   9.347   7.591
22229WAT     H266930   0.903   9.307   7.646
22230WAT      O66931   6.560   4.188   0.435
22230WAT     H166932   6.599   4.111   0.384
22230WAT     H266933   6.510   4.248   0.371
22231WAT      O66934   6.344   8.469   2.799
22231WAT     H166935   6.274   8.532   2.766
22231WAT     H266936   6.323   8.441   2.893
22232WAT      O66937   5.178   8.001   3.319
22232WAT     H166938   5.108   7.963   3.257
22232WAT     H266939   5.162   8.099   3.330
22233WAT      O66940   5.465   3.423   4.198
22233WAT     H166941   5.536   3.493   4.204
22233WAT     H266942   5.469   3.379   4.108
22234WAT      O66943   0.112   5.178   5.770
22234WAT     H166944   0.046   5.170   5.844
22234WAT     H266945   0.144   5.086   5.744
22235WAT      O66946   8.957   6.374   3.706
22235WAT     H166947   8.869   6.398   3.665
22235WAT     H266948   8.942   6.310   3.781
22236WAT      O66949   1.543   0.321   4.499
22236WAT     H166950   1.594   0.266   4.434
22236WAT     H266951   1.479   0.263   4.550
22237WAT      O66952   3.208   4.304   9.457
22237WAT     H166953   3.282   4.361   9.492
22237WAT     H266954   3.140   4.289   9.529
22238WAT      O66955   2.687   0.184   4.710
22238WAT     H166956   2.636   0.122   4.650
22238WAT     H266957   2.768   0.136   4.745
22239WAT      O66958   0.431   9.101   7.756
22239WAT     H166959   0.384   9.063   7.676
22239WAT     H266960   0.388   9.066   7.840
22240WAT      O66961   2.997   7.820   0.555
22240WAT     H166962   2.920   7.871   0.519
22240WAT     H266963   3.082   7.853   0.513
22241WAT      O66964   2.207   5.528   4.120
22241WAT     H166965   2.225   5.483   4.207
22241WAT     H266966   2.192   5.460   4.049
22242WAT      O66967   3.359   8.724   2.816
22242WAT     H166968   3.306   8.772   2.886
22242WAT     H266969   3.318   8.635   2.797
22243WAT      O66970   0.168   0.081   0.178
22243WAT     H166971   0.242   0.018   0.154
22243WAT     H266972   0.180   0.166   0.127
22244WAT      O66973   7.143   8.165   5.035
22244WAT     H166974   7.217   8.101   5.018
22244WAT     H266975   7.058   8.115   5.049
22245WAT      O66976   7.673   9.533   4.595
22245WAT     H166977   7.627   9.510   4.509
22245WAT     H266978   7.687   9.450   4.648
22246WAT      O66979   1.818   0.636   7.031
22246WAT     H166980   1.884   0.668   7.099
22246WAT     H266981   1.783   0.715   6.979
22247WAT      O66982   7.278   8.021   2.243
22247WAT     H166983   7.220   8.055   2.317
22247WAT     H266984   7.252   8.066   2.158
22248WAT      O66985   0.596   7.549   3.893
22248WAT     H166986   0.552   7.557   3.804
22248WAT     H266987   0.696   7.545   3.881
22249WAT      O66988   5.023   5.290   8.602
22249WAT     H166989   4.992   5.357   8.535
22249WAT     H266990   5.095   5.330   8.658
22250WAT      O66991   6.538   9.634   0.610
22250WAT     H166992   6.564   9.583   0.527
22250WAT     H266993   6.574   9.586   0.690
22251WAT      O66994   3.188   8.085   5.369
22251WAT     H166995   3.116   8.144   5.404
22251WAT     H266996   3.206   8.107   5.273
22252WAT      O66997   1.418   4.847   8.534
22252WAT     H166998   1.466   4.858   8.447
22252WAT     H266999   1.322   4.874   8.523
22253WAT      O67000   0.377   5.551   0.074
22253WAT     H167001   0.462   5.499   0.065
22253WAT     H267002   0.386   5.637   0.023
22254WAT      O67003   2.230   6.940   1.179
22254WAT     H167004   2.330   6.939   1.178
22254WAT     H267005   2.199   7.008   1.246
22255WAT      O67006   2.485   1.338   0.400
22255WAT     H167007   2.529   1.358   0.488
22255WAT     H267008   2.425   1.413   0.375
22256WAT      O67009   6.153   1.751   5.094
22256WAT     H167010   6.088   1.745   5.018
22256WAT     H267011   6.104   1.774   5.178
22257WAT      O67012   5.256   6.718   9.023
22257WAT     H167013   5.196   6.638   9.016
22257WAT     H267014   5.242   6.762   9.112
22258WAT      O67015   9.541   6.171   3.787
22258WAT     H167016   9.553   6.196   3.883
22258WAT     H267017   9.625   6.129   3.753
22259WAT      O67018   4.605   5.835   1.403
22259WAT     H167019   4.528   5.823   1.341
22259WAT     H267020   4.580   5.898   1.477
22260WAT      O67021   9.579   7.652   5.397
22260WAT     H167022   9.572   7.641   5.298
22260WAT     H267023   9.661   7.607   5.431
22261WAT      O67024   6.766   2.484   0.714
22261WAT     H167025   6.709   2.459   0.636
22261WAT     H267026   6.761   2.583   0.728
22262WAT      O67027   9.676   3.002   6.496
22262WAT     H167028   9.585   3.043   6.501
22262WAT     H267029   9.743   3.067   6.532
22263WAT      O67030   4.415   1.192   7.705
22263WAT     H167031   4.511   1.181   7.731
22263WAT     H267032   4.392   1.289   7.701
22264WAT      O67033   0.153   7.450   6.520
22264WAT     H167034   0.120   7.520   6.456
22264WAT     H267035   0.088   7.440   6.595
22265WAT      O67036   7.486   5.099   0.430
22265WAT     H167037   7.527   5.163   0.495
22265WAT     H267038   7.497   5.005   0.463
22266WAT      O67039   1.209   9.598   8.004
22266WAT     H167040   1.146   9.649   7.945
22266WAT     H267041   1.250   9.660   8.070
22267WAT      O67042   8.333   7.057   7.143
22267WAT     H167043   8.384   7.082   7.061
22267WAT     H267044   8.388   6.996   7.199
22268WAT      O67045   2.880   0.793   9.053
22268WAT     H167046   2.967   0.752   9.026
22268WAT     H267047   2.807   0.756   8.997
22269WAT      O67048   1.753   0.058   7.301
22269WAT     H167049   1.662   0.086   7.268
22269WAT     H267050   1.743  -0.013   7.370
22270WAT      O67051   2.352   1.549   4.971
22270WAT     H167052   2.279   1.482   4.986
22270WAT     H267053   2.334   1.631   5.026
22271WAT      O67054   3.378   6.655   2.337
22271WAT     H167055   3.395   6.611   2.426
22271WAT     H267056   3.438   6.615   2.268
22272WAT      O67057   4.241   7.476   5.164
22272WAT     H167058   4.162   7.526   5.200
22272WAT     H267059   4.215   7.431   5.079
22273WAT      O67060   3.642   9.274   8.237
22273WAT     H167061   3.546   9.252   8.249
22273WAT     H267062   3.698   9.195   8.262
22274WAT      O67063   4.827   6.245   1.051
22274WAT     H167064   4.782   6.316   1.105
22274WAT     H267065   4.876   6.287   0.975
22275WAT      O67066   3.778   2.675   7.016
22275WAT     H167067   3.746   2.758   6.970
22275WAT     H267068   3.816   2.699   7.105
22276WAT      O67069   1.798   0.709   1.271
22276WAT     H167070   1.870   0.702   1.202
22276WAT     H267071   1.722   0.649   1.246
22277WAT      O67072   8.490   8.283   0.982
22277WAT     H167073   8.581   8.321   1.000
22277WAT     H267074   8.499   8.195   0.936
22278WAT      O67075   8.463   9.629   7.658
22278WAT     H167076   8.554   9.624   7.617
22278WAT     H267077   8.411   9.702   7.615
22279WAT      O67078   9.062   5.209   4.635
22279WAT     H167079   9.011   5.192   4.719
22279WAT     H267080   9.000   5.240   4.564
22280WAT      O67081   4.306   4.805   9.291
22280WAT     H167082   4.342   4.860   9.216
22280WAT     H267083   4.371   4.803   9.366
22281WAT      O67084   0.480   3.199   4.332
22281WAT     H167085   0.446   3.258   4.405
22281WAT     H267086   0.404   3.149   4.291
22282WAT      O67087   7.995   1.131   1.621
22282WAT     H167088   7.895   1.134   1.621
22282WAT     H267089   8.026   1.070   1.549
22283WAT      O67090   6.716   2.813   0.252
22283WAT     H167091   6.647   2.857   0.310
22283WAT     H267092   6.807   2.840   0.282
22284WAT      O67093   4.168   4.272   8.154
22284WAT     H167094   4.101   4.198   8.155
22284WAT     H267095   4.136   4.348   8.211
22285WAT      O67096   3.699   0.857   6.142
22285WAT     H167097   3.764   0.799   6.093
22285WAT     H267098   3.684   0.941   6.090
22286WAT      O67099   5.236   6.409   8.316
22286WAT     H167100   5.274   6.455   8.396
22286WAT     H267101   5.176   6.472   8.267
22287WAT      O67102   0.887   9.007   9.469
22287WAT     H167103   0.938   8.925   9.445
22287WAT     H267104   0.925   9.086   9.420
22288WAT      O67105   4.290   2.526   3.292
22288WAT     H167106   4.390   2.522   3.283
22288WAT     H267107   4.263   2.617   3.323
22289WAT      O67108   7.727   2.721   0.338
22289WAT     H167109   7.767   2.712   0.430
22289WAT     H267110   7.640   2.770   0.344
22290WAT      O67111   6.462   3.805   6.514
22290WAT     H167112   6.424   3.725   6.467
22290WAT     H267113   6.488   3.780   6.607
22291WAT      O67114   6.573   1.626   7.122
22291WAT     H167115   6.588   1.541   7.173
22291WAT     H267116   6.476   1.650   7.124
22292WAT      O67117   0.893   5.250   5.788
22292WAT     H167118   0.852   5.166   5.823
22292WAT     H267119   0.829   5.326   5.801
22293WAT      O67120   5.111   5.098   5.206
22293WAT     H167121   5.031   5.058   5.161
22293WAT     H267122   5.089   5.120   5.301
22294WAT      O67123   0.106   3.493   9.400
22294WAT     H167124   0.067   3.493   9.308
22294WAT     H267125   0.168   3.415   9.409
22295WAT      O67126   9.056   5.268   7.670
22295WAT     H167127   9.101   5.343   7.718
22295WAT     H267128   9.074   5.182   7.717
22296WAT      O67129   2.401   1.006   1.917
22296WAT     H167130   2.383   1.032   2.012
22296WAT     H267131   2.362   0.915   1.899
22297WAT      O67132   9.594   0.087   1.510
22297WAT     H167133   9.604   0.134   1.422
22297WAT     H267134   9.620   0.149   1.584
22298WAT      O67135   5.494   0.933   0.066
22298WAT     H167136   5.469   0.842   0.034
22298WAT     H267137   5.564   0.926   0.137
22299WAT      O67138   3.777   9.204   1.999
22299WAT     H167139   3.778   9.253   1.912
22299WAT     H267140   3.845   9.243   2.060
22300WAT      O67141   9.291   1.094   4.551
22300WAT     H167142   9.216   1.057   4.606
22300WAT     H267143   9.378   1.057   4.585
22301WAT      O67144   0.164   1.831   2.319
22301WAT     H167145   0.213   1.796   2.399
22301WAT     H267146   0.188   1.927   2.305
22302WAT      O67147   9.704   3.610   7.049
22302WAT     H167148   9.636   3.576   7.114
22302WAT     H267149   9.791   3.563   7.064
22303WAT      O67150   8.289   3.599   1.941
22303WAT     H167151   8.277   3.679   1.883
22303WAT     H267152   8.301   3.628   2.036
22304WAT      O67153   2.255   1.405   9.633
22304WAT     H167154   2.283   1.309   9.639
22304WAT     H267155   2.190   1.424   9.707
22305WAT      O67156   0.663   3.132   5.120
22305WAT     H167157   0.624   3.205   5.063
22305WAT     H267158   0.652   3.044   5.074
22306WAT      O67159   5.339   3.736   8.987
22306WAT     H167160   5.280   3.759   8.910
22306WAT     H267161   5.422   3.691   8.954
22307WAT      O67162   6.739   3.367   4.085
22307WAT     H167163   6.701   3.380   3.994
22307WAT     H267164   6.686   3.420   4.151
22308WAT      O67165   2.769   4.782   2.022
22308WAT     H167166   2.790   4.701   2.077
22308WAT     H267167   2.838   4.792   1.950
22309WAT      O67168   6.359   2.503   2.883
22309WAT     H167169   6.457   2.502   2.864
22309WAT     H267170   6.315   2.573   2.826
22310WAT      O67171   2.797   4.427   3.744
22310WAT     H167172   2.706   4.434   3.787
22310WAT     H267173   2.831   4.333   3.755
22311WAT      O67174   8.743   9.185   4.113
22311WAT     H167175   8.772   9.099   4.070
22311WAT     H267176   8.797   9.260   4.075
22312WAT      O67177   9.056   3.858   2.996
22312WAT     H167178   9.063   3.765   3.032
22312WAT     H267179   9.044   3.922   3.072
22313WAT      O67180   1.158   8.505   3.300
22313WAT     H167181   1.242   8.510   3.246
22313WAT     H267182   1.082   8.545   3.249
22314WAT      O67183   0.346   6.837   8.858
22314WAT     H167184   0.409   6.823   8.934
22314WAT     H267185   0.254   6.811   8.885
22315WAT      O67186   6.642   3.922   3.619
22315WAT     H167187   6.577   3.848   3.628
22315WAT     H267188   6.672   3.929   3.523
22316WAT      O67189   1.444   7.759   6.229
22316WAT     H167190   1.506   7.784   6.304
22316WAT     H267191   1.451   7.661   6.211
22317WAT      O67192   7.317   5.328   0.756
22317WAT     H167193   7.379   5.306   0.680
22317WAT     H267194   7.360   5.397   0.814
22318WAT      O67195   8.667   2.346   1.395
22318WAT     H167196   8.623   2.432   1.422
22318WAT     H267197   8.633   2.272   1.452
22319WAT      O67198   8.346   1.251   5.830
22319WAT     H167199   8.444   1.269   5.820
22319WAT     H267200   8.303   1.252   5.739
22320WAT      O67201   0.686   4.461   5.587
22320WAT     H167202   0.587   4.469   5.582
22320WAT     H267203   0.722   4.530   5.649
22321WAT      O67204   4.268   9.779   2.132
22321WAT     H167205   4.235   9.872   2.115
22321WAT     H267206   4.367   9.781   2.146
22322WAT      O67207   9.526   6.724   4.806
22322WAT     H167208   9.471   6.770   4.876
22322WAT     H267209   9.508   6.626   4.808
22323WAT      O67210   3.131   7.591   7.406
22323WAT     H167211   3.136   7.642   7.492
22323WAT     H267212   3.036   7.589   7.374
22324WAT      O67213   3.205   0.504   0.476
22324WAT     H167214   3.165   0.577   0.421
22324WAT     H267215   3.273   0.454   0.422
22325WAT      O67216   6.774   0.977   9.759
22325WAT     H167217   6.678   0.952   9.773
22325WAT     H267218   6.812   0.926   9.682
22326WAT      O67219   0.132   4.636   3.732
22326WAT     H167220   0.230   4.656   3.742
22326WAT     H267221   0.112   4.619   3.636
22327WAT      O67222   9.759   2.272   0.233
22327WAT     H167223   9.740   2.322   0.149
22327WAT     H267224   9.829   2.320   0.285
22328WAT      O67225   2.763   0.447   1.861
22328WAT     H167226   2.713   0.482   1.782
22328WAT     H267227   2.803   0.358   1.838
22329WAT      O67228   7.306   2.166   9.211
22329WAT     H167229   7.360   2.235   9.163
22329WAT     H267230   7.334   2.075   9.182
22330WAT      O67231   4.015   3.170   4.595
22330WAT     H167232   4.022   3.072   4.576
22330WAT     H267233   3.941   3.186   4.660
22331WAT      O67234   6.383   0.493   9.761
22331WAT     H167235   6.355   0.519   9.669
22331WAT     H267236   6.479   0.467   9.761
22332WAT      O67237   2.430   3.817   8.171
22332WAT     H167238   2.432   3.721   8.199
22332WAT     H267239   2.512   3.838   8.117
22333WAT      O67240   2.761   3.899   2.780
22333WAT     H167241   2.717   3.862   2.862
22333WAT     H267242   2.693   3.910   2.708
22334WAT      O67243   4.662   2.509   8.827
22334WAT     H167244   4.575   2.509   8.877
22334WAT     H267245   4.647   2.551   8.737
22335WAT      O67246   3.784   0.062   5.128
22335WAT     H167247   3.734  -0.024   5.127
22335WAT     H267248   3.795   0.094   5.222
22336WAT      O67249   7.375   4.648   1.132
22336WAT     H167250   7.460   4.611   1.169
22336WAT     H267251   7.371   4.632   1.033
22337WAT      O67252   2.689   8.441   2.693
22337WAT     H167253   2.750   8.367   2.722
22337WAT     H267254   2.671   8.502   2.770
22338WAT      O67255   0.704   6.879   8.345
22338WAT     H167256   0.705   6.784   8.376
22338WAT     H267257   0.622   6.896   8.291
22339WAT      O67258   5.170   2.511   1.780
22339WAT     H167259   5.107   2.540   1.707
22339WAT     H267260   5.146   2.559   1.864
22340WAT      O67261   0.123   4.041   8.573
22340WAT     H167262   0.167   3.954   8.553
22340WAT     H267263   0.168   4.084   8.651
22341WAT      O67264   9.050   4.165   6.259
22341WAT     H167265   8.972   4.160   6.196
22341WAT     H267266   9.134   4.142   6.211
22342WAT      O67267   5.392   3.035   6.724
22342WAT     H167268   5.297   3.059   6.704
22342WAT     H267269   5.428   2.977   6.651
22343WAT      O67270   6.148   8.337   4.049
22343WAT     H167271   6.065   8.385   4.078
22343WAT     H267272   6.202   8.312   4.129
22344WAT      O67273   6.726   8.280   7.590
22344WAT     H167274   6.777   8.333   7.657
22344WAT     H267275   6.724   8.330   7.503
22345WAT      O67276   8.242   3.721   7.098
22345WAT     H167277   8.324   3.687   7.145
22345WAT     H267278   8.259   3.720   6.999
22346WAT      O67279   1.213   7.110   4.739
22346WAT     H167280   1.135   7.166   4.767
22346WAT     H267281   1.197   7.015   4.765
22347WAT      O67282   6.498   2.464   4.685
22347WAT     H167283   6.470   2.369   4.675
22347WAT     H267284   6.593   2.468   4.715
22348WAT      O67285   2.497   7.836   2.362
22348WAT     H167286   2.495   7.737   2.375
22348WAT     H267287   2.403   7.871   2.363
22349WAT      O67288   1.611   6.787   1.409
22349WAT     H167289   1.527   6.835   1.384
22349WAT     H267290   1.641   6.730   1.332
22350WAT      O67291   4.493   2.493   6.072
22350WAT     H167292   4.464   2.541   6.156
22350WAT     H267293   4.590   2.472   6.078
22351WAT      O67294   2.192   1.187   2.352
22351WAT     H167295   2.140   1.103   2.364
22351WAT     H267296   2.133   1.258   2.314
22352WAT      O67297   4.752   9.400   4.841
22352WAT     H167298   4.786   9.491   4.864
22352WAT     H267299   4.652   9.401   4.838
22353WAT      O67300   2.361   6.864   5.594
22353WAT     H167301   2.450   6.823   5.575
22353WAT     H267302   2.368   6.921   5.676
22354WAT      O67303   1.064   2.475   0.877
22354WAT     H167304   1.050   2.557   0.821
22354WAT     H267305   1.118   2.409   0.826
22355WAT      O67306   3.535   2.364   8.420
22355WAT     H167307   3.589   2.335   8.499
22355WAT     H267308   3.547   2.462   8.406
22356WAT      O67309   8.645   8.063   1.769
22356WAT     H167310   8.555   8.104   1.777
22356WAT     H267311   8.704   8.121   1.713
22357WAT      O67312   4.812   1.852   3.513
22357WAT     H167313   4.845   1.813   3.599
22357WAT     H267314   4.720   1.818   3.494
22358WAT      O67315   8.062   4.931   1.928
22358WAT     H167316   8.057   4.957   2.025
22358WAT     H267317   7.989   4.977   1.878
22359WAT      O67318   6.144   6.502   4.509
22359WAT     H167319   6.044   6.494   4.516
22359WAT     H267320   6.168   6.599   4.499
22360WAT      O67321   3.401   7.006   2.946
22360WAT     H167322   3.488   6.964   2.972
22360WAT     H267323   3.364   6.959   2.866
22361WAT      O67324   7.710   0.450   5.649
22361WAT     H167325   7.698   0.355   5.618
22361WAT     H267326   7.632   0.477   5.705
22362WAT      O67327   5.195   0.906   2.826
22362WAT     H167328   5.248   0.958   2.893
22362WAT     H267329   5.103   0.892   2.860
22363WAT      O67330   2.870   4.268   0.116
22363WAT     H167331   2.862   4.176   0.154
22363WAT     H267332   2.967   4.292   0.105
22364WAT      O67333   5.097   8.880   4.391
22364WAT     H167334   5.037   8.805   4.420
22364WAT     H267335   5.153   8.850   4.314
22365WAT      O67336   0.335   0.666   7.810
22365WAT     H167337   0.416   0.690   7.864
22365WAT     H267338   0.353   0.582   7.759
22366WAT      O67339   5.102   1.992   6.587
22366WAT     H167340   5.011   1.949   6.584
22366WAT     H267341   5.132   2.014   6.494
22367WAT      O67342   7.601   9.232   3.755
22367WAT     H167343   7.530   9.175   3.797
22367WAT     H267344   7.583   9.241   3.657
22368WAT      O67345   2.270   0.634   0.562
22368WAT     H167346   2.246   0.651   0.658
22368WAT     H267347   2.245   0.540   0.538
22369WAT      O67348   8.053   9.695   0.769
22369WAT     H167349   8.032   9.651   0.856
22369WAT     H267350   8.106   9.779   0.786
22370WAT      O67351   3.124   0.383   7.997
22370WAT     H167352   3.078   0.456   8.048
22370WAT     H267353   3.131   0.408   7.901
22371WAT      O67354   2.539   4.227   6.092
22371WAT     H167355   2.583   4.163   6.156
22371WAT     H267356   2.455   4.186   6.057
22372WAT      O67357   1.457   3.459   7.576
22372WAT     H167358   1.497   3.482   7.665
22372WAT     H267359   1.516   3.393   7.529
22373WAT      O67360   9.859   6.450   3.277
22373WAT     H167361   9.874   6.476   3.182
22373WAT     H267362   9.946   6.453   3.327
22374WAT      O67363   8.436   6.108   0.301
22374WAT     H167364   8.352   6.067   0.267
22374WAT     H267365   8.431   6.116   0.401
22375WAT      O67366   1.835   3.698   7.531
22375WAT     H167367   1.869   3.674   7.622
22375WAT     H267368   1.749   3.748   7.541
22376WAT      O67369   9.130   8.754   4.750
22376WAT     H167370   9.043   8.743   4.702
22376WAT     H267371   9.181   8.829   4.709
22377WAT      O67372   4.129   7.112   9.505
22377WAT     H167373   4.218   7.077   9.476
22377WAT     H267374   4.087   7.046   9.567
22378WAT      O67375   0.563   3.460   9.814
22378WAT     H167376   0.505   3.536   9.842
22378WAT     H267377   0.629   3.441   9.886
22379WAT      O67378   1.531   6.927   9.061
22379WAT     H167379   1.487   7.015   9.081
22379WAT     H267380   1.481   6.854   9.107
22380WAT      O67381   5.582   6.323   6.525
22380WAT     H167382   5.623   6.232   6.524
22380WAT     H267383   5.599   6.367   6.613
22381WAT      O67384   9.231   6.761   8.024
22381WAT     H167385   9.324   6.729   8.008
22381WAT     H267386   9.214   6.771   8.122
22382WAT      O67387   8.562   9.593   8.065
22382WAT     H167388   8.657   9.612   8.040
22382WAT     H267389   8.560   9.544   8.153
22383WAT      O67390   2.154   0.988   1.738
22383WAT     H167391   2.157   0.959   1.833
22383WAT     H267392   2.180   1.085   1.732
22384WAT      O67393   2.118   0.561   1.999
22384WAT     H167394   2.070   0.552   1.912
22384WAT     H267395   2.089   0.487   2.061
22385WAT      O67396   2.585   3.220   5.795
22385WAT     H167397   2.669   3.178   5.829
22385WAT     H267398   2.509   3.156   5.806
22386WAT      O67399   4.975   3.437   8.768
22386WAT     H167400   4.903   3.462   8.833
22386WAT     H267401   5.045   3.383   8.815
22387WAT      O67402   3.022   9.047   2.988
22387WAT     H167403   2.967   9.119   2.946
22387WAT     H267404   3.106   9.087   3.024
22388WAT      O67405   7.401   7.962   8.086
22388WAT     H167406   7.485   7.976   8.033
22388WAT     H267407   7.422   7.905   8.166
22389WAT      O67408   2.098   5.582   5.397
22389WAT     H167409   2.182   5.597   5.345
22389WAT     H267410   2.022   5.566   5.334
22390WAT      O67411   0.176   4.635   6.858
22390WAT     H167412   0.224   4.640   6.945
22390WAT     H267413   0.180   4.541   6.823
22391WAT      O67414   2.899   8.382   9.206
22391WAT     H167415   2.855   8.429   9.283
22391WAT     H267416   2.988   8.346   9.235
22392WAT      O67417   9.133   3.366   9.549
22392WAT     H167418   9.084   3.446   9.584
22392WAT     H267419   9.179   3.320   9.625
22393WAT      O67420   3.193   1.846   5.730
22393WAT     H167421   3.210   1.801   5.817
22393WAT     H267422   3.160   1.780   5.663
22394WAT      O67423   8.256   1.216   6.850
22394WAT     H167424   8.217   1.289   6.794
22394WAT     H267425   8.197   1.135   6.844
22395WAT      O67426   0.791   8.355   7.559
22395WAT     H167427   0.732   8.351   7.639
22395WAT     H267428   0.740   8.329   7.477
22396WAT      O67429   1.070   7.793   1.123
22396WAT     H167430   1.081   7.822   1.028
22396WAT     H267431   1.123   7.854   1.182
22397WAT      O67432   6.550   4.462   3.489
22397WAT     H167433   6.603   4.378   3.483
22397WAT     H267434   6.516   4.473   3.583
22398WAT      O67435   0.493   3.668   6.999
22398WAT     H167436   0.456   3.744   6.945
22398WAT     H267437   0.569   3.700   7.054
22399WAT      O67438   9.772   5.654   9.179
22399WAT     H167439   9.789   5.747   9.148
22399WAT     H267440   9.675   5.632   9.168
22400WAT      O67441   8.253   2.464   9.715
22400WAT     H167442   8.334   2.500   9.762
22400WAT     H267443   8.171   2.497   9.762
22401WAT      O67444   5.279   1.608   2.980
22401WAT     H167445   5.325   1.617   3.068
22401WAT     H267446   5.192   1.561   2.992
22402WAT      O67447   9.590   1.674   8.537
22402WAT     H167448   9.666   1.638   8.592
22402WAT     H267449   9.614   1.765   8.503
22403WAT      O67450   2.759   3.300   4.646
22403WAT     H167451   2.663   3.309   4.619
22403WAT     H267452   2.769   3.222   4.708
22404WAT      O67453   8.307   8.134   4.972
22404WAT     H167454   8.377   8.093   4.914
22404WAT     H267455   8.340   8.134   5.067
22405WAT      O67456   5.676   8.297   0.327
22405WAT     H167457   5.577   8.283   0.335
22405WAT     H267458   5.708   8.259   0.240
22406WAT      O67459   0.322   2.055   0.444
22406WAT     H167460   0.405   2.005   0.468
22406WAT     H267461   0.321   2.144   0.491
22407WAT      O67462   3.203   4.506   4.743
22407WAT     H167463   3.201   4.597   4.784
22407WAT     H267464   3.137   4.502   4.668
22408WAT      O67465   7.013   7.489   8.693
22408WAT     H167466   7.085   7.538   8.743
22408WAT     H267467   6.938   7.551   8.673
22409WAT      O67468   1.054   9.444   2.579
22409WAT     H167469   1.017   9.465   2.670
22409WAT     H267470   1.095   9.526   2.540
22410WAT      O67471   8.158   1.044   8.640
22410WAT     H167472   8.234   0.988   8.674
22410WAT     H267473   8.072   0.996   8.655
22411WAT      O67474   5.923   1.759   4.351
22411WAT     H167475   5.974   1.839   4.383
22411WAT     H267476   5.862   1.786   4.276
22412WAT      O67477   6.510   3.022   3.990
22412WAT     H167478   6.596   2.986   3.952
22412WAT     H267479   6.456   2.946   4.026
22413WAT      O67480   3.234   4.506   7.670
22413WAT     H167481   3.312   4.445   7.681
22413WAT     H267482   3.256   4.579   7.605
22414WAT      O67483   1.527   7.320   2.114
22414WAT     H167484   1.481   7.232   2.104
22414WAT     H267485   1.459   7.393   2.112
22415WAT      O67486   7.947   6.559   8.726
22415WAT     H167487   7.863   6.571   8.672
22415WAT     H267488   8.016   6.513   8.670
22416WAT      O67489   4.953   4.961   3.612
22416WAT     H167490   4.874   4.987   3.557
22416WAT     H267491   4.922   4.917   3.696
22417WAT      O67492   0.826   4.792   9.404
22417WAT     H167493   0.808   4.732   9.481
22417WAT     H267494   0.925   4.805   9.393
22418WAT      O67495   6.060   2.532   7.001
22418WAT     H167496   6.004   2.456   6.969
22418WAT     H267497   6.001   2.611   7.019
22419WAT      O67498   1.551   5.331   1.340
22419WAT     H167499   1.630   5.286   1.381
22419WAT     H267500   1.468   5.302   1.388
22420WAT      O67501   1.975   0.208   2.967
22420WAT     H167502   1.924   0.286   2.932
22420WAT     H267503   1.968   0.205   3.067
22421WAT      O67504   9.249   1.141   9.521
22421WAT     H167505   9.338   1.129   9.478
22421WAT     H267506   9.179   1.152   9.451
22422WAT      O67507   1.630   7.642   9.204
22422WAT     H167508   1.646   7.544   9.211
22422WAT     H267509   1.656   7.674   9.113
22423WAT      O67510   9.120   4.711   3.285
22423WAT     H167511   9.126   4.666   3.196
22423WAT     H267512   9.025   4.716   3.313
22424WAT      O67513   1.789   2.158   3.033
22424WAT     H167514   1.860   2.134   3.100
22424WAT     H267515   1.798   2.099   2.953
22425WAT      O67516   2.991   8.203   3.437
22425WAT     H167517   2.908   8.257   3.420
22425WAT     H267518   3.030   8.174   3.349
22426WAT      O67519   7.603   7.981   6.921
22426WAT     H167520   7.613   7.992   7.020
22426WAT     H267521   7.561   7.893   6.902
22427WAT      O67522   2.021   5.371   6.377
22427WAT     H167523   2.051   5.466   6.386
22427WAT     H267524   2.089   5.310   6.418
22428WAT      O67525   3.903   1.076   5.496
22428WAT     H167526   3.898   1.166   5.539
22428WAT     H267527   3.955   1.014   5.555
22429WAT      O67528   3.632   4.852   5.020
22429WAT     H167529   3.690   4.772   5.003
22429WAT     H267530   3.600   4.889   4.933
22430WAT      O67531   1.590   5.767   7.721
22430WAT     H167532   1.623   5.687   7.771
22430WAT     H267533   1.548   5.736   7.635
22431WAT      O67534   0.605   7.044   9.483
22431WAT     H167535   0.680   6.999   9.532
22431WAT     H267536   0.526   7.053   9.543
22432WAT      O67537   3.020   6.916   3.326
22432WAT     H167538   2.993   7.006   3.358
22432WAT     H267539   3.078   6.872   3.395
22433WAT      O67540   0.702   1.591   2.676
22433WAT     H167541   0.759   1.671   2.697
22433WAT     H267542   0.646   1.610   2.596
22434WAT      O67543   2.298   1.981   1.535
22434WAT     H167544   2.218   1.966   1.594
22434WAT     H267545   2.267   2.013   1.445
22435WAT      O67546   9.238   1.081   7.665
22435WAT     H167547   9.329   1.060   7.628
22435WAT     H267548   9.247   1.138   7.747
22436WAT      O67549   4.321   6.300   4.707
22436WAT     H167550   4.325   6.260   4.798
22436WAT     H267551   4.411   6.335   4.682
22437WAT      O67552   4.974   4.099   6.671
22437WAT     H167553   4.974   4.195   6.642
22437WAT     H267554   4.994   4.093   6.769
22438WAT      O67555   4.420   0.478   1.560
22438WAT     H167556   4.429   0.545   1.487
22438WAT     H267557   4.507   0.432   1.574
22439WAT      O67558   6.958   0.546   8.357
22439WAT     H167559   6.976   0.620   8.292
22439WAT     H267560   6.859   0.533   8.367
22440WAT      O67561   2.848   2.704   4.290
22440WAT     H167562   2.866   2.633   4.222
22440WAT     H267563   2.933   2.727   4.337
22441WAT      O67564   5.480   6.481   4.008
22441WAT     H167565   5.534   6.562   3.988
22441WAT     H267566   5.526   6.400   3.973
22442WAT      O67567   3.926   1.831   1.035
22442WAT     H167568   3.924   1.930   1.025
22442WAT     H267569   4.015   1.802   1.068
22443WAT      O67570   6.274   8.516   8.025
22443WAT     H167571   6.190   8.567   8.039
22443WAT     H267572   6.325   8.512   8.111
22444WAT      O67573   5.714   6.377   3.209
22444WAT     H167574   5.739   6.470   3.184
22444WAT     H267575   5.697   6.323   3.126
22445WAT      O67576   1.292   6.420   5.122
22445WAT     H167577   1.235   6.375   5.191
22445WAT     H267578   1.386   6.427   5.156
22446WAT      O67579   4.433   4.115   8.504
22446WAT     H167580   4.524   4.107   8.544
22446WAT     H267581   4.441   4.127   8.405
22447WAT      O67582   2.393   2.363   0.207
22447WAT     H167583   2.374   2.265   0.217
22447WAT     H267584   2.316   2.409   0.163
22448WAT      O67585   7.517   1.701   7.896
22448WAT     H167586   7.465   1.683   7.979
22448WAT     H267587   7.575   1.623   7.874
22449WAT      O67588   8.798   9.189   8.480
22449WAT     H167589   8.762   9.140   8.400
22449WAT     H267590   8.898   9.187   8.479
22450WAT      O67591   5.824   8.958   9.345
22450WAT     H167592   5.765   8.887   9.307
22450WAT     H267593   5.767   9.032   9.382
22451WAT      O67594   8.201   7.306   7.995
22451WAT     H167595   8.275   7.353   7.946
22451WAT     H267596   8.221   7.308   8.093
22452WAT      O67597   8.520   5.573   7.343
22452WAT     H167598   8.512   5.501   7.412
22452WAT     H267599   8.434   5.580   7.292
22453WAT      O67600   8.809   0.620   0.049
22453WAT     H167601   8.718   0.656   0.069
22453WAT     H267602   8.799   0.536  -0.006
22454WAT      O67603   2.229   8.066   3.582
22454WAT     H167604   2.233   7.967   3.597
22454WAT     H267605   2.216   8.084   3.485
22455WAT      O67606   8.789   5.344   6.918
22455WAT     H167607   8.730   5.269   6.946
22455WAT     H267608   8.881   5.310   6.902
22456WAT      O67609   1.620   0.646   5.388
22456WAT     H167610   1.574   0.598   5.313
22456WAT     H267611   1.716   0.660   5.364
22457WAT      O67612   8.691   7.061   5.161
22457WAT     H167613   8.619   7.018   5.105
22457WAT     H267614   8.779   7.019   5.139
22458WAT      O67615   6.858   7.340   7.886
22458WAT     H167616   6.877   7.423   7.938
22458WAT     H267617   6.775   7.352   7.832
22459WAT      O67618   1.574   8.228   0.504
22459WAT     H167619   1.606   8.276   0.423
22459WAT     H267620   1.622   8.141   0.513
22460WAT      O67621   3.766   1.696   4.531
22460WAT     H167622   3.821   1.612   4.530
22460WAT     H267623   3.688   1.685   4.470
22461WAT      O67624   3.032   9.295   7.570
22461WAT     H167625   3.066   9.247   7.651
22461WAT     H267626   3.053   9.392   7.578
22462WAT      O67627   0.277   8.847   5.611
22462WAT     H167628   0.206   8.860   5.543
22462WAT     H267629   0.361   8.892   5.581
22463WAT      O67630   9.408   4.780   7.746
22463WAT     H167631   9.501   4.814   7.749
22463WAT     H267632   9.402   4.704   7.682
22464WAT      O67633   8.419   6.393   9.057
22464WAT     H167634   8.327   6.375   9.021
22464WAT     H267635   8.417   6.387   9.157
22465WAT      O67636   4.267   5.241   2.792
22465WAT     H167637   4.324   5.159   2.795
22465WAT     H267638   4.270   5.280   2.700
22466WAT      O67639   9.322   4.192   4.969
22466WAT     H167640   9.323   4.093   4.983
22466WAT     H267641   9.395   4.234   5.023
22467WAT      O67642   8.374   8.158   5.236
22467WAT     H167643   8.387   8.106   5.321
22467WAT     H267644   8.281   8.193   5.232
22468WAT      O67645   1.185   5.230   7.719
22468WAT     H167646   1.200   5.142   7.675
22468WAT     H267647   1.208   5.304   7.655
22469WAT      O67648   5.027   1.614   9.617
22469WAT     H167649   5.085   1.560   9.556
22469WAT     H267650   5.016   1.566   9.704
22470WAT      O67651   2.462   3.828   7.669
22470WAT     H167652   2.521   3.818   7.749
22470WAT     H267653   2.502   3.894   7.605
22471WAT      O67654   9.110   4.372   3.386
22471WAT     H167655   9.198   4.402   3.349
22471WAT     H267656   9.074   4.442   3.447
22472WAT      O67657   5.924   5.307   5.357
22472WAT     H167658   5.988   5.323   5.432
22472WAT     H267659   5.869   5.226   5.377
22473WAT      O67660   2.936   1.972   4.991
22473WAT     H167661   2.881   1.906   5.040
22473WAT     H267662   2.877   2.038   4.945
22474WAT      O67663   8.681   7.115   3.416
22474WAT     H167664   8.621   7.100   3.337
22474WAT     H267665   8.755   7.177   3.391
22475WAT      O67666   7.363   0.894   0.023
22475WAT     H167667   7.350   0.989  -0.003
22475WAT     H267668   7.331   0.834  -0.050
22476WAT      O67669   6.597   9.343   3.165
22476WAT     H167670   6.553   9.309   3.082
22476WAT     H267671   6.627   9.266   3.221
22477WAT      O67672   6.936   8.689   9.058
22477WAT     H167673   6.967   8.690   9.153
22477WAT     H267674   6.855   8.747   9.049
22478WAT      O67675   1.369   3.103   6.822
22478WAT     H167676   1.444   3.050   6.860
22478WAT     H267677   1.282   3.065   6.853
22479WAT      O67678   4.427   4.552   6.708
22479WAT     H167679   4.451   4.530   6.802
22479WAT     H267680   4.437   4.650   6.693
22480WAT      O67681   9.318   8.204   2.849
22480WAT     H167682   9.369   8.154   2.780
22480WAT     H267683   9.343   8.301   2.845
22481WAT      O67684   1.691   7.293   0.466
22481WAT     H167685   1.648   7.238   0.394
22481WAT     H267686   1.782   7.322   0.435
22482WAT      O67687   0.269   0.728   3.755
22482WAT     H167688   0.340   0.798   3.764
22482WAT     H267689   0.226   0.736   3.665
22483WAT      O67690   5.239   5.782   6.042
22483WAT     H167691   5.161   5.733   6.080
22483WAT     H267692   5.262   5.744   5.953
22484WAT      O67693   1.468   5.828   6.655
22484WAT     H167694   1.399   5.764   6.688
22484WAT     H267695   1.428   5.918   6.643
22485WAT      O67696   3.600   4.979   8.035
22485WAT     H167697   3.595   4.882   8.010
22485WAT     H267698   3.556   4.993   8.124
22486WAT      O67699   7.214   6.128   0.737
22486WAT     H167700   7.281   6.190   0.697
22486WAT     H267701   7.260   6.051   0.779
22487WAT      O67702   3.510   0.226   8.338
22487WAT     H167703   3.555   0.302   8.385
22487WAT     H267704   3.418   0.213   8.375
22488WAT      O67705   3.579   5.401   3.477
22488WAT     H167706   3.590   5.418   3.575
22488WAT     H267707   3.668   5.408   3.432
22489WAT      O67708   9.216   2.469   4.899
22489WAT     H167709   9.315   2.458   4.887
22489WAT     H267710   9.199   2.527   4.978
22490WAT      O67711   6.984   6.267   2.829
22490WAT     H167712   6.968   6.187   2.887
22490WAT     H267713   7.064   6.317   2.862
22491WAT      O67714   3.314   6.963   2.687
22491WAT     H167715   3.399   6.938   2.640
22491WAT     H267716   3.258   7.019   2.627
22492WAT      O67717   7.162   3.989   4.764
22492WAT     H167718   7.150   3.891   4.747
22492WAT     H267719   7.185   4.035   4.679
22493WAT      O67720   4.617   9.580   2.434
22493WAT     H167721   4.618   9.492   2.386
22493WAT     H267722   4.711   9.605   2.459
22494WAT      O67723   9.630   8.780   5.531
22494WAT     H167724   9.581   8.753   5.449
22494WAT     H267725   9.582   8.744   5.612
22495WAT      O67726   6.527   1.047   1.146
22495WAT     H167727   6.566   0.961   1.112
22495WAT     H267728   6.593   1.121   1.135
22496WAT      O67729   4.519   6.019   3.539
22496WAT     H167730   4.440   6.076   3.517
22496WAT     H267731   4.574   6.004   3.457
22497WAT      O67732   3.067   1.726   1.434
22497WAT     H167733   2.974   1.744   1.404
22497WAT     H267734   3.101   1.806   1.485
22498WAT      O67735   3.519   9.576   8.096
22498WAT     H167736   3.618   9.583   8.084
22498WAT     H267737   3.499   9.545   8.189
22499WAT      O67738   5.124   3.118   7.928
22499WAT     H167739   5.056   3.058   7.887
22499WAT     H267740   5.130   3.203   7.875
22500WAT      O67741   0.318   9.737   4.586
22500WAT     H167742   0.365   9.783   4.661
22500WAT     H267743   0.375   9.662   4.552
22501WAT      O67744   2.797   7.022   7.471
22501WAT     H167745   2.893   7.030   7.499
22501WAT     H267746   2.746   6.975   7.543
22502WAT      O67747   7.529   2.904   0.833
22502WAT     H167748   7.439   2.934   0.804
22502WAT     H267749   7.552   2.818   0.786
22503WAT      O67750   8.770   5.018   4.636
22503WAT     H167751   8.804   5.042   4.545
22503WAT     H267752   8.847   5.002   4.698
22504WAT      O67753   5.317   5.310   1.700
22504WAT     H167754   5.310   5.221   1.747
22504WAT     H267755   5.410   5.321   1.664
22505WAT      O67756   2.479   0.979   4.088
22505WAT     H167757   2.404   1.044   4.079
22505WAT     H267758   2.545   0.994   4.014
22506WAT      O67759   3.072   3.706   9.440
22506WAT     H167760   3.053   3.752   9.353
22506WAT     H267761   3.019   3.622   9.446
22507WAT      O67762   4.320   3.151   8.544
22507WAT     H167763   4.326   3.232   8.487
22507WAT     H267764   4.369   3.166   8.630
22508WAT      O67765   0.275   5.671   1.314
22508WAT     H167766   0.362   5.630   1.288
22508WAT     H267767   0.283   5.771   1.313
22509WAT      O67768   4.689   7.054   2.099
22509WAT     H167769   4.668   7.081   2.193
22509WAT     H267770   4.740   7.127   2.054
22510WAT      O67771   6.450   2.497   5.917
22510WAT     H167772   6.467   2.400   5.937
22510WAT     H267773   6.489   2.553   5.990
22511WAT      O67774   2.296   8.989   1.977
22511WAT     H167775   2.286   9.040   2.062
22511WAT     H267776   2.384   8.941   1.977
22512WAT      O67777   6.188   9.403   8.348
22512WAT     H167778   6.159   9.395   8.443
22512WAT     H267779   6.109   9.395   8.288
22513WAT      O67780   8.025   9.652   5.727
22513WAT     H167781   7.996   9.604   5.810
22513WAT     H267782   8.029   9.750   5.744
22514WAT      O67783   1.304   8.966   6.326
22514WAT     H167784   1.322   8.868   6.335
22514WAT     H267785   1.278   9.004   6.414
22515WAT      O67786   0.207   8.032   8.516
22515WAT     H167787   0.268   7.972   8.465
22515WAT     H267788   0.196   7.997   8.609
22516WAT      O67789   8.959   5.010   4.091
22516WAT     H167790   8.918   5.096   4.122
22516WAT     H267791   8.974   4.950   4.169
22517WAT      O67792   7.882   4.857   1.473
22517WAT     H167793   7.862   4.831   1.567
22517WAT     H267794   7.980   4.875   1.462
22518WAT      O67795   5.930   7.573   6.906
22518WAT     H167796   5.846   7.614   6.940
22518WAT     H267797   5.969   7.632   6.835
22519WAT      O67798   2.135   8.151   8.722
22519WAT     H167799   2.160   8.200   8.805
22519WAT     H267800   2.074   8.208   8.667
22520WAT      O67801   8.786   1.777   9.322
22520WAT     H167802   8.705   1.826   9.287
22520WAT     H267803   8.866   1.837   9.317
22521WAT      O67804   7.429   4.351   8.453
22521WAT     H167805   7.509   4.369   8.510
22521WAT     H267806   7.400   4.256   8.464
22522WAT      O67807   3.384   3.268   6.730
22522WAT     H167808   3.329   3.320   6.796
22522WAT     H267809   3.425   3.189   6.775
22523WAT      O67810   7.485   5.792   1.695
22523WAT     H167811   7.409   5.857   1.685
22523WAT     H267812   7.510   5.787   1.792
22524WAT      O67813   7.497   6.539   6.200
22524WAT     H167814   7.536   6.464   6.148
22524WAT     H267815   7.561   6.567   6.271
22525WAT      O67816   3.808   0.370   2.967
22525WAT     H167817   3.832   0.280   3.005
22525WAT     H267818   3.712   0.369   2.937
22526WAT      O67819   7.006   4.235   7.500
22526WAT     H167820   6.956   4.299   7.443
22526WAT     H267821   7.021   4.150   7.449
22527WAT      O67822   6.406   8.666   1.237
22527WAT     H167823   6.422   8.670   1.139
22527WAT     H267824   6.349   8.743   1.266
22528WAT      O67825   0.043   1.959   4.868
22528WAT     H167826  -0.046   1.921   4.895
22528WAT     H267827   0.056   1.948   4.770
22529WAT      O67828   0.449   9.302   7.366
22529WAT     H167829   0.350   9.315   7.365
22529WAT     H267830   0.472   9.218   7.318
22530WAT      O67831   6.397   3.499   9.226
22530WAT     H167832   6.401   3.576   9.163
22530WAT     H267833   6.487   3.454   9.230
22531WAT      O67834   3.567   9.408   2.274
22531WAT     H167835   3.613   9.324   2.301
22531WAT     H267836   3.470   9.402   2.298
22532WAT      O67837   7.421   1.863   2.476
22532WAT     H167838   7.367   1.780   2.462
22532WAT     H267839   7.359   1.941   2.488
22533WAT      O67840   5.041   6.163   2.753
22533WAT     H167841   5.013   6.146   2.659
22533WAT     H267842   4.983   6.111   2.815
22534WAT      O67843   0.030   2.494   4.537
22534WAT     H167844  -0.052   2.493   4.480
22534WAT     H267845   0.008   2.538   4.625
22535WAT      O67846   9.420   2.741   2.532
22535WAT     H167847   9.432   2.670   2.602
22535WAT     H267848   9.374   2.701   2.452
22536WAT      O67849   4.188   6.124   4.338
22536WAT     H167850   4.105   6.082   4.376
22536WAT     H267851   4.268   6.093   4.389
22537WAT      O67852   4.722   6.327   1.630
22537WAT     H167853   4.736   6.314   1.728
22537WAT     H267854   4.740   6.242   1.582
22538WAT      O67855   3.616   7.654   1.706
22538WAT     H167856   3.625   7.694   1.615
22538WAT     H267857   3.662   7.711   1.773
22539WAT      O67858   6.954   4.361   5.907
22539WAT     H167859   6.939   4.458   5.928
22539WAT     H267860   7.039   4.331   5.951
22540WAT      O67861   0.992   0.899   2.140
22540WAT     H167862   0.963   0.929   2.049
22540WAT     H267863   1.091   0.903   2.146
22541WAT      O67864   6.922   4.058   2.347
22541WAT     H167865   6.945   3.964   2.373
22541WAT     H267866   6.830   4.079   2.381
22542WAT      O67867   9.526   2.139   0.129
22542WAT     H167868   9.478   2.210   0.181
22542WAT     H267869   9.624   2.151   0.141
22543WAT      O67870   2.126   7.665   2.654
22543WAT     H167871   2.069   7.678   2.735
22543WAT     H267872   2.221   7.652   2.682
22544WAT      O67873   7.699   9.284   6.874
22544WAT     H167874   7.795   9.284   6.904
22544WAT     H267875   7.688   9.225   6.795
22545WAT      O67876   4.470   9.721   4.779
22545WAT     H167877   4.409   9.777   4.835
22545WAT     H267878   4.468   9.626   4.812
22546WAT      O67879   6.223   5.581   1.236
22546WAT     H167880   6.272   5.617   1.156
22546WAT     H267881   6.241   5.483   1.244
22547WAT      O67882   9.208   3.209   6.483
22547WAT     H167883   9.230   3.198   6.580
22547WAT     H267884   9.263   3.284   6.445
22548WAT      O67885   2.804   9.791   5.170
22548WAT     H167886   2.751   9.753   5.246
22548WAT     H267887   2.863   9.720   5.132
22549WAT      O67888   3.520   0.559   4.593
22549WAT     H167889   3.577   0.550   4.512
22549WAT     H267890   3.476   0.471   4.613
22550WAT      O67891   5.923   1.242   4.219
22550WAT     H167892   5.955   1.243   4.125
22550WAT     H267893   5.840   1.186   4.226
22551WAT      O67894   1.269   5.269   7.992
22551WAT     H167895   1.213   5.278   8.074
22551WAT     H267896   1.209   5.258   7.912
22552WAT      O67897   2.641   3.829   7.884
22552WAT     H167898   2.649   3.838   7.983
22552WAT     H267899   2.731   3.807   7.845
22553WAT      O67900   0.026   6.396   3.650
22553WAT     H167901   0.084   6.341   3.710
22553WAT     H267902  -0.054   6.428   3.700
22554WAT      O67903   3.698   1.985   1.563
22554WAT     H167904   3.772   2.032   1.514
22554WAT     H267905   3.667   2.043   1.638
22555WAT      O67906   3.829   2.434   3.850
22555WAT     H167907   3.765   2.358   3.842
22555WAT     H267908   3.850   2.469   3.758
22556WAT      O67909   7.420   7.169   0.266
22556WAT     H167910   7.485   7.133   0.199
22556WAT     H267911   7.406   7.101   0.339
22557WAT      O67912   1.087   0.268   5.716
22557WAT     H167913   1.023   0.228   5.651
22557WAT     H267914   1.113   0.199   5.784
22558WAT      O67915   5.109   1.379   0.149
22558WAT     H167916   5.120   1.407   0.244
22558WAT     H267917   5.165   1.298   0.131
22559WAT      O67918   5.767   0.374   1.787
22559WAT     H167919   5.820   0.457   1.771
22559WAT     H267920   5.808   0.298   1.737
22560WAT      O67921   5.260   1.035   6.384
22560WAT     H167922   5.339   0.988   6.423
22560WAT     H267923   5.250   1.009   6.288
22561WAT      O67924   1.715   6.719   7.925
22561WAT     H167925   1.803   6.678   7.950
22561WAT     H267926   1.642   6.675   7.976
22562WAT      O67927   8.193   5.483   9.487
22562WAT     H167928   8.177   5.487   9.585
22562WAT     H267929   8.136   5.411   9.447
22563WAT      O67930   3.540   7.046   0.696
22563WAT     H167931   3.489   7.126   0.727
22563WAT     H267932   3.592   7.007   0.772
22564WAT      O67933   7.300   0.139   6.184
22564WAT     H167934   7.271   0.234   6.190
22564WAT     H267935   7.220   0.079   6.190
22565WAT      O67936   7.802   8.907   5.292
22565WAT     H167937   7.887   8.871   5.253
22565WAT     H267938   7.781   8.858   5.376
22566WAT      O67939   7.164   6.349   0.503
22566WAT     H167940   7.098   6.360   0.577
22566WAT     H267941   7.244   6.299   0.537
22567WAT      O67942   8.945   7.723   8.526
22567WAT     H167943   8.994   7.696   8.444
22567WAT     H267944   8.942   7.646   8.590
22568WAT      O67945   4.835   7.832   8.889
22568WAT     H167946   4.837   7.732   8.896
22568WAT     H267947   4.746   7.861   8.854
22569WAT      O67948   5.609   6.512   0.942
22569WAT     H167949   5.648   6.421   0.954
22569WAT     H267950   5.666   6.566   0.881
22570WAT      O67951   8.572   0.745   9.593
22570WAT     H167952   8.671   0.736   9.582
22570WAT     H267953   8.525   0.686   9.528
22571WAT      O67954   9.354   4.392   2.554
22571WAT     H167955   9.335   4.298   2.526
22571WAT     H267956   9.275   4.450   2.532
22572WAT      O67957   7.505   5.934   5.064
22572WAT     H167958   7.406   5.933   5.073
22572WAT     H267959   7.531   5.886   4.980
22573WAT      O67960   8.529   6.745   8.979
22573WAT     H167961   8.546   6.652   8.946
22573WAT     H267962   8.614   6.786   9.010
22574WAT      O67963   5.297   2.477   3.895
22574WAT     H167964   5.346   2.490   3.981
22574WAT     H267965   5.204   2.512   3.903
22575WAT      O67966   5.953   5.775   2.368
22575WAT     H167967   5.992   5.812   2.452
22575WAT     H267968   5.889   5.702   2.391
22576WAT      O67969   1.207   1.066   3.999
22576WAT     H167970   1.136   1.109   3.943
22576WAT     H267971   1.295   1.109   3.980
22577WAT      O67972   7.547   0.957   2.616
22577WAT     H167973   7.528   0.868   2.657
22577WAT     H267974   7.644   0.977   2.624
22578WAT      O67975   8.466   2.913   7.789
22578WAT     H167976   8.453   2.844   7.718
22578WAT     H267977   8.382   2.922   7.844
22579WAT      O67978   5.632   4.505   6.228
22579WAT     H167979   5.579   4.534   6.308
22579WAT     H267980   5.717   4.556   6.225
22580WAT      O67981   0.170   6.438   4.013
22580WAT     H167982   0.180   6.380   4.094
22580WAT     H267983   0.073   6.450   3.993
22581WAT      O67984   3.073   7.389   9.852
22581WAT     H167985   3.153   7.417   9.800
22581WAT     H267986   3.076   7.290   9.866
22582WAT      O67987   5.232   5.942   2.888
22582WAT     H167988   5.247   5.960   2.986
22582WAT     H267989   5.296   5.996   2.834
22583WAT      O67990   6.946   2.456   2.189
22583WAT     H167991   7.012   2.427   2.119
22583WAT     H267992   6.996   2.483   2.272
22584WAT      O67993   9.850   0.473   2.336
22584WAT     H167994   9.756   0.471   2.301
22584WAT     H267995   9.854   0.529   2.418
22585WAT      O67996   5.961   9.132   1.555
22585WAT     H167997   5.896   9.063   1.522
22585WAT     H267998   5.945   9.218   1.506
22586WAT      O67999   8.834   4.480   6.670
22586WAT     H168000   8.786   4.465   6.757
22586WAT     H268001   8.798   4.562   6.626
22587WAT      O68002   7.742   4.362   0.004
22587WAT     H168003   7.697   4.273   0.012
22587WAT     H268004   7.695   4.418  -0.064
22588WAT      O68005   6.242   8.983   0.462
22588WAT     H168006   6.317   8.921   0.488
22588WAT     H268007   6.280   9.074   0.443
22589WAT      O68008   1.335   6.647   2.910
22589WAT     H168009   1.290   6.605   2.989
22589WAT     H268010   1.433   6.654   2.927
22590WAT      O68011   7.675   3.502   9.439
22590WAT     H168012   7.686   3.501   9.539
22590WAT     H268013   7.623   3.421   9.411
22591WAT      O68014   6.034   0.759   9.184
22591WAT     H168015   6.059   0.771   9.280
22591WAT     H268016   6.115   0.737   9.130
22592WAT      O68017   0.528   8.973   5.200
22592WAT     H168018   0.472   8.993   5.280
22592WAT     H268019   0.560   8.878   5.204
22593WAT      O68020   1.447   7.305   1.733
22593WAT     H168021   1.527   7.303   1.793
22593WAT     H268022   1.458   7.237   1.661
22594WAT      O68023   0.015   7.880   5.212
22594WAT     H168024  -0.040   7.959   5.185
22594WAT     H268025   0.008   7.809   5.141
22595WAT      O68026   7.703   7.140   5.236
22595WAT     H168027   7.789   7.089   5.233
22595WAT     H268028   7.644   7.102   5.307
22596WAT      O68029   9.401   1.959   1.520
22596WAT     H168030   9.396   1.968   1.421
22596WAT     H268031   9.495   1.977   1.550
22597WAT      O68032   1.279   2.023   8.327
22597WAT     H168033   1.356   1.970   8.291
22597WAT     H268034   1.255   1.990   8.418
22598WAT      O68035   4.399   8.867   5.312
22598WAT     H168036   4.461   8.802   5.355
22598WAT     H268037   4.402   8.954   5.362
22599WAT      O68038   1.022   1.292   4.587
22599WAT     H168039   1.085   1.224   4.548
22599WAT     H268040   1.011   1.368   4.523
22600WAT      O68041   0.960   3.595   0.790
22600WAT     H168042   0.935   3.691   0.781
22600WAT     H268043   0.903   3.554   0.862
22601WAT      O68044   8.318   3.352   4.901
22601WAT     H168045   8.226   3.319   4.882
22601WAT     H268046   8.370   3.280   4.947
22602WAT      O68047   5.199   3.480   5.544
22602WAT     H168048   5.172   3.396   5.590
22602WAT     H268049   5.194   3.468   5.445
22603WAT      O68050   8.201   2.256   1.136
22603WAT     H168051   8.166   2.295   1.221
22603WAT     H268052   8.127   2.213   1.085
22604WAT      O68053   9.636   6.529   1.604
22604WAT     H168054   9.719   6.546   1.552
22604WAT     H268055   9.556   6.544   1.546
22605WAT      O68056   8.140   8.233   9.062
22605WAT     H168057   8.184   8.209   9.149
22605WAT     H268058   8.206   8.226   8.988
22606WAT      O68059   7.415   9.537   0.138
22606WAT     H168060   7.501   9.555   0.185
22606WAT     H268061   7.344   9.514   0.205
22607WAT      O68062   1.494   2.206   0.940
22607WAT     H168063   1.443   2.286   0.969
22607WAT     H268064   1.588   2.212   0.976
22608WAT      O68065   7.337   8.429   3.461
22608WAT     H168066   7.429   8.449   3.429
22608WAT     H268067   7.287   8.379   3.391
22609WAT      O68068   8.139   5.240   6.190
22609WAT     H168069   8.066   5.197   6.243
22609WAT     H268070   8.194   5.170   6.145
22610WAT      O68071   3.354   6.960   9.322
22610WAT     H168072   3.409   6.898   9.378
22610WAT     H268073   3.343   7.048   9.370
22611WAT      O68074   4.723   1.412   3.785
22611WAT     H168075   4.775   1.327   3.787
22611WAT     H268076   4.628   1.392   3.760
22612WAT      O68077   0.557   2.504   4.275
22612WAT     H168078   0.497   2.457   4.210
22612WAT     H268079   0.560   2.453   4.361
22613WAT      O68080   0.714   5.274   1.003
22613WAT     H168081   0.724   5.371   1.025
22613WAT     H268082   0.618   5.247   1.012
22614WAT      O68083   7.895   6.170   6.894
22614WAT     H168084   7.963   6.117   6.944
22614WAT     H268085   7.874   6.124   6.808
22615WAT      O68086   7.072   6.113   7.971
22615WAT     H168087   7.167   6.117   8.001
22615WAT     H268088   7.026   6.035   8.012
22616WAT      O68089   6.562   7.660   5.969
22616WAT     H168090   6.495   7.723   5.929
22616WAT     H268091   6.515   7.580   6.005
22617WAT      O68092   8.099   5.419   6.590
22617WAT     H168093   8.169   5.349   6.605
22617WAT     H268094   8.009   5.381   6.613
22618WAT      O68095   7.691   7.231   1.365
22618WAT     H168096   7.777   7.180   1.376
22618WAT     H268097   7.623   7.196   1.429
22619WAT      O68098   4.456   8.207   5.704
22619WAT     H168099   4.510   8.221   5.620
22619WAT     H268100   4.510   8.235   5.783
22620WAT      O68101   5.585   3.640   3.461
22620WAT     H168102   5.582   3.736   3.492
22620WAT     H268103   5.593   3.638   3.361
22621WAT      O68104   7.350   0.154   5.684
22621WAT     H168105   7.349   0.093   5.764
22621WAT     H268106   7.440   0.194   5.674
22622WAT      O68107   2.498   2.677   3.263
22622WAT     H168108   2.401   2.669   3.287
22622WAT     H268109   2.536   2.587   3.244
22623WAT      O68110   3.835   9.033   8.889
22623WAT     H168111   3.896   9.068   8.819
22623WAT     H268112   3.836   8.933   8.887
22624WAT      O68113   8.564   2.811   2.606
22624WAT     H168114   8.640   2.762   2.563
22624WAT     H268115   8.569   2.800   2.705
22625WAT      O68116   7.666   8.508   9.712
22625WAT     H168117   7.628   8.499   9.620
22625WAT     H268118   7.702   8.600   9.724
22626WAT      O68119   2.104   1.967   4.197
22626WAT     H168120   2.078   2.047   4.142
22626WAT     H268121   2.144   1.999   4.283
22627WAT      O68122   0.818   8.884   6.118
22627WAT     H168123   0.795   8.806   6.059
22627WAT     H268124   0.911   8.874   6.152
22628WAT      O68125   9.744   8.647   4.518
22628WAT     H168126   9.788   8.615   4.434
22628WAT     H268127   9.755   8.579   4.590
22629WAT      O68128   5.730   8.100   5.135
22629WAT     H168129   5.729   8.018   5.077
22629WAT     H268130   5.641   8.144   5.133
22630WAT      O68131   4.283   4.409   7.927
22630WAT     H168132   4.215   4.375   7.862
22630WAT     H268133   4.263   4.373   8.018
22631WAT      O68134   2.258   8.818   8.112
22631WAT     H168135   2.354   8.824   8.141
22631WAT     H268136   2.200   8.806   8.192
22632WAT      O68137   3.668   2.986   4.719
22632WAT     H168138   3.683   3.026   4.629
22632WAT     H268139   3.719   3.037   4.787
22633WAT      O68140   0.517   6.875   8.641
22633WAT     H168141   0.613   6.879   8.668
22633WAT     H268142   0.461   6.852   8.721
22634WAT      O68143   9.411   8.630   0.647
22634WAT     H168144   9.322   8.609   0.688
22634WAT     H268145   9.464   8.686   0.711
22635WAT      O68146   8.143   3.217   6.523
22635WAT     H168147   8.092   3.206   6.438
22635WAT     H268148   8.082   3.202   6.601
22636WAT      O68149   1.908   2.304   8.309
22636WAT     H168150   1.897   2.232   8.378
22636WAT     H268151   1.917   2.263   8.219
22637WAT      O68152   1.875   3.081   0.673
22637WAT     H168153   1.898   3.103   0.578
22637WAT     H268154   1.797   3.019   0.675
22638WAT      O68155   1.373   7.953   1.010
22638WAT     H168156   1.441   8.027   1.012
22638WAT     H268157   1.283   7.991   1.033
22639WAT      O68158   5.320   1.161   0.058
22639WAT     H168159   5.368   1.238   0.017
22639WAT     H268160   5.383   1.084   0.068
22640WAT      O68161   8.818   6.537   0.652
22640WAT     H168162   8.812   6.444   0.688
22640WAT     H268163   8.728   6.580   0.656
22641WAT      O68164   1.749   1.245   3.124
22641WAT     H168165   1.812   1.318   3.099
22641WAT     H268166   1.687   1.277   3.196
22642WAT      O68167   3.737   6.123   3.208
22642WAT     H168168   3.664   6.091   3.268
22642WAT     H268169   3.723   6.086   3.116
22643WAT      O68170   5.212   8.000   2.629
22643WAT     H168171   5.291   7.979   2.571
22643WAT     H268172   5.173   7.915   2.664
22644WAT      O68173   4.798   3.910   2.432
22644WAT     H168174   4.829   3.949   2.519
22644WAT     H268175   4.860   3.837   2.404
22645WAT      O68176   3.117   0.606   3.984
22645WAT     H168177   3.216   0.615   3.979
22645WAT     H268178   3.089   0.602   4.080
22646WAT      O68179   3.821   5.103   4.982
22646WAT     H168180   3.887   5.030   5.001
22646WAT     H268181   3.735   5.063   4.952
22647WAT      O68182   3.396   5.433   3.100
22647WAT     H168183   3.316   5.492   3.088
22647WAT     H268184   3.375   5.362   3.167
22648WAT      O68185   3.698   7.654   5.619
22648WAT     H168186   3.680   7.705   5.703
22648WAT     H268187   3.689   7.556   5.637
22649WAT      O68188   9.768   6.016   1.294
22649WAT     H168189   9.706   6.009   1.215
22649WAT     H268190   9.767   6.110   1.328
22650WAT      O68191   7.251   6.207   1.286
22650WAT     H168192   7.209   6.255   1.210
22650WAT     H268193   7.196   6.221   1.369
22651WAT      O68194   5.205   5.206   5.727
22651WAT     H168195   5.279   5.181   5.664
22651WAT     H268196   5.233   5.186   5.821
22652WAT      O68197   7.499   3.351   5.755
22652WAT     H168198   7.436   3.416   5.797
22652WAT     H268199   7.582   3.399   5.726
22653WAT      O68200   3.790   7.255   1.818
22653WAT     H168201   3.856   7.241   1.744
22653WAT     H268202   3.715   7.313   1.785
22654WAT      O68203   6.235   0.974   6.009
22654WAT     H168204   6.325   0.955   6.049
22654WAT     H268205   6.180   1.025   6.075
22655WAT      O68206   2.288   2.425   2.583
22655WAT     H168207   2.285   2.524   2.572
22655WAT     H268208   2.347   2.385   2.513
22656WAT      O68209   7.495   3.982   8.579
22656WAT     H168210   7.509   4.069   8.626
22656WAT     H268211   7.575   3.924   8.589
22657WAT      O68212   8.235   0.541   6.817
22657WAT     H168213   8.194   0.461   6.861
22657WAT     H268214   8.164   0.610   6.800
22658WAT      O68215   0.055   1.530   0.989
22658WAT     H168216   0.150   1.502   1.007
22658WAT     H268217   0.003   1.452   0.956
22659WAT      O68218   2.458   1.120   2.647
22659WAT     H168219   2.425   1.032   2.682
22659WAT     H268220   2.526   1.158   2.709
22660WAT      O68221   6.484   2.608   3.305
22660WAT     H168222   6.474   2.699   3.265
22660WAT     H268223   6.473   2.614   3.404
22661WAT      O68224   4.330   3.579   3.181
22661WAT     H168225   4.318   3.570   3.082
22661WAT     H268226   4.350   3.489   3.220
22662WAT      O68227   7.345   3.528   2.553
22662WAT     H168228   7.388   3.506   2.466
22662WAT     H268229   7.249   3.498   2.552
22663WAT      O68230   5.156   8.327   6.171
22663WAT     H168231   5.084   8.371   6.118
22663WAT     H268232   5.234   8.308   6.112
22664WAT      O68233   3.987   4.300   6.472
22664WAT     H168234   4.072   4.341   6.504
22664WAT     H268235   3.994   4.280   6.374
22665WAT      O68236   8.989   1.761   1.734
22665WAT     H168237   8.910   1.701   1.721
22665WAT     H268238   8.963   1.855   1.711
22666WAT      O68239   4.532   8.825   2.842
22666WAT     H168240   4.621   8.867   2.858
22666WAT     H268241   4.543   8.749   2.777
22667WAT      O68242   6.834   6.738   3.823
22667WAT     H168243   6.843   6.645   3.860
22667WAT     H268244   6.773   6.735   3.743
22668WAT      O68245   2.013   5.432   4.559
22668WAT     H168246   1.959   5.387   4.630
22668WAT     H268247   1.962   5.431   4.473
22669WAT      O68248   5.194   1.465   9.446
22669WAT     H168249   5.293   1.457   9.430
22669WAT     H268250   5.153   1.374   9.446
22670WAT      O68251   4.770   7.139   6.039
22670WAT     H168252   4.821   7.070   5.988
22670WAT     H268253   4.696   7.094   6.089
22671WAT      O68254   1.352   1.735   7.973
22671WAT     H168255   1.295   1.768   8.049
22671WAT     H268256   1.429   1.682   8.009
22672WAT      O68257   7.637   5.345   6.439
22672WAT     H168258   7.577   5.268   6.416
22672WAT     H268259   7.581   5.426   6.460
22673WAT      O68260   2.551   7.661   5.253
22673WAT     H168261   2.508   7.713   5.327
22673WAT     H268262   2.609   7.722   5.199
22674WAT      O68263   0.698   5.648   1.935
22674WAT     H168264   0.785   5.602   1.920
22674WAT     H268265   0.677   5.706   1.857
22675WAT      O68266   4.023   4.519   2.455
22675WAT     H168267   4.114   4.538   2.417
22675WAT     H268268   3.968   4.469   2.388
22676WAT      O68269   3.097   5.934   3.227
22676WAT     H168270   3.162   5.864   3.257
22676WAT     H268271   3.040   5.897   3.154
22677WAT      O68272   7.401   4.140   8.042
22677WAT     H168273   7.330   4.102   8.101
22677WAT     H268274   7.474   4.073   8.031
22678WAT      O68275   4.277   7.093   2.905
22678WAT     H168276   4.214   7.016   2.913
22678WAT     H268277   4.314   7.097   2.812
22679WAT      O68278   0.853   1.418   8.765
22679WAT     H168279   0.894   1.442   8.853
22679WAT     H268280   0.782   1.348   8.780
22680WAT      O68281   1.485   8.251   3.462
22680WAT     H168282   1.569   8.216   3.504
22680WAT     H268283   1.414   8.181   3.465
22681WAT      O68284   9.605   2.122   9.183
22681WAT     H168285   9.516   2.167   9.189
22681WAT     H268286   9.646   2.141   9.094
22682WAT      O68287   5.752   3.833   0.343
22682WAT     H168288   5.769   3.799   0.250
22682WAT     H268289   5.666   3.796   0.377
22683WAT      O68290   5.625   3.905   1.685
22683WAT     H168291   5.595   3.932   1.776
22683WAT     H268292   5.650   3.987   1.632
22684WAT      O68293   5.607   8.357   7.555
22684WAT     H168294   5.678   8.305   7.507
22684WAT     H268295   5.641   8.449   7.574
22685WAT      O68296   7.561   5.224   3.255
22685WAT     H168297   7.582   5.276   3.337
22685WAT     H268298   7.620   5.144   3.250
22686WAT      O68299   9.533   7.405   3.543
22686WAT     H168300   9.574   7.434   3.457
22686WAT     H268301   9.455   7.464   3.564
22687WAT      O68302   3.061   2.709   5.186
22687WAT     H168303   3.119   2.678   5.111
22687WAT     H268304   2.984   2.646   5.198
22688WAT      O68305   8.814   5.374   8.017
22688WAT     H168306   8.889   5.390   8.081
22688WAT     H268307   8.801   5.275   8.005
22689WAT      O68308   8.478   7.264   6.022
22689WAT     H168309   8.389   7.292   6.058
22689WAT     H268310   8.479   7.277   5.923
22690WAT      O68311   6.906   8.066   1.916
22690WAT     H168312   6.893   8.122   1.997
22690WAT     H268313   6.827   8.076   1.855
22691WAT      O68314   2.340   6.323   0.063
22691WAT     H168315   2.414   6.272   0.019
22691WAT     H268316   2.342   6.305   0.162
22692WAT      O68317   9.043   0.143   7.914
22692WAT     H168318   8.980   0.166   7.988
22692WAT     H268319   9.136   0.136   7.949
22693WAT      O68320   4.014   9.307   2.133
22693WAT     H168321   3.996   9.266   2.223
22693WAT     H268322   4.044   9.402   2.146
22694WAT      O68323   4.409   4.178   0.647
22694WAT     H168324   4.352   4.168   0.566
22694WAT     H268325   4.463   4.262   0.640
22695WAT      O68326   7.859   8.607   2.705
22695WAT     H168327   7.797   8.662   2.649
22695WAT     H268328   7.885   8.525   2.654
22696WAT      O68329   3.683   6.603   4.029
22696WAT     H168330   3.761   6.641   4.078
22696WAT     H268331   3.715   6.561   3.943
22697WAT      O68332   6.724   4.870   1.071
22697WAT     H168333   6.818   4.868   1.104
22697WAT     H268334   6.692   4.965   1.066
22698WAT      O68335   9.120   4.595   5.663
22698WAT     H168336   9.204   4.549   5.691
22698WAT     H268337   9.111   4.682   5.712
22699WAT      O68338   2.506   1.873   6.131
22699WAT     H168339   2.476   1.873   6.226
22699WAT     H268340   2.595   1.828   6.124
22700WAT      O68341   5.704   0.751   7.237
22700WAT     H168342   5.666   0.844   7.232
22700WAT     H268343   5.640   0.687   7.195
22701WAT      O68344   7.303   6.986   5.763
22701WAT     H168345   7.228   7.052   5.766
22701WAT     H268346   7.387   7.033   5.736
22702WAT      O68347   2.399   3.034   0.441
22702WAT     H168348   2.316   3.000   0.484
22702WAT     H268349   2.385   3.044   0.343
22703WAT      O68350   8.669   6.553   0.121
22703WAT     H168351   8.746   6.489   0.115
22703WAT     H268352   8.588   6.513   0.078
22704WAT      O68353   7.735   7.467   2.794
22704WAT     H168354   7.724   7.436   2.700
22704WAT     H268355   7.811   7.532   2.799
22705WAT      O68356   1.917   6.084   0.648
22705WAT     H168357   1.947   6.115   0.558
22705WAT     H268358   1.971   6.130   0.718
22706WAT      O68359   1.922   4.158   2.277
22706WAT     H168360   1.950   4.163   2.181
22706WAT     H268361   1.882   4.245   2.305
22707WAT      O68362   3.833   6.412   4.866
22707WAT     H168363   3.833   6.319   4.902
22707WAT     H268364   3.921   6.455   4.885
22708WAT      O68365   5.533   1.906   5.966
22708WAT     H168366   5.439   1.892   5.997
22708WAT     H268367   5.597   1.874   6.036
22709WAT      O68368   2.348   3.610   1.030
22709WAT     H168369   2.335   3.581   1.124
22709WAT     H268370   2.434   3.572   0.995
22710WAT      O68371   9.335   1.804   0.876
22710WAT     H168372   9.253   1.748   0.886
22710WAT     H268373   9.309   1.897   0.850
22711WAT      O68374   6.779   4.931   8.079
22711WAT     H168375   6.791   4.842   8.034
22711WAT     H268376   6.736   4.995   8.016
22712WAT      O68377   9.721   5.910   2.629
22712WAT     H168378   9.743   6.006   2.609
22712WAT     H268379   9.779   5.878   2.704
22713WAT      O68380   5.743   2.422   3.140
22713WAT     H168381   5.778   2.513   3.115
22713WAT     H268382   5.796   2.352   3.091
22714WAT      O68383   0.093   8.529   7.462
22714WAT     H168384   0.049   8.616   7.440
22714WAT     H268385   0.162   8.507   7.393
22715WAT      O68386   2.931   7.799   9.668
22715WAT     H168387   2.940   7.740   9.587
22715WAT     H268388   2.858   7.865   9.652
22716WAT      O68389   2.039   5.110   3.415
22716WAT     H168390   1.965   5.043   3.423
22716WAT     H268391   2.008   5.189   3.363
22717WAT      O68392   2.123   7.719   4.384
22717WAT     H168393   2.034   7.678   4.403
22717WAT     H268394   2.113   7.818   4.376
22718WAT      O68395   9.857   8.919   3.545
22718WAT     H168396   9.885   9.002   3.594
22718WAT     H268397   9.853   8.842   3.609
22719WAT      O68398   7.943   3.808   6.849
22719WAT     H168399   7.853   3.768   6.832
22719WAT     H268400   8.012   3.736   6.853
22720WAT      O68401   1.004   9.551   8.276
22720WAT     H168402   1.005   9.518   8.371
22720WAT     H268403   1.018   9.650   8.275
22721WAT      O68404   4.616   6.820   0.109
22721WAT     H168405   4.557   6.894   0.077
22721WAT     H268406   4.575   6.776   0.189
22722WAT      O68407   9.459   9.673   2.514
22722WAT     H168408   9.410   9.724   2.585
22722WAT     H268409   9.527   9.613   2.556
22723WAT      O68410   9.443   0.776   6.120
22723WAT     H168411   9.364   0.833   6.144
22723WAT     H268412   9.414   0.680   6.113
22724WAT      O68413   7.470   7.866   6.063
22724WAT     H168414   7.458   7.951   6.010
22724WAT     H268415   7.400   7.800   6.037
22725WAT      O68416   7.788   2.694   4.356
22725WAT     H168417   7.825   2.639   4.431
22725WAT     H268418   7.853   2.768   4.334
22726WAT      O68419   3.902   3.959   9.607
22726WAT     H168420   3.866   3.921   9.522
22726WAT     H268421   3.896   3.891   9.680
22727WAT      O68422   5.451   9.480   9.027
22727WAT     H168423   5.467   9.486   8.928
22727WAT     H268424   5.515   9.540   9.074
22728WAT      O68425   9.018   4.151   9.308
22728WAT     H168426   8.924   4.136   9.338
22728WAT     H268427   9.032   4.247   9.285
22729WAT      O68428   1.808   0.713   4.613
22729WAT     H168429   1.768   0.777   4.679
22729WAT     H268430   1.756   0.716   4.528
22730WAT      O68431   1.072   6.416   9.592
22730WAT     H168432   1.020   6.331   9.596
22730WAT     H268433   1.133   6.415   9.513
22731WAT      O68434   4.077   4.614   7.715
22731WAT     H168435   4.067   4.520   7.749
22731WAT     H268436   4.011   4.629   7.641
22732WAT      O68437   3.349   2.751   2.660
22732WAT     H168438   3.444   2.776   2.679
22732WAT     H268439   3.331   2.762   2.562
22733WAT      O68440   2.556   0.443   4.940
22733WAT     H168441   2.563   0.437   5.040
22733WAT     H268442   2.467   0.408   4.911
22734WAT      O68443   2.950   6.765   3.992
22734WAT     H168444   2.903   6.693   3.940
22734WAT     H268445   3.042   6.777   3.955
22735WAT      O68446   5.919   4.567   0.835
22735WAT     H168447   5.995   4.630   0.849
22735WAT     H268448   5.882   4.580   0.743
22736WAT      O68449   5.677   6.241   4.323
22736WAT     H168450   5.676   6.157   4.377
22736WAT     H268451   5.583   6.268   4.301
22737WAT      O68452   0.335   6.862   0.597
22737WAT     H168453   0.298   6.874   0.689
22737WAT     H268454   0.273   6.904   0.531
22738WAT      O68455   1.521   3.253   9.458
22738WAT     H168456   1.530   3.213   9.549
22738WAT     H268457   1.465   3.335   9.462
22739WAT      O68458   1.526   9.796   6.033
22739WAT     H168459   1.427   9.800   6.016
22739WAT     H268460   1.572   9.762   5.951
22740WAT      O68461   9.377   9.605   9.114
22740WAT     H168462   9.441   9.625   9.188
22740WAT     H268463   9.376   9.681   9.050
22741WAT      O68464   6.508   2.554   3.587
22741WAT     H168465   6.523   2.624   3.658
22741WAT     H268466   6.418   2.511   3.602
22742WAT      O68467   0.773   9.603   8.150
22742WAT     H168468   0.847   9.583   8.213
22742WAT     H268469   0.740   9.697   8.166
22743WAT      O68470   8.933   6.350   4.039
22743WAT     H168471   9.025   6.325   4.066
22743WAT     H268472   8.909   6.438   4.078
22744WAT      O68473   9.248   8.622   8.524
22744WAT     H168474   9.178   8.554   8.544
22744WAT     H268475   9.206   8.703   8.485
22745WAT      O68476   5.723   6.321   5.417
22745WAT     H168477   5.816   6.354   5.434
22745WAT     H268478   5.691   6.271   5.498
22746WAT      O68479   6.274   3.534   1.614
22746WAT     H168480   6.255   3.616   1.669
22746WAT     H268481   6.285   3.455   1.675
22747WAT      O68482   1.844   7.565   8.779
22747WAT     H168483   1.934   7.522   8.774
22747WAT     H268484   1.820   7.605   8.690
22748WAT      O68485   8.310   8.757   6.769
22748WAT     H168486   8.365   8.708   6.702
22748WAT     H268487   8.231   8.799   6.724
22749WAT      O68488   0.195   5.498   9.610
22749WAT     H168489   0.206   5.595   9.588
22749WAT     H268490   0.210   5.443   9.528
22750WAT      O68491   4.493   8.747   7.025
22750WAT     H168492   4.407   8.766   6.979
22750WAT     H268493   4.531   8.832   7.062
22751WAT      O68494   8.842   4.529   2.647
22751WAT     H168495   8.754   4.503   2.687
22751WAT     H268496   8.876   4.612   2.691
22752WAT      O68497   2.461   0.675   8.042
22752WAT     H168498   2.376   0.727   8.052
22752WAT     H268499   2.539   0.736   8.051
22753WAT      O68500   1.172   3.457   4.348
22753WAT     H168501   1.171   3.491   4.442
22753WAT     H268502   1.129   3.367   4.345
22754WAT      O68503   8.055   7.367   2.755
22754WAT     H168504   8.032   7.460   2.727
22754WAT     H268505   8.064   7.363   2.854
22755WAT      O68506   9.847   6.166   7.903
22755WAT     H168507   9.878   6.232   7.835
22755WAT     H268508   9.927   6.120   7.944
22756WAT      O68509   7.634   9.520   9.527
22756WAT     H168510   7.670   9.570   9.448
22756WAT     H268511   7.579   9.442   9.496
22757WAT      O68512   1.541   3.586   6.743
22757WAT     H168513   1.490   3.660   6.786
22757WAT     H268514   1.486   3.502   6.744
22758WAT      O68515   3.617   8.939   2.432
22758WAT     H168516   3.640   8.952   2.335
22758WAT     H268517   3.561   8.857   2.442
22759WAT      O68518   8.033   9.270   1.078
22759WAT     H168519   8.051   9.262   0.980
22759WAT     H268520   8.109   9.231   1.129
22760WAT      O68521   5.790   6.085   5.208
22760WAT     H168522   5.714   6.029   5.242
22760WAT     H268523   5.761   6.180   5.203
22761WAT      O68524   4.902   5.750   3.152
22761WAT     H168525   4.853   5.697   3.083
22761WAT     H268526   4.920   5.693   3.232
22762WAT      O68527   6.939   2.794   4.032
22762WAT     H168528   6.882   2.724   4.076
22762WAT     H268529   6.987   2.846   4.102
22763WAT      O68530   9.464   9.757   0.083
22763WAT     H168531   9.523   9.689   0.040
22763WAT     H268532   9.477   9.846   0.038
22764WAT      O68533   4.027   1.965   0.288
22764WAT     H168534   4.016   1.998   0.194
22764WAT     H268535   4.044   1.866   0.287
22765WAT      O68536   1.774   4.474   5.667
22765WAT     H168537   1.699   4.410   5.683
22765WAT     H268538   1.773   4.545   5.738
22766WAT      O68539   0.263   0.279   9.333
22766WAT     H168540   0.232   0.367   9.369
22766WAT     H268541   0.353   0.258   9.372
22767WAT      O68542   3.601   7.450   7.475
22767WAT     H168543   3.670   7.489   7.415
22767WAT     H268544   3.521   7.510   7.478
22768WAT      O68545   0.563   5.398   7.905
22768WAT     H168546   0.492   5.423   7.839
22768WAT     H268547   0.646   5.450   7.887
22769WAT      O68548   7.382   1.098   2.946
22769WAT     H168549   7.478   1.073   2.935
22769WAT     H268550   7.347   1.057   3.031
22770WAT      O68551   8.563   0.111   2.888
22770WAT     H168552   8.542   0.115   2.985
22770WAT     H268553   8.646   0.057   2.873
22771WAT      O68554   8.672   7.761   1.931
22771WAT     H168555   8.720   7.849   1.932
22771WAT     H268556   8.739   7.687   1.933
22772WAT      O68557   7.239   5.371   8.360
22772WAT     H168558   7.162   5.385   8.297
22772WAT     H268559   7.310   5.439   8.342
22773WAT      O68560   8.077   1.976   3.357
22773WAT     H168561   8.158   1.988   3.415
22773WAT     H268562   8.038   2.066   3.336
22774WAT      O68563   1.312   4.950   1.451
22774WAT     H168564   1.297   4.894   1.370
22774WAT     H268565   1.299   5.046   1.429
22775WAT      O68566   5.536   3.783   5.232
22775WAT     H168567   5.537   3.738   5.321
22775WAT     H268568   5.568   3.878   5.242
22776WAT      O68569   7.558   9.827   9.046
22776WAT     H168570   7.527   9.733   9.036
22776WAT     H268571   7.527   9.863   9.135
22777WAT      O68572   1.116   5.097   1.689
22777WAT     H168573   1.184   5.134   1.752
22777WAT     H268574   1.025   5.101   1.731
22778WAT      O68575   9.243   4.440   4.319
22778WAT     H168576   9.160   4.417   4.370
22778WAT     H268577   9.249   4.382   4.238
22779WAT      O68578   4.514   7.884   1.010
22779WAT     H168579   4.495   7.804   1.068
22779WAT     H268580   4.543   7.853   0.919
22780WAT      O68581   6.258   1.251   5.630
22780WAT     H168582   6.170   1.209   5.651
22780WAT     H268583   6.244   1.346   5.600
22781WAT      O68584   0.556   3.500   1.177
22781WAT     H168585   0.541   3.513   1.275
22781WAT     H268586   0.483   3.442   1.140
22782WAT      O68587   3.446   8.577   4.844
22782WAT     H168588   3.450   8.649   4.774
22782WAT     H268589   3.533   8.527   4.845
22783WAT      O68590   1.174   8.333   8.388
22783WAT     H168591   1.112   8.366   8.317
22783WAT     H268592   1.131   8.256   8.436
22784WAT      O68593   0.065   6.081   6.602
22784WAT     H168594   0.108   6.082   6.692
22784WAT     H268595   0.118   6.022   6.541
22785WAT      O68596   4.771   6.025   7.152
22785WAT     H168597   4.803   6.081   7.075
22785WAT     H268598   4.721   5.946   7.117
22786WAT      O68599   0.267   0.963   3.129
22786WAT     H168600   0.345   1.025   3.136
22786WAT     H268601   0.231   0.965   3.035
22787WAT      O68602   7.338   5.198   6.732
22787WAT     H168603   7.274   5.121   6.727
22787WAT     H268604   7.313   5.267   6.664
22788WAT      O68605   3.133   0.443   7.480
22788WAT     H168606   3.038   0.459   7.452
22788WAT     H268607   3.140   0.452   7.580
22789WAT      O68608   5.103   0.100   6.290
22789WAT     H168609   5.196   0.137   6.292
22789WAT     H268610   5.039   0.171   6.260
22790WAT      O68611   8.500   5.526   3.916
22790WAT     H168612   8.575   5.560   3.858
22790WAT     H268613   8.531   5.521   4.011
22791WAT      O68614   3.567   6.569   2.540
22791WAT     H168615   3.569   6.472   2.518
22791WAT     H268616   3.482   6.591   2.588
22792WAT      O68617   3.296   1.306   4.213
22792WAT     H168618   3.260   1.372   4.147
22792WAT     H268619   3.386   1.274   4.183
22793WAT      O68620   4.706   0.750   0.752
22793WAT     H168621   4.663   0.665   0.722
22793WAT     H268622   4.678   0.770   0.846
22794WAT      O68623   6.770   5.647   5.012
22794WAT     H168624   6.786   5.723   5.075
22794WAT     H268625   6.858   5.606   4.986
22795WAT      O68626   6.030   1.668   5.444
22795WAT     H168627   5.969   1.658   5.365
22795WAT     H268628   6.005   1.751   5.494
22796WAT      O68629   0.932   5.594   8.998
22796WAT     H168630   1.010   5.646   8.965
22796WAT     H268631   0.861   5.657   9.032
22797WAT      O68632   3.884   7.934   3.163
22797WAT     H168633   3.940   7.876   3.222
22797WAT     H268634   3.831   7.877   3.101
22798WAT      O68635   4.486   5.379   7.292
22798WAT     H168636   4.461   5.342   7.382
22798WAT     H268637   4.425   5.341   7.223
22799WAT      O68638   3.437   6.867   6.164
22799WAT     H168639   3.413   6.837   6.256
22799WAT     H268640   3.369   6.933   6.132
22800WAT      O68641   1.132   3.433   3.868
22800WAT     H168642   1.230   3.444   3.857
22800WAT     H268643   1.084   3.508   3.821
22801WAT      O68644   2.736   8.768   2.288
22801WAT     H168645   2.820   8.820   2.301
22801WAT     H268646   2.712   8.722   2.374
22802WAT      O68647   4.317   0.004   3.599
22802WAT     H168648   4.253   0.000   3.675
22802WAT     H268649   4.332   0.100   3.573
22803WAT      O68650   8.767   3.284   5.882
22803WAT     H168651   8.674   3.319   5.875
22803WAT     H268652   8.822   3.346   5.939
22804WAT      O68653   7.614   2.810   2.800
22804WAT     H168654   7.663   2.875   2.742
22804WAT     H268655   7.540   2.857   2.848
22805WAT      O68656   6.649   8.068   1.840
22805WAT     H168657   6.612   8.152   1.880
22805WAT     H268658   6.592   8.040   1.763
22806WAT      O68659   7.415   0.881   1.969
22806WAT     H168660   7.380   0.946   2.035
22806WAT     H268661   7.356   0.800   1.968
22807WAT      O68662   5.218   5.150   9.227
22807WAT     H168663   5.211   5.120   9.132
22807WAT     H268664   5.250   5.245   9.230
22808WAT      O68665   2.640   2.859   9.020
22808WAT     H168666   2.548   2.834   8.992
22808WAT     H268667   2.707   2.804   8.970
22809WAT      O68668   3.998   0.719   3.511
22809WAT     H168669   3.940   0.698   3.432
22809WAT     H268670   3.961   0.798   3.559
22810WAT      O68671   7.101   4.115   2.672
22810WAT     H168672   7.057   4.064   2.598
22810WAT     H268673   7.132   4.051   2.742
22811WAT      O68674   2.347   7.724   6.311
22811WAT     H168675   2.433   7.682   6.340
22811WAT     H268676   2.288   7.654   6.271
22812WAT      O68677   3.069   7.183   4.496
22812WAT     H168678   3.095   7.232   4.579
22812WAT     H268679   3.038   7.248   4.427
22813WAT      O68680   9.141   7.369   6.116
22813WAT     H168681   9.223   7.425   6.123
22813WAT     H268682   9.165   7.279   6.079
22814WAT      O68683   5.006   5.575   1.496
22814WAT     H168684   4.917   5.600   1.534
22814WAT     H268685   5.021   5.625   1.411
22815WAT      O68686   0.529   5.253   2.247
22815WAT     H168687   0.532   5.222   2.152
22815WAT     H268688   0.448   5.309   2.261
22816WAT      O68689   3.624   4.711   1.088
22816WAT     H168690   3.583   4.802   1.079
22816WAT     H268691   3.658   4.699   1.181
22817WAT      O68692   1.591   4.991   8.677
22817WAT     H168693   1.546   4.920   8.623
22817WAT     H268694   1.612   5.069   8.618
22818WAT      O68695   8.905   2.061   1.615
22818WAT     H168696   8.896   2.141   1.556
22818WAT     H268697   8.822   2.049   1.669
22819WAT      O68698   9.657   6.266   8.916
22819WAT     H168699   9.692   6.285   8.825
22819WAT     H268700   9.725   6.216   8.969
22820WAT      O68701   3.919   3.427   0.171
22820WAT     H168702   3.869   3.511   0.150
22820WAT     H268703   3.874   3.350   0.126
22821WAT      O68704   9.076   8.197   0.648
22821WAT     H168705   9.081   8.278   0.590
22821WAT     H268706   8.980   8.173   0.663
22822WAT      O68707   1.776   0.805   1.737
22822WAT     H168708   1.771   0.905   1.745
22822WAT     H268709   1.850   0.780   1.674
22823WAT      O68710   1.368   7.956   4.281
22823WAT     H168711   1.374   7.890   4.356
22823WAT     H268712   1.322   8.039   4.313
22824WAT      O68713   7.781   8.341   1.984
22824WAT     H168714   7.768   8.243   2.003
22824WAT     H268715   7.879   8.360   1.979
22825WAT      O68716   6.835   8.974   0.975
22825WAT     H168717   6.793   8.890   0.939
22825WAT     H268718   6.840   8.968   1.075
22826WAT      O68719   8.978   5.425   9.780
22826WAT     H168720   9.062   5.375   9.757
22826WAT     H268721   8.916   5.423   9.701
22827WAT      O68722   4.836   2.070   4.752
22827WAT     H168723   4.807   1.985   4.796
22827WAT     H268724   4.862   2.051   4.657
22828WAT      O68725   1.029   5.779   9.411
22828WAT     H168726   1.016   5.747   9.505
22828WAT     H268727   1.039   5.701   9.350
22829WAT      O68728   4.369   1.510   3.871
22829WAT     H168729   4.368   1.417   3.836
22829WAT     H268730   4.351   1.574   3.797
22830WAT      O68731   1.268   4.257   3.722
22830WAT     H168732   1.283   4.163   3.691
22830WAT     H268733   1.339   4.316   3.685
22831WAT      O68734   8.243   6.543   1.355
22831WAT     H168735   8.324   6.551   1.413
22831WAT     H268736   8.175   6.612   1.381
22832WAT      O68737   0.919   6.456   6.519
22832WAT     H168738   0.894   6.492   6.609
22832WAT     H268739   0.846   6.474   6.453
22833WAT      O68740   1.855   9.548   2.112
22833WAT     H168741   1.936   9.491   2.095
22833WAT     H268742   1.813   9.521   2.198
22834WAT      O68743   5.879   0.902   0.043
22834WAT     H168744   5.887   0.895  -0.057
22834WAT     H268745   5.917   0.819   0.085
22835WAT      O68746   1.538   9.037   4.968
22835WAT     H168747   1.581   9.106   4.910
22835WAT     H268748   1.490   8.970   4.911
22836WAT      O68749   0.196   0.827   2.027
22836WAT     H168750   0.131   0.796   1.959
22836WAT     H268751   0.173   0.787   2.116
22837WAT      O68752   7.343   3.270   7.961
22837WAT     H168753   7.253   3.226   7.958
22837WAT     H268754   7.414   3.200   7.953
22838WAT      O68755   3.329   6.132   8.368
22838WAT     H168756   3.320   6.215   8.313
22838WAT     H268757   3.373   6.061   8.314
22839WAT      O68758   2.758   0.873   7.606
22839WAT     H168759   2.821   0.847   7.532
22839WAT     H268760   2.709   0.956   7.580
22840WAT      O68761   7.031   3.547   8.854
22840WAT     H168762   7.105   3.480   8.849
22840WAT     H268763   6.970   3.535   8.775
22841WAT      O68764   5.617   7.171   2.076
22841WAT     H168765   5.611   7.083   2.123
22841WAT     H268766   5.666   7.159   1.989
22842WAT      O68767   1.433   7.865   6.839
22842WAT     H168768   1.358   7.925   6.810
22842WAT     H268769   1.421   7.841   6.935
22843WAT      O68770   3.434   8.369   1.012
22843WAT     H168771   3.529   8.343   1.028
22843WAT     H268772   3.421   8.389   0.915
22844WAT      O68773   8.645   2.983   0.869
22844WAT     H168774   8.600   2.982   0.958
22844WAT     H268775   8.723   2.921   0.870
22845WAT      O68776   2.334   0.964   3.552
22845WAT     H168777   2.276   0.955   3.634
22845WAT     H268778   2.368   1.058   3.546
22846WAT      O68779   8.292   5.408   8.227
22846WAT     H168780   8.226   5.357   8.173
22846WAT     H268781   8.384   5.372   8.210
22847WAT      O68782   5.966   8.126   9.275
22847WAT     H168783   5.991   8.174   9.192
22847WAT     H268784   5.893   8.061   9.256
22848WAT      O68785   3.023   3.780   0.590
22848WAT     H168786   3.070   3.865   0.565
22848WAT     H268787   2.926   3.798   0.601
22849WAT      O68788   0.945   2.388   3.043
22849WAT     H168789   0.927   2.308   2.987
22849WAT     H268790   0.926   2.471   2.990
22850WAT      O68791   2.238   6.566   4.317
22850WAT     H168792   2.316   6.523   4.363
22850WAT     H268793   2.250   6.559   4.218
22851WAT      O68794   4.111   7.548   4.731
22851WAT     H168795   4.129   7.645   4.715
22851WAT     H268796   4.078   7.506   4.647
22852WAT      O68797   7.214   0.567   4.183
22852WAT     H168798   7.208   0.501   4.258
22852WAT     H268799   7.305   0.563   4.141
22853WAT      O68800   7.206   4.734   6.800
22853WAT     H168801   7.194   4.705   6.895
22853WAT     H268802   7.289   4.692   6.763
22854WAT      O68803   5.120   0.064   4.541
22854WAT     H168804   5.186   0.060   4.467
22854WAT     H268805   5.064   0.146   4.531
22855WAT      O68806   6.402   6.706   1.023
22855WAT     H168807   6.380   6.699   1.120
22855WAT     H268808   6.388   6.800   0.992
22856WAT      O68809   6.759   1.251   3.348
22856WAT     H168810   6.670   1.258   3.303
22856WAT     H268811   6.820   1.194   3.292
22857WAT      O68812   1.577   1.450   3.581
22857WAT     H168813   1.613   1.358   3.596
22857WAT     H268814   1.477   1.447   3.578
22858WAT      O68815   9.500   7.444   1.861
22858WAT     H168816   9.460   7.486   1.780
22858WAT     H268817   9.594   7.416   1.841
22859WAT      O68818   8.345   1.118   4.731
22859WAT     H168819   8.283   1.163   4.667
22859WAT     H268820   8.305   1.120   4.823
22860WAT      O68821   3.288   7.936   9.339
22860WAT     H168822   3.251   7.951   9.430
22860WAT     H268823   3.355   7.863   9.341
22861WAT      O68824   0.433   4.057   9.538
22861WAT     H168825   0.462   3.962   9.534
22861WAT     H268826   0.503   4.115   9.496
22862WAT      O68827   2.717   0.544   4.244
22862WAT     H168828   2.729   0.584   4.334
22862WAT     H268829   2.643   0.477   4.246
22863WAT      O68830   4.498   2.551   6.382
22863WAT     H168831   4.532   2.457   6.379
22863WAT     H268832   4.413   2.554   6.435
22864WAT      O68833   7.644   9.757   0.434
22864WAT     H168834   7.561   9.811   0.421
22864WAT     H268835   7.724   9.817   0.425
22865WAT      O68836   8.612   6.022   6.989
22865WAT     H168837   8.656   5.968   6.918
22865WAT     H268838   8.674   6.094   7.020
22866WAT      O68839   3.348   0.911   2.799
22866WAT     H168840   3.303   0.968   2.730
22866WAT     H268841   3.375   0.968   2.876
22867WAT      O68842   6.381   0.642   6.004
22867WAT     H168843   6.296   0.641   6.056
22867WAT     H268844   6.431   0.726   6.023
22868WAT      O68845   3.001   1.523   9.869
22868WAT     H168846   3.067   1.478   9.809
22868WAT     H268847   2.921   1.552   9.815
22869WAT      O68848   5.205   4.876   7.864
22869WAT     H168849   5.165   4.968   7.859
22869WAT     H268850   5.157   4.816   7.800
22870WAT      O68851   0.030   1.277   4.492
22870WAT     H168852   0.027   1.178   4.502
22870WAT     H268853  -0.064   1.313   4.492
22871WAT      O68854   6.762   2.749   6.494
22871WAT     H168855   6.672   2.756   6.538
22871WAT     H268856   6.789   2.653   6.486
22872WAT      O68857   4.294   6.332   8.420
22872WAT     H168858   4.279   6.257   8.484
22872WAT     H268859   4.386   6.326   8.382
22873WAT      O68860   8.712   1.969   7.060
22873WAT     H168861   8.754   1.894   7.008
22873WAT     H268862   8.612   1.965   7.048
22874WAT      O68863   9.199   5.709   8.584
22874WAT     H168864   9.255   5.628   8.566
22874WAT     H268865   9.167   5.747   8.497
22875WAT      O68866   9.615   4.944   7.040
22875WAT     H168867   9.521   4.977   7.024
22875WAT     H268868   9.615   4.844   7.040
22876WAT      O68869   7.428   4.478   6.026
22876WAT     H168870   7.384   4.535   6.095
22876WAT     H268871   7.499   4.422   6.070
22877WAT      O68872   7.683   2.672   6.620
22877WAT     H168873   7.591   2.642   6.643
22877WAT     H268874   7.746   2.594   6.624
22878WAT      O68875   3.428   0.773   5.883
22878WAT     H168876   3.440   0.794   5.786
22878WAT     H268877   3.349   0.822   5.919
22879WAT      O68878   2.032   8.341   8.552
22879WAT     H168879   1.947   8.392   8.536
22879WAT     H268880   2.090   8.392   8.615
22880WAT      O68881   6.826   1.655   2.975
22880WAT     H168882   6.905   1.683   2.921
22880WAT     H268883   6.746   1.709   2.947
22881WAT      O68884   0.140   4.583   8.883
22881WAT     H168885   0.224   4.559   8.834
22881WAT     H268886   0.068   4.517   8.859
22882WAT      O68887   8.036   2.009   7.777
22882WAT     H168888   8.044   2.061   7.862
22882WAT     H268889   8.095   2.051   7.708
22883WAT      O68890   8.498   1.416   0.005
22883WAT     H168891   8.495   1.337   0.066
22883WAT     H268892   8.567   1.403  -0.065
22884WAT      O68893   2.360   1.269   5.219
22884WAT     H168894   2.333   1.298   5.127
22884WAT     H268895   2.365   1.349   5.279
22885WAT      O68896   6.061   4.279   5.685
22885WAT     H168897   5.981   4.276   5.626
22885WAT     H268898   6.143   4.294   5.630
22886WAT      O68899   0.512   7.287   3.249
22886WAT     H168900   0.452   7.347   3.302
22886WAT     H268901   0.537   7.207   3.304
22887WAT      O68902   1.505   9.299   9.522
22887WAT     H168903   1.434   9.238   9.485
22887WAT     H268904   1.536   9.263   9.610
22888WAT      O68905   4.679   1.856   5.189
22888WAT     H168906   4.734   1.870   5.107
22888WAT     H268907   4.686   1.761   5.219
22889WAT      O68908   5.668   1.332   5.394
22889WAT     H168909   5.766   1.325   5.373
22889WAT     H268910   5.638   1.250   5.442
22890WAT      O68911   0.285   1.178   4.056
22890WAT     H168912   0.348   1.192   4.132
22890WAT     H268913   0.260   1.081   4.050
22891WAT      O68914   9.101   7.464   3.964
22891WAT     H168915   9.099   7.372   4.004
22891WAT     H268916   9.035   7.468   3.889
22892WAT      O68917   5.680   8.877   6.385
22892WAT     H168918   5.769   8.834   6.366
22892WAT     H268919   5.694   8.966   6.426
22893WAT      O68920   6.288   4.518   4.263
22893WAT     H168921   6.267   4.615   4.247
22893WAT     H268922   6.269   4.466   4.180
22894WAT      O68923   9.816   1.633   9.366
22894WAT     H168924   9.831   1.731   9.351
22894WAT     H268925   9.756   1.597   9.295
22895WAT      O68926   0.022   6.534   2.577
22895WAT     H168927   0.074   6.590   2.512
22895WAT     H268928  -0.017   6.593   2.648
22896WAT      O68929   0.544   0.697   5.183
22896WAT     H168930   0.629   0.718   5.231
22896WAT     H268931   0.470   0.688   5.249
22897WAT      O68932   0.156   9.288   7.303
22897WAT     H168933   0.112   9.225   7.239
22897WAT     H268934   0.147   9.252   7.396
22898WAT      O68935   0.670   3.391   6.138
22898WAT     H168936   0.658   3.396   6.039
22898WAT     H268937   0.724   3.311   6.161
22899WAT      O68938   8.666   2.963   3.813
22899WAT     H168939   8.719   2.878   3.816
22899WAT     H268940   8.693   3.023   3.888
22900WAT      O68941   6.121   4.059   2.030
22900WAT     H168942   6.209   4.012   2.027
22900WAT     H268943   6.132   4.147   2.075
22901WAT      O68944   8.970   6.754   3.799
22901WAT     H168945   9.054   6.700   3.808
22901WAT     H268946   8.894   6.704   3.839
22902WAT      O68947   9.273   6.685   0.629
22902WAT     H168948   9.364   6.688   0.670
22902WAT     H268949   9.269   6.611   0.561
22903WAT      O68950   5.268   1.933   1.578
22903WAT     H168951   5.313   1.883   1.504
22903WAT     H268952   5.207   1.871   1.628
22904WAT      O68953   0.609   7.381   1.462
22904WAT     H168954   0.607   7.281   1.473
22904WAT     H268955   0.569   7.424   1.544
22905WAT      O68956   6.262   0.350   4.121
22905WAT     H168957   6.323   0.377   4.047
22905WAT     H268958   6.266   0.417   4.195
22906WAT      O68959   1.804   5.557   9.871
22906WAT     H168960   1.810   5.493   9.795
22906WAT     H268961   1.739   5.521   9.939
22907WAT      O68962   0.574   2.935   7.530
22907WAT     H168963   0.606   2.893   7.445
22907WAT     H268964   0.590   2.873   7.607
22908WAT      O68965   1.640   8.619   3.504
22908WAT     H168966   1.542   8.621   3.486
22908WAT     H268967   1.657   8.569   3.590
22909WAT      O68968   8.608   2.310   7.675
22909WAT     H168969   8.653   2.375   7.736
22909WAT     H268970   8.522   2.280   7.715
22910WAT      O68971   0.669   0.667   2.643
22910WAT     H168972   0.699   0.653   2.737
22910WAT     H268973   0.681   0.582   2.591
22911WAT      O68974   9.397   1.742   0.308
22911WAT     H168975   9.324   1.811   0.314
22911WAT     H268976   9.459   1.766   0.233
22912WAT      O68977   6.388   7.379   8.309
22912WAT     H168978   6.410   7.455   8.370
22912WAT     H268979   6.359   7.300   8.363
22913WAT      O68980   2.652   6.995   5.646
22913WAT     H168981   2.651   6.904   5.605
22913WAT     H268982   2.721   6.998   5.718
22914WAT      O68983   8.334   8.975   3.549
22914WAT     H168984   8.400   9.040   3.512
22914WAT     H268985   8.255   8.969   3.488
22915WAT      O68986   0.623   7.904   0.711
22915WAT     H168987   0.693   7.850   0.757
22915WAT     H268988   0.667   7.970   0.650
22916WAT      O68989   9.300   3.832   5.813
22916WAT     H168990   9.253   3.903   5.866
22916WAT     H268991   9.397   3.832   5.836
22917WAT      O68992   5.595   0.884   8.330
22917WAT     H168993   5.680   0.883   8.382
22917WAT     H268994   5.518   0.870   8.392
22918WAT      O68995   0.742   6.124   7.452
22918WAT     H168996   0.676   6.114   7.527
22918WAT     H268997   0.834   6.113   7.488
22919WAT      O68998   1.000   6.835   4.023
22919WAT     H168999   1.084   6.803   4.066
22919WAT     H269000   0.922   6.809   4.079
22920WAT      O69001   4.913   5.182   1.860
22920WAT     H169002   4.919   5.104   1.798
22920WAT     H269003   4.973   5.255   1.828
22921WAT      O69004   9.651   6.124   4.972
22921WAT     H169005   9.734   6.172   4.999
22921WAT     H269006   9.670   6.025   4.968
22922WAT      O69007   0.668   7.859   7.613
22922WAT     H169008   0.743   7.894   7.669
22922WAT     H269009   0.657   7.761   7.630
22923WAT      O69010   8.306   5.058   8.483
22923WAT     H169011   8.226   5.118   8.477
22923WAT     H269012   8.337   5.034   8.391
22924WAT      O69013   2.393   2.260   1.105
22924WAT     H169014   2.346   2.244   1.018
22924WAT     H269015   2.434   2.175   1.137
22925WAT      O69016   0.830   9.288   3.685
22925WAT     H169017   0.865   9.282   3.591
22925WAT     H269018   0.800   9.197   3.715
22926WAT      O69019   2.326   6.990   2.000
22926WAT     H169020   2.398   7.013   2.065
22926WAT     H269021   2.252   7.057   2.006
22927WAT      O69022   2.178   8.396   3.712
22927WAT     H169023   2.115   8.414   3.637
22927WAT     H269024   2.261   8.353   3.677
22928WAT      O69025   7.306   3.664   7.838
22928WAT     H169026   7.229   3.727   7.840
22928WAT     H269027   7.318   3.624   7.929
22929WAT      O69028   8.224   3.881   1.812
22929WAT     H169029   8.166   3.948   1.766
22929WAT     H269030   8.317   3.915   1.817
22930WAT      O69031   3.485   9.108   9.457
22930WAT     H169032   3.432   9.116   9.541
22930WAT     H269033   3.556   9.038   9.468
22931WAT      O69034   4.644   2.683   8.015
22931WAT     H169035   4.565   2.734   7.981
22931WAT     H269036   4.706   2.745   8.063
22932WAT      O69037   3.342   7.238   2.020
22932WAT     H169038   3.313   7.278   2.107
22932WAT     H269039   3.441   7.228   2.019
22933WAT      O69040   6.434   1.235   1.313
22933WAT     H169041   6.363   1.276   1.256
22933WAT     H269042   6.478   1.160   1.264
22934WAT      O69043   8.295   0.706   1.301
22934WAT     H169044   8.195   0.708   1.307
22934WAT     H269045   8.334   0.705   1.393
22935WAT      O69046   3.736   7.460   3.045
22935WAT     H169047   3.753   7.434   3.140
22935WAT     H269048   3.650   7.420   3.014
22936WAT      O69049   2.923   4.740   9.781
22936WAT     H169050   2.825   4.742   9.800
22936WAT     H269051   2.956   4.646   9.793
22937WAT      O69052   8.241   5.775   4.216
22937WAT     H169053   8.336   5.804   4.220
22937WAT     H269054   8.237   5.675   4.212
22938WAT      O69055   0.642   3.747   7.916
22938WAT     H169056   0.654   3.652   7.888
22938WAT     H269057   0.544   3.769   7.920
22939WAT      O69058   2.020   0.135   1.920
22939WAT     H169059   2.061   0.183   1.842
22939WAT     H269060   2.075   0.055   1.943
22940WAT      O69061   7.496   9.773   2.676
22940WAT     H169062   7.520   9.846   2.613
22940WAT     H269063   7.475   9.689   2.625
22941WAT      O69064   3.201   5.034   1.786
22941WAT     H169065   3.108   5.004   1.805
22941WAT     H269066   3.262   4.954   1.785
22942WAT      O69067   4.438   5.894   2.724
22942WAT     H169068   4.523   5.947   2.733
22942WAT     H269069   4.360   5.953   2.746
22943WAT      O69070   3.601   4.254   2.850
22943WAT     H169071   3.636   4.314   2.922
22943WAT     H269072   3.621   4.159   2.873
22944WAT      O69073   4.233   9.273   1.208
22944WAT     H169074   4.215   9.369   1.186
22944WAT     H269075   4.166   9.216   1.160
22945WAT      O69076   9.576   5.821   9.000
22945WAT     H169077   9.610   5.873   9.078
22945WAT     H269078   9.559   5.882   8.924
22946WAT      O69079   5.623   4.236   3.441
22946WAT     H169080   5.578   4.159   3.396
22946WAT     H269081   5.696   4.202   3.500
22947WAT      O69082   7.916   1.097   4.885
22947WAT     H169083   7.834   1.074   4.833
22947WAT     H269084   7.890   1.150   4.966
22948WAT      O69085   3.423   6.530   3.116
22948WAT     H169086   3.449   6.552   3.023
22948WAT     H269087   3.504   6.533   3.175
22949WAT      O69088   1.437   0.451   3.886
22949WAT     H169089   1.456   0.453   3.788
22949WAT     H269090   1.433   0.357   3.918
22950WAT      O69091   1.091   1.565   8.171
22950WAT     H169092   1.035   1.525   8.099
22950WAT     H269093   1.100   1.664   8.155
22951WAT      O69094   8.861   8.645   8.825
22951WAT     H169095   8.902   8.569   8.877
22951WAT     H269096   8.767   8.622   8.802
22952WAT      O69097   7.857   8.448   0.102
22952WAT     H169098   7.845   8.361   0.055
22952WAT     H269099   7.874   8.520   0.034
22953WAT      O69100   5.428   4.693   7.300
22953WAT     H169101   5.478   4.696   7.387
22953WAT     H269102   5.443   4.605   7.256
22954WAT      O69103   2.674   1.363   8.294
22954WAT     H169104   2.666   1.276   8.342
22954WAT     H269105   2.770   1.387   8.284
22955WAT      O69106   3.604   9.699   3.496
22955WAT     H169107   3.664   9.621   3.479
22955WAT     H269108   3.615   9.767   3.423
22956WAT      O69109   2.760   1.666   0.098
22956WAT     H169110   2.719   1.756   0.086
22956WAT     H269111   2.754   1.639   0.194
22957WAT      O69112   1.821   7.987   4.450
22957WAT     H169113   1.862   8.074   4.477
22957WAT     H269114   1.742   8.004   4.391
22958WAT      O69115   0.109   5.333   7.645
22958WAT     H169116   0.021   5.316   7.601
22958WAT     H269117   0.095   5.388   7.727
22959WAT      O69118   3.401   6.340   3.662
22959WAT     H169119   3.315   6.290   3.649
22959WAT     H269120   3.459   6.290   3.726
22960WAT      O69121   6.299   7.522   3.241
22960WAT     H169122   6.210   7.536   3.196
22960WAT     H269123   6.289   7.533   3.339
22961WAT      O69124   0.077   6.368   8.216
22961WAT     H169125   0.049   6.330   8.304
22961WAT     H269126   0.010   6.342   8.146
22962WAT      O69127   6.510   3.660   5.114
22962WAT     H169128   6.563   3.602   5.176
22962WAT     H269129   6.550   3.752   5.111
22963WAT      O69130   6.968   2.705   9.178
22963WAT     H169131   6.969   2.606   9.195
22963WAT     H269132   6.919   2.724   9.093
22964WAT      O69133   4.376   3.808   9.647
22964WAT     H169134   4.393   3.805   9.746
22964WAT     H269135   4.286   3.848   9.631
22965WAT      O69136   3.010   8.124   4.933
22965WAT     H169137   2.984   8.035   4.898
22965WAT     H269138   3.024   8.188   4.857
22966WAT      O69139   4.415   3.451   2.471
22966WAT     H169140   4.339   3.437   2.535
22966WAT     H269141   4.460   3.538   2.490
22967WAT      O69142   9.166   3.071   8.541
22967WAT     H169143   9.262   3.097   8.537
22967WAT     H269144   9.117   3.113   8.465
22968WAT      O69145   4.883   2.934   3.745
22968WAT     H169146   4.977   2.903   3.751
22968WAT     H269147   4.876   3.005   3.674
22969WAT      O69148   9.874   8.828   0.449
22969WAT     H169149   9.807   8.755   0.463
22969WAT     H269150   9.950   8.794   0.394
22970WAT      O69151   9.419   4.858   4.545
22970WAT     H169152   9.477   4.895   4.618
22970WAT     H269153   9.418   4.758   4.550
22971WAT      O69154   6.970   4.252   6.260
22971WAT     H169155   7.003   4.214   6.346
22971WAT     H269156   6.878   4.218   6.242
22972WAT      O69157   7.584   0.478   9.779
22972WAT     H169158   7.543   0.560   9.819
22972WAT     H269159   7.568   0.399   9.838
22973WAT      O69160   5.802   9.775   5.639
22973WAT     H169161   5.735   9.710   5.603
22973WAT     H269162   5.823   9.844   5.570
22974WAT      O69163   5.730   8.521   1.415
22974WAT     H169164   5.653   8.525   1.352
22974WAT     H269165   5.697   8.507   1.508
22975WAT      O69166   3.811   8.915   3.693
22975WAT     H169167   3.744   8.979   3.656
22975WAT     H269168   3.886   8.966   3.735
22976WAT      O69169   6.057   4.700   4.639
22976WAT     H169170   6.016   4.746   4.560
22976WAT     H269171   6.029   4.604   4.639
22977WAT      O69172   6.777   1.604   5.883
22977WAT     H169173   6.699   1.575   5.828
22977WAT     H269174   6.859   1.610   5.825
22978WAT      O69175   4.788   5.239   3.611
22978WAT     H169176   4.836   5.305   3.669
22978WAT     H269177   4.753   5.165   3.669
22979WAT      O69178   4.045   6.599   0.796
22979WAT     H169179   4.134   6.555   0.788
22979WAT     H269180   4.015   6.598   0.892
22980WAT      O69181   7.464   5.677   8.832
22980WAT     H169182   7.507   5.622   8.904
22980WAT     H269183   7.468   5.774   8.856
22981WAT      O69184   7.109   9.238   7.456
22981WAT     H169185   7.040   9.172   7.485
22981WAT     H269186   7.117   9.310   7.525
22982WAT      O69187   0.725   3.928   1.028
22982WAT     H169188   0.628   3.930   1.007
22982WAT     H269189   0.754   4.017   1.062
22983WAT      O69190   5.969   4.701   5.075
22983WAT     H169191   6.016   4.724   5.160
22983WAT     H269192   6.036   4.682   5.003
22984WAT      O69193   6.503   7.468   0.613
22984WAT     H169194   6.569   7.505   0.677
22984WAT     H269195   6.441   7.540   0.582
22985WAT      O69196   4.997   0.532   2.043
22985WAT     H169197   4.995   0.632   2.053
22985WAT     H269198   4.931   0.504   1.974
22986WAT      O69199   7.433   3.958   6.076
22986WAT     H169200   7.395   3.998   6.159
22986WAT     H269201   7.513   4.010   6.047
22987WAT      O69202   8.145   6.454   5.548
22987WAT     H169203   8.220   6.470   5.484
22987WAT     H269204   8.141   6.529   5.614
22988WAT      O69205   9.321   8.404   5.677
22988WAT     H169206   9.420   8.405   5.691
22988WAT     H269207   9.297   8.466   5.602
22989WAT      O69208   7.811   5.417   4.106
22989WAT     H169209   7.763   5.421   4.193
22989WAT     H269210   7.745   5.426   4.031
22990WAT      O69211   1.033   9.679   2.356
22990WAT     H169212   1.116   9.705   2.307
22990WAT     H269213   0.956   9.675   2.292
22991WAT      O69214   5.059   5.800   4.373
22991WAT     H169215   5.067   5.704   4.402
22991WAT     H269216   4.965   5.818   4.344
22992WAT      O69217   0.467   3.130   3.043
22992WAT     H169218   0.384   3.101   2.996
22992WAT     H269219   0.447   3.141   3.140
22993WAT      O69220   8.266   5.669   7.192
22993WAT     H169221   8.193   5.684   7.125
22993WAT     H269222   8.348   5.720   7.165
22994WAT      O69223   1.409   4.106   3.035
22994WAT     H169224   1.426   4.119   2.938
22994WAT     H269225   1.487   4.142   3.087
22995WAT      O69226   9.279   1.553   8.210
22995WAT     H169227   9.209   1.533   8.140
22995WAT     H269228   9.336   1.629   8.179
22996WAT      O69229   9.552   4.902   2.238
22996WAT     H169230   9.495   4.903   2.156
22996WAT     H269231   9.642   4.864   2.216
22997WAT      O69232   7.122   1.551   7.403
22997WAT     H169233   7.209   1.551   7.451
22997WAT     H269234   7.137   1.528   7.306
22998WAT      O69235   1.280   2.944   8.893
22998WAT     H169236   1.278   2.844   8.885
22998WAT     H269237   1.299   2.984   8.804
22999WAT      O69238   0.155   8.208   3.773
22999WAT     H169239   0.250   8.239   3.770
22999WAT     H269240   0.115   8.227   3.862
23000WAT      O69241   9.688   2.646   4.999
23000WAT     H169242   9.624   2.621   4.925
23000WAT     H269243   9.686   2.575   5.069
23001WAT      O69244   5.306   8.260   5.932
23001WAT     H169245   5.280   8.198   5.858
23001WAT     H269246   5.384   8.222   5.981
23002WAT      O69247   9.312   9.668   7.189
23002WAT     H169248   9.239   9.699   7.250
23002WAT     H269249   9.272   9.639   7.102
23003WAT      O69250   6.983   3.311   5.147
23003WAT     H169251   7.057   3.372   5.175
23003WAT     H269252   6.946   3.264   5.227
23004WAT      O69253   6.048   4.566   9.157
23004WAT     H169254   6.041   4.637   9.227
23004WAT     H269255   6.139   4.569   9.115
23005WAT      O69256   4.774   2.296   8.109
23005WAT     H169257   4.693   2.350   8.132
23005WAT     H269258   4.747   2.214   8.058
23006WAT      O69259   6.911   6.009   2.935
23006WAT     H169260   6.825   5.961   2.957
23006WAT     H269261   6.962   6.025   3.019
23007WAT      O69262   8.560   7.815   3.892
23007WAT     H169263   8.537   7.719   3.907
23007WAT     H269264   8.596   7.855   3.977
23008WAT      O69265   1.066   9.549   5.950
23008WAT     H169266   1.149   9.552   6.005
23008WAT     H269267   1.011   9.630   5.968
23009WAT      O69268   2.708   6.915   1.279
23009WAT     H169269   2.670   6.886   1.191
23009WAT     H269270   2.749   7.006   1.269
23010WAT      O69271   5.446   1.740   1.477
23010WAT     H169272   5.508   1.685   1.420
23010WAT     H269273   5.367   1.684   1.503
23011WAT      O69274   1.055   1.836   2.593
23011WAT     H169275   1.111   1.757   2.620
23011WAT     H269276   0.973   1.839   2.649
23012WAT      O69277   7.273   9.540   7.221
23012WAT     H169278   7.178   9.570   7.218
23012WAT     H269279   7.278   9.443   7.198
23013WAT      O69280   5.106   4.798   1.998
23013WAT     H169281   5.150   4.824   2.084
23013WAT     H269282   5.007   4.806   2.007
23014WAT      O69283   6.992   1.928   9.041
23014WAT     H169284   6.917   1.882   8.994
23014WAT     H269285   7.070   1.936   8.980
23015WAT      O69286   3.354   8.434   9.156
23015WAT     H169287   3.371   8.459   9.061
23015WAT     H269288   3.424   8.369   9.187
23016WAT      O69289   7.729   4.000   7.803
23016WAT     H169290   7.693   3.940   7.731
23016WAT     H269291   7.827   4.013   7.789
23017WAT      O69292   5.099   7.308   2.566
23017WAT     H169293   5.083   7.209   2.566
23017WAT     H269294   5.186   7.327   2.522
23018WAT      O69295   1.826   9.263   4.094
23018WAT     H169296   1.830   9.272   3.994
23018WAT     H269297   1.775   9.339   4.133
23019WAT      O69298   8.430   0.260   4.897
23019WAT     H169299   8.417   0.227   4.804
23019WAT     H269300   8.380   0.346   4.909
23020WAT      O69301   7.980   1.002   8.119
23020WAT     H169302   7.968   0.972   8.214
23020WAT     H269303   7.917   0.953   8.060
23021WAT      O69304   3.295   4.297   5.761
23021WAT     H169305   3.390   4.291   5.728
23021WAT     H269306   3.268   4.392   5.767
23022WAT      O69307   2.888   6.412   9.571
23022WAT     H169308   2.962   6.435   9.634
23022WAT     H269309   2.874   6.487   9.507
23023WAT      O69310   9.378   6.060   7.521
23023WAT     H169311   9.346   6.153   7.502
23023WAT     H269312   9.325   6.021   7.596
23024WAT      O69313   1.319   3.594   9.274
23024WAT     H169314   1.349   3.550   9.359
23024WAT     H269315   1.236   3.549   9.241
23025WAT      O69316   3.876   8.858   0.923
23025WAT     H169317   3.907   8.779   0.977
23025WAT     H269318   3.862   8.936   0.983
23026WAT      O69319   2.044   8.882   9.858
23026WAT     H169320   1.975   8.881   9.786
23026WAT     H269321   2.066   8.977   9.882
23027WAT      O69322   7.851   3.043   2.422
23027WAT     H169323   7.936   3.095   2.416
23027WAT     H269324   7.789   3.073   2.350
23028WAT      O69325   2.625   4.873   6.944
23028WAT     H169326   2.712   4.868   6.895
23028WAT     H269327   2.564   4.937   6.897
23029WAT      O69328   2.661   6.723   7.970
23029WAT     H169329   2.739   6.744   7.912
23029WAT     H269330   2.693   6.685   8.057
23030WAT      O69331   3.725   6.660   8.851
23030WAT     H169332   3.747   6.576   8.801
23030WAT     H269333   3.672   6.721   8.793
23031WAT      O69334   0.161   4.744   0.752
23031WAT     H169335   0.109   4.752   0.667
23031WAT     H269336   0.102   4.767   0.830
23032WAT      O69337   7.006   5.527   9.657
23032WAT     H169338   7.082   5.521   9.592
23032WAT     H269339   7.009   5.616   9.703
23033WAT      O69340   0.390   7.469   4.865
23033WAT     H169341   0.441   7.426   4.939
23033WAT     H269342   0.366   7.401   4.797
23034WAT      O69343   3.582   1.005   8.072
23034WAT     H169344   3.509   1.008   8.003
23034WAT     H269345   3.670   1.020   8.028
23035WAT      O69346   0.025   3.585   0.988
23035WAT     H169347  -0.012   3.492   0.984
23035WAT     H269348  -0.051   3.651   0.987
23036WAT      O69349   6.744   0.451   4.758
23036WAT     H169350   6.652   0.476   4.787
23036WAT     H269351   6.763   0.492   4.669
23037WAT      O69352   2.939   2.335   5.218
23037WAT     H169353   2.881   2.295   5.289
23037WAT     H269354   3.025   2.364   5.259
23038WAT      O69355   4.241   8.867   6.879
23038WAT     H169356   4.189   8.900   6.800
23038WAT     H269357   4.324   8.922   6.890
23039WAT      O69358   5.133   4.762   1.397
23039WAT     H169359   5.176   4.690   1.343
23039WAT     H269360   5.139   4.849   1.347
23040WAT      O69361   4.874   2.220   6.022
23040WAT     H169362   4.859   2.318   6.008
23040WAT     H269363   4.971   2.200   6.011
23041WAT      O69364   6.530   3.964   8.001
23041WAT     H169365   6.475   3.973   7.918
23041WAT     H269366   6.625   3.989   7.982
23042WAT      O69367   5.454   5.266   6.487
23042WAT     H169368   5.524   5.211   6.533
23042WAT     H269369   5.394   5.307   6.555
23043WAT      O69370   6.527   5.578   2.767
23043WAT     H169371   6.579   5.532   2.839
23043WAT     H269372   6.555   5.541   2.678
23044WAT      O69373   4.853   0.793   5.490
23044WAT     H169374   4.899   0.768   5.405
23044WAT     H269375   4.857   0.892   5.502
23045WAT      O69376   0.249   6.904   4.124
23045WAT     H169377   0.235   6.825   4.065
23045WAT     H269378   0.227   6.987   4.073
23046WAT      O69379   2.686   9.770   5.822
23046WAT     H169380   2.659   9.676   5.801
23046WAT     H269381   2.625   9.833   5.773
23047WAT      O69382   8.311   2.632   7.297
23047WAT     H169383   8.318   2.532   7.288
23047WAT     H269384   8.222   2.662   7.264
23048WAT      O69385   7.078   2.731   0.211
23048WAT     H169386   7.178   2.728   0.213
23048WAT     H269387   7.046   2.815   0.253
23049WAT      O69388   8.681   0.884   7.249
23049WAT     H169389   8.656   0.817   7.179
23049WAT     H269390   8.780   0.886   7.260
23050WAT      O69391   0.096   6.665   5.017
23050WAT     H169392   0.029   6.732   5.048
23050WAT     H269393   0.066   6.625   4.930
23051WAT      O69394   2.770   5.448   1.256
23051WAT     H169395   2.851   5.391   1.268
23051WAT     H269396   2.726   5.463   1.345
23052WAT      O69397   6.329   2.059   9.773
23052WAT     H169398   6.426   2.070   9.793
23052WAT     H269399   6.294   1.977   9.818
23053WAT      O69400   9.864   9.430   2.459
23053WAT     H169401   9.806   9.350   2.476
23053WAT     H269402   9.829   9.481   2.381
23054WAT      O69403   3.673   9.361   0.783
23054WAT     H169404   3.669   9.281   0.842
23054WAT     H269405   3.660   9.444   0.838
23055WAT      O69406   0.694   9.202   8.776
23055WAT     H169407   0.613   9.163   8.821
23055WAT     H269408   0.676   9.208   8.677
23056WAT      O69409   3.985   0.968   8.654
23056WAT     H169410   4.013   1.038   8.589
23056WAT     H269411   4.016   0.878   8.623
23057WAT      O69412   9.687   3.724   5.360
23057WAT     H169413   9.660   3.653   5.296
23057WAT     H269414   9.711   3.683   5.448
23058WAT      O69415   2.745   5.098   2.369
23058WAT     H169416   2.808   5.024   2.390
23058WAT     H269417   2.655   5.078   2.410
23059WAT      O69418   3.576   3.822   1.547
23059WAT     H169419   3.504   3.756   1.569
23059WAT     H269420   3.659   3.773   1.521
23060WAT      O69421   0.069   1.240   3.662
23060WAT     H169422   0.145   1.261   3.600
23060WAT     H269423   0.085   1.150   3.703
23061WAT      O69424   0.219   7.603   1.228
23061WAT     H169425   0.134   7.655   1.238
23061WAT     H269426   0.277   7.617   1.308
23062WAT      O69427   2.563   5.144   8.467
23062WAT     H169428   2.548   5.236   8.504
23062WAT     H269429   2.481   5.113   8.418
23063WAT      O69430   3.757   4.927   1.896
23063WAT     H169431   3.711   5.014   1.877
23063WAT     H269432   3.737   4.863   1.822
23064WAT      O69433   8.131   7.396   3.045
23064WAT     H169434   8.065   7.402   3.119
23064WAT     H269435   8.212   7.346   3.076
23065WAT      O69436   5.754   2.374   0.669
23065WAT     H169437   5.815   2.312   0.621
23065WAT     H269438   5.675   2.395   0.611
23066WAT      O69439   9.515   5.452   4.429
23066WAT     H169440   9.446   5.389   4.394
23066WAT     H269441   9.597   5.401   4.455
23067WAT      O69442   3.370   7.534   9.192
23067WAT     H169443   3.413   7.594   9.259
23067WAT     H269444   3.372   7.577   9.102
23068WAT      O69445   6.723   0.359   7.659
23068WAT     H169446   6.808   0.347   7.711
23068WAT     H269447   6.645   0.331   7.714
23069WAT      O69448   0.425   7.368   8.663
23069WAT     H169449   0.489   7.308   8.711
23069WAT     H269450   0.472   7.414   8.588
23070WAT      O69451   5.511   1.812   9.374
23070WAT     H169452   5.465   1.776   9.294
23070WAT     H269453   5.464   1.781   9.457
23071WAT      O69454   2.539   9.241   9.117
23071WAT     H169455   2.638   9.229   9.129
23071WAT     H269456   2.510   9.198   9.032
23072WAT      O69457   1.804   4.126   5.081
23072WAT     H169458   1.720   4.136   5.027
23072WAT     H269459   1.829   4.214   5.120
23073WAT      O69460   6.760   0.377   6.685
23073WAT     H169461   6.737   0.410   6.776
23073WAT     H269462   6.860   0.376   6.674
23074WAT      O69463   8.106   2.464   1.346
23074WAT     H169464   8.070   2.471   1.439
23074WAT     H269465   8.176   2.534   1.332
23075WAT      O69466   8.095   3.308   2.000
23075WAT     H169467   8.044   3.344   2.078
23075WAT     H269468   8.189   3.343   2.001
23076WAT      O69469   9.378   0.800   5.505
23076WAT     H169470   9.303   0.734   5.503
23076WAT     H269471   9.456   0.764   5.455
23077WAT      O69472   1.773   5.284   6.351
23077WAT     H169473   1.865   5.320   6.363
23077WAT     H269474   1.706   5.356   6.368
23078WAT      O69475   0.956   7.529   1.630
23078WAT     H169476   0.922   7.479   1.710
23078WAT     H269477   0.923   7.485   1.546
23079WAT      O69478   4.726   2.257   8.915
23079WAT     H169479   4.663   2.180   8.908
23079WAT     H269480   4.679   2.341   8.888
23080WAT      O69481   7.116   0.594   2.988
23080WAT     H169482   7.060   0.540   3.052
23080WAT     H269483   7.086   0.689   2.990
23081WAT      O69484   9.259   2.342   3.956
23081WAT     H169485   9.211   2.254   3.950
23081WAT     H269486   9.194   2.414   3.976
23082WAT      O69487   2.709   5.302   3.191
23082WAT     H169488   2.616   5.295   3.226
23082WAT     H269489   2.751   5.212   3.191
23083WAT      O69490   3.325   5.157   6.301
23083WAT     H169491   3.369   5.142   6.390
23083WAT     H269492   3.325   5.071   6.250
23084WAT      O69493   9.218   6.775   3.485
23084WAT     H169494   9.232   6.680   3.512
23084WAT     H269495   9.124   6.802   3.505
23085WAT      O69496   7.561   9.481   3.068
23085WAT     H169497   7.577   9.425   2.987
23085WAT     H269498   7.489   9.547   3.050
23086WAT      O69499   2.755   2.830   6.843
23086WAT     H169500   2.854   2.843   6.842
23086WAT     H269501   2.715   2.888   6.914
23087WAT      O69502   3.800   0.856   1.963
23087WAT     H169503   3.849   0.885   2.045
23087WAT     H269504   3.831   0.765   1.935
23088WAT      O69505   6.303   3.177   9.657
23088WAT     H169506   6.345   3.086   9.654
23088WAT     H269507   6.207   3.169   9.630
23089WAT      O69508   6.903   9.066   7.509
23089WAT     H169509   6.852   9.029   7.587
23089WAT     H269510   6.868   9.026   7.424
23090WAT      O69511   7.306   0.206   2.333
23090WAT     H169512   7.339   0.127   2.281
23090WAT     H269513   7.337   0.198   2.427
23091WAT      O69514   6.595   6.728   7.710
23091WAT     H169515   6.563   6.707   7.802
23091WAT     H269516   6.628   6.644   7.666
23092WAT      O69517   4.831   3.110   1.919
23092WAT     H169518   4.888   3.166   1.979
23092WAT     H269519   4.747   3.159   1.897
23093WAT      O69520   7.764   3.130   6.793
23093WAT     H169521   7.738   3.169   6.881
23093WAT     H269522   7.703   3.053   6.771
23094WAT      O69523   3.250   0.431   5.709
23094WAT     H169524   3.175   0.365   5.713
23094WAT     H269525   3.244   0.484   5.624
23095WAT      O69526   3.905   7.907   4.392
23095WAT     H169527   3.972   7.879   4.461
23095WAT     H269528   3.897   8.007   4.391
23096WAT      O69529   2.242   1.770   2.756
23096WAT     H169530   2.163   1.831   2.763
23096WAT     H269531   2.218   1.680   2.791
23097WAT      O69532   3.592   6.258   8.153
23097WAT     H169533   3.579   6.175   8.206
23097WAT     H269534   3.544   6.249   8.065
23098WAT      O69535   3.743   8.553   1.334
23098WAT     H169536   3.689   8.529   1.414
23098WAT     H269537   3.688   8.612   1.274
23099WAT      O69538   7.612   3.335   4.580
23099WAT     H169539   7.563   3.382   4.654
23099WAT     H269540   7.682   3.275   4.619
23100WAT      O69541   5.161   6.981   1.823
23100WAT     H169542   5.205   6.902   1.780
23100WAT     H269543   5.151   6.965   1.921
23101WAT      O69544   2.305   0.233   1.495
23101WAT     H169545   2.404   0.227   1.511
23101WAT     H269546   2.275   0.152   1.444
23102WAT      O69547   7.880   8.950   6.409
23102WAT     H169548   7.959   8.918   6.462
23102WAT     H269549   7.803   8.888   6.425
23103WAT      O69550   5.111   3.629   6.115
23103WAT     H169551   5.018   3.644   6.081
23103WAT     H269552   5.177   3.668   6.050
23104WAT      O69553   8.776   5.563   4.373
23104WAT     H169554   8.728   5.645   4.405
23104WAT     H269555   8.771   5.492   4.443
23105WAT      O69556   2.471   1.259   1.822
23105WAT     H169557   2.448   1.165   1.848
23105WAT     H269558   2.553   1.259   1.766
23106WAT      O69559   0.032   7.552   9.181
23106WAT     H169560  -0.063   7.560   9.208
23106WAT     H269561   0.091   7.589   9.254
23107WAT      O69562   4.917   6.993   5.860
23107WAT     H169563   4.827   6.965   5.826
23107WAT     H269564   4.970   7.031   5.785
23108WAT      O69565   5.557   3.132   2.380
23108WAT     H169566   5.623   3.168   2.314
23108WAT     H269567   5.603   3.113   2.467
23109WAT      O69568   9.831   2.330   4.009
23109WAT     H169569   9.793   2.383   3.933
23109WAT     H269570   9.782   2.244   4.018
23110WAT      O69571   2.704   2.453   3.761
23110WAT     H169572   2.652   2.398   3.826
23110WAT     H269573   2.791   2.480   3.803
23111WAT      O69574   3.853   6.838   5.674
23111WAT     H169575   3.754   6.839   5.667
23111WAT     H269576   3.879   6.816   5.768
23112WAT      O69577   8.800   9.110   5.752
23112WAT     H169578   8.881   9.065   5.791
23112WAT     H269579   8.796   9.093   5.654
23113WAT      O69580   9.738   6.800   9.088
23113WAT     H169581   9.727   6.700   9.093
23113WAT     H269582   9.672   6.843   9.150
23114WAT      O69583   2.429   6.984   3.189
23114WAT     H169584   2.406   7.076   3.158
23114WAT     H269585   2.421   6.979   3.288
23115WAT      O69586   3.022   1.071   6.838
23115WAT     H169587   3.006   1.005   6.912
23115WAT     H269588   3.051   1.021   6.756
23116WAT      O69589   9.398   6.238   1.880
23116WAT     H169590   9.464   6.310   1.860
23116WAT     H269591   9.348   6.262   1.964
23117WAT      O69592   6.824   9.620   3.471
23117WAT     H169593   6.786   9.647   3.383
23117WAT     H269594   6.880   9.694   3.508
23118WAT      O69595   2.030   1.554   3.988
23118WAT     H169596   2.025   1.605   4.074
23118WAT     H269597   1.996   1.611   3.914
23119WAT      O69598   2.165   8.260   8.314
23119WAT     H169599   2.179   8.349   8.271
23119WAT     H269600   2.120   8.272   8.403
23120WAT      O69601   5.152   8.099   1.411
23120WAT     H169602   5.197   8.168   1.467
23120WAT     H269603   5.055   8.096   1.432
23121WAT      O69604   5.810   0.881   8.489
23121WAT     H169605   5.909   0.881   8.504
23121WAT     H269606   5.763   0.910   8.573
23122WAT      O69607   7.965   9.452   7.420
23122WAT     H169608   7.962   9.548   7.448
23122WAT     H269609   7.988   9.395   7.498
23123WAT      O69610   0.283   0.309   6.596
23123WAT     H169611   0.284   0.333   6.499
23123WAT     H269612   0.348   0.366   6.646
23124WAT      O69613   8.660   5.647   5.230
23124WAT     H169614   8.748   5.632   5.185
23124WAT     H269615   8.676   5.673   5.325
23125WAT      O69616   4.968   7.574   1.765
23125WAT     H169617   4.890   7.536   1.715
23125WAT     H269618   5.048   7.579   1.705
23126WAT      O69619   1.675   0.562   2.471
23126WAT     H169620   1.623   0.551   2.386
23126WAT     H269621   1.758   0.506   2.466
23127WAT      O69622   1.968   8.485   3.527
23127WAT     H169623   2.032   8.554   3.492
23127WAT     H269624   1.907   8.455   3.454
23128WAT      O69625   7.326   0.238   4.265
23128WAT     H169626   7.250   0.263   4.326
23128WAT     H269627   7.291   0.222   4.173
23129WAT      O69628   7.614   9.000   6.038
23129WAT     H169629   7.669   9.029   6.116
23129WAT     H269630   7.659   8.924   5.992
23130WAT      O69631   8.170   7.906   2.784
23130WAT     H169632   8.133   7.911   2.692
23130WAT     H269633   8.237   7.979   2.797
23131WAT      O69634   3.960   3.147   2.097
23131WAT     H169635   4.019   3.219   2.061
23131WAT     H269636   3.868   3.158   2.059
23132WAT      O69637   8.084   7.530   6.895
23132WAT     H169638   8.175   7.493   6.879
23132WAT     H269639   8.065   7.532   6.993
23133WAT      O69640   0.697   9.468   3.961
23133WAT     H169641   0.654   9.429   3.880
23133WAT     H269642   0.677   9.566   3.965
23134WAT      O69643   9.861   7.685   8.572
23134WAT     H169644   9.959   7.665   8.577
23134WAT     H269645   9.815   7.644   8.651
23135WAT      O69646   3.716   5.147   1.471
23135WAT     H169647   3.756   5.058   1.496
23135WAT     H269648   3.771   5.189   1.399
23136WAT      O69649   2.530   1.065   5.311
23136WAT     H169650   2.485   1.022   5.389
23136WAT     H269651   2.469   1.135   5.273
23137WAT      O69652   5.571   9.808   1.279
23137WAT     H169653   5.632   9.883   1.255
23137WAT     H269654   5.538   9.764   1.196
23138WAT      O69655   2.830   0.040   7.726
23138WAT     H169656   2.827  -0.042   7.669
23138WAT     H269657   2.737   0.073   7.742
23139WAT      O69658   1.940   8.498   1.961
23139WAT     H169659   1.946   8.519   1.864
23139WAT     H269660   1.918   8.581   2.012
23140WAT      O69661   5.649   9.625   7.398
23140WAT     H169662   5.709   9.628   7.318
23140WAT     H269663   5.612   9.533   7.408
23141WAT      O69664   1.043   2.265   2.754
23141WAT     H169665   0.988   2.227   2.829
23141WAT     H269666   1.045   2.199   2.679
23142WAT      O69667   0.468   4.755   1.430
23142WAT     H169668   0.498   4.717   1.517
23142WAT     H269669   0.385   4.809   1.445
23143WAT      O69670   3.185   3.751   4.446
23143WAT     H169671   3.103   3.806   4.433
23143WAT     H269672   3.220   3.764   4.538
23144WAT      O69673   7.618   8.257   1.232
23144WAT     H169674   7.677   8.294   1.304
23144WAT     H269675   7.667   8.257   1.145
23145WAT      O69676   5.187   7.080   9.523
23145WAT     H169677   5.169   7.023   9.442
23145WAT     H269678   5.269   7.048   9.569
23146WAT      O69679   4.412   2.423   0.746
23146WAT     H169680   4.359   2.381   0.820
23146WAT     H269681   4.350   2.449   0.672
23147WAT      O69682   0.265   2.376   1.641
23147WAT     H169683   0.320   2.428   1.707
23147WAT     H269684   0.285   2.278   1.650
23148WAT      O69685   1.902   5.556   7.425
23148WAT     H169686   1.908   5.487   7.497
23148WAT     H269687   1.809   5.560   7.391
23149WAT      O69688   4.336   4.756   1.741
23149WAT     H169689   4.262   4.689   1.734
23149WAT     H269690   4.313   4.822   1.812
23150WAT      O69691   2.888   9.820   9.352
23150WAT     H169692   2.869   9.726   9.382
23150WAT     H269693   2.976   9.849   9.389
23151WAT      O69694   0.107   8.394   0.102
23151WAT     H169695   0.010   8.398   0.126
23151WAT     H269696   0.138   8.485   0.073
23152WAT      O69697   5.660   0.376   2.113
23152WAT     H169698   5.651   0.357   2.016
23152WAT     H269699   5.614   0.462   2.135
23153WAT      O69700   8.733   6.608   3.826
23153WAT     H169701   8.702   6.550   3.902
23153WAT     H269702   8.737   6.554   3.743
23154WAT      O69703   2.703   7.984   5.281
23154WAT     H169704   2.722   7.889   5.258
23154WAT     H269705   2.753   8.045   5.219
23155WAT      O69706   8.178   0.782   2.846
23155WAT     H169707   8.273   0.808   2.863
23155WAT     H269708   8.175   0.688   2.812
23156WAT      O69709   8.477   6.520   4.409
23156WAT     H169710   8.536   6.472   4.344
23156WAT     H269711   8.399   6.560   4.360
23157WAT      O69712   3.121   9.446   5.718
23157WAT     H169713   3.075   9.531   5.747
23157WAT     H269714   3.190   9.468   5.649
23158WAT      O69715   4.686   4.096   6.267
23158WAT     H169716   4.692   4.151   6.350
23158WAT     H269717   4.749   4.132   6.198
23159WAT      O69718   7.127   6.691   8.326
23159WAT     H169719   7.120   6.701   8.425
23159WAT     H269720   7.168   6.602   8.304
23160WAT      O69721   8.563   9.617   9.312
23160WAT     H169722   8.608   9.547   9.367
23160WAT     H269723   8.605   9.706   9.331
23161WAT      O69724   4.957   5.404   6.034
23161WAT     H169725   4.917   5.463   5.964
23161WAT     H269726   5.056   5.417   6.035
23162WAT      O69727   6.207   8.813   6.889
23162WAT     H169728   6.162   8.858   6.811
23162WAT     H269729   6.283   8.758   6.856
23163WAT      O69730   8.689   9.123   9.022
23163WAT     H169731   8.726   9.059   8.955
23163WAT     H269732   8.621   9.076   9.079
23164WAT      O69733   8.842   0.785   4.960
23164WAT     H169734   8.789   0.701   4.968
23164WAT     H269735   8.934   0.764   4.926
23165WAT      O69736   8.389   8.754   7.714
23165WAT     H169737   8.338   8.782   7.633
23165WAT     H269738   8.483   8.729   7.688
23166WAT      O69739   3.467   3.789   9.743
23166WAT     H169740   3.550   3.739   9.717
23166WAT     H269741   3.411   3.806   9.663
23167WAT      O69742   7.491   4.674   0.011
23167WAT     H169743   7.405   4.632  -0.017
23167WAT     H269744   7.474   4.739   0.086
23168WAT      O69745   5.586   3.623   1.640
23168WAT     H169746   5.592   3.722   1.653
23168WAT     H269747   5.524   3.584   1.708
23169WAT      O69748   8.703   0.960   8.977
23169WAT     H169749   8.611   0.929   8.999
23169WAT     H269750   8.707   0.989   8.881
23170WAT      O69751   8.567   1.908   3.858
23170WAT     H169752   8.647   1.923   3.916
23170WAT     H269753   8.501   1.982   3.872
23171WAT      O69754   5.036   3.138   6.161
23171WAT     H169755   5.045   3.086   6.076
23171WAT     H269756   5.017   3.075   6.236
23172WAT      O69757   6.346   1.040   2.260
23172WAT     H169758   6.442   1.052   2.235
23172WAT     H269759   6.304   0.972   2.200
23173WAT      O69760   5.816   9.729   0.709
23173WAT     H169761   5.781   9.761   0.621
23173WAT     H269762   5.758   9.764   0.783
23174WAT      O69763   7.255   1.286   5.457
23174WAT     H169764   7.201   1.330   5.529
23174WAT     H269765   7.352   1.292   5.480
23175WAT      O69766   6.367   4.703   7.641
23175WAT     H169767   6.383   4.746   7.552
23175WAT     H269768   6.282   4.650   7.637
23176WAT      O69769   5.084   6.421   3.715
23176WAT     H169770   5.095   6.517   3.741
23176WAT     H269771   5.056   6.415   3.619
23177WAT      O69772   3.461   0.800   4.286
23177WAT     H169773   3.520   0.830   4.360
23177WAT     H269774   3.418   0.713   4.310
23178WAT      O69775   4.104   1.932   8.889
23178WAT     H169776   4.099   1.882   8.803
23178WAT     H269777   4.191   1.981   8.894
23179WAT      O69778   5.885   6.035   4.798
23179WAT     H169779   5.964   6.051   4.738
23179WAT     H269780   5.910   5.971   4.870
23180WAT      O69781   8.673   5.043   8.852
23180WAT     H169782   8.608   5.079   8.785
23180WAT     H269783   8.682   4.944   8.840
23181WAT      O69784   0.565   7.626   4.739
23181WAT     H169785   0.622   7.572   4.677
23181WAT     H269786   0.497   7.566   4.783
23182WAT      O69787   6.126   1.997   8.518
23182WAT     H169788   6.047   1.937   8.505
23182WAT     H269789   6.207   1.954   8.478
23183WAT      O69790   1.075   5.895   1.413
23183WAT     H169791   1.169   5.860   1.413
23183WAT     H269792   1.035   5.884   1.504
23184WAT      O69793   1.277   1.238   2.553
23184WAT     H169794   1.247   1.190   2.635
23184WAT     H269795   1.210   1.307   2.527
23185WAT      O69796   2.293   5.629   1.297
23185WAT     H169797   2.321   5.534   1.282
23185WAT     H269798   2.276   5.644   1.394
23186WAT      O69799   5.507   3.059   5.958
23186WAT     H169800   5.541   3.115   6.034
23186WAT     H269801   5.412   3.034   5.975
23187WAT      O69802   3.464   9.725   1.281
23187WAT     H169803   3.563   9.732   1.266
23187WAT     H269804   3.446   9.704   1.377
23188WAT      O69805   6.690   7.799   5.585
23188WAT     H169806   6.760   7.742   5.626
23188WAT     H269807   6.675   7.772   5.490
23189WAT      O69808   9.411   9.837   9.376
23189WAT     H169809   9.393   9.877   9.466
23189WAT     H269810   9.345   9.872   9.310
23190WAT      O69811   3.410   9.672   1.549
23190WAT     H169812   3.406   9.761   1.594
23190WAT     H269813   3.320   9.627   1.555
23191WAT      O69814   4.236   3.040   4.926
23191WAT     H169815   4.151   2.991   4.906
23191WAT     H269816   4.215   3.132   4.959
23192WAT      O69817   7.504   1.168   3.840
23192WAT     H169818   7.509   1.196   3.936
23192WAT     H269819   7.590   1.189   3.794
23193WAT      O69820   2.511   2.642   3.734
23193WAT     H169821   2.590   2.582   3.727
23193WAT     H269822   2.429   2.592   3.705
23194WAT      O69823   2.631   5.987   2.339
23194WAT     H169824   2.554   6.033   2.382
23194WAT     H269825   2.630   6.005   2.241
23195WAT      O69826   4.149   4.344   0.591
23195WAT     H169827   4.209   4.423   0.578
23195WAT     H269828   4.131   4.301   0.503
23196WAT      O69829   2.157   5.478   1.064
23196WAT     H169830   2.081   5.418   1.088
23196WAT     H269831   2.159   5.492   0.965
23197WAT      O69832   3.121   0.829   6.722
23197WAT     H169833   3.094   0.891   6.648
23197WAT     H269834   3.220   0.816   6.719
23198WAT      O69835   3.483   5.829   9.070
23198WAT     H169836   3.389   5.831   9.036
23198WAT     H269837   3.543   5.875   9.005
23199WAT      O69838   6.938   9.265   6.600
23199WAT     H169839   6.957   9.299   6.692
23199WAT     H269840   6.856   9.309   6.564
23200WAT      O69841   2.029   3.507   9.768
23200WAT     H169842   1.942   3.510   9.818
23200WAT     H269843   2.039   3.590   9.714
23201WAT      O69844   5.211   5.991   0.243
23201WAT     H169845   5.202   5.965   0.339
23201WAT     H269846   5.307   6.007   0.221
23202WAT      O69847   5.609   1.250   8.657
23202WAT     H169848   5.692   1.302   8.639
23202WAT     H269849   5.559   1.236   8.572
23203WAT      O69850   8.771   2.669   7.554
23203WAT     H169851   8.688   2.616   7.538
23203WAT     H269852   8.848   2.607   7.568
23204WAT      O69853   6.942   6.364   2.590
23204WAT     H169854   6.993   6.324   2.514
23204WAT     H269855   6.963   6.315   2.674
23205WAT      O69856   1.784   8.465   8.057
23205WAT     H169857   1.824   8.556   8.054
23205WAT     H269858   1.702   8.467   8.116
23206WAT      O69859   9.707   6.745   5.036
23206WAT     H169860   9.683   6.692   4.955
23206WAT     H269861   9.718   6.841   5.011
23207WAT      O69862   4.129   1.707   9.043
23207WAT     H169863   4.180   1.694   9.128
23207WAT     H269864   4.158   1.791   8.998
23208WAT      O69865   7.773   6.380   5.058
23208WAT     H169866   7.772   6.334   5.147
23208WAT     H269867   7.733   6.471   5.068
23209WAT      O69868   5.530   8.638   8.578
23209WAT     H169869   5.628   8.625   8.562
23209WAT     H269870   5.499   8.720   8.530
23210WAT      O69871   1.744   7.937   7.051
23210WAT     H169872   1.829   7.974   7.088
23210WAT     H269873   1.667   7.980   7.098
23211WAT      O69874   7.349   5.259   9.586
23211WAT     H169875   7.445   5.281   9.603
23211WAT     H269876   7.301   5.341   9.555
23212WAT      O69877   9.725   2.083   9.522
23212WAT     H169878   9.715   2.127   9.433
23212WAT     H269879   9.813   2.109   9.562
23213WAT      O69880   1.924   2.880   4.828
23213WAT     H169881   1.905   2.901   4.924
23213WAT     H269882   1.842   2.895   4.773
23214WAT      O69883   1.073   9.447   9.268
23214WAT     H169884   0.976   9.471   9.263
23214WAT     H269885   1.114   9.491   9.347
23215WAT      O69886   4.820   1.258   4.916
23215WAT     H169887   4.880   1.260   4.836
23215WAT     H269888   4.752   1.331   4.909
23216WAT      O69889   0.984   2.972   2.171
23216WAT     H169890   0.954   2.885   2.209
23216WAT     H269891   0.953   2.980   2.077
23217WAT      O69892   5.324   9.730   1.351
23217WAT     H169893   5.410   9.782   1.359
23217WAT     H269894   5.332   9.644   1.402
23218WAT      O69895   4.303   2.144   2.072
23218WAT     H169896   4.387   2.092   2.091
23218WAT     H269897   4.224   2.084   2.083
23219WAT      O69898   8.093   0.991   6.863
23219WAT     H169899   8.085   0.938   6.778
23219WAT     H269900   8.044   0.944   6.936
23220WAT      O69901   1.028   0.151   3.863
23220WAT     H169902   1.121   0.171   3.895
23220WAT     H269903   1.010   0.053   3.873
23221WAT      O69904   8.708   0.488   9.552
23221WAT     H169905   8.721   0.534   9.464
23221WAT     H269906   8.612   0.495   9.579
23222WAT      O69907   8.600   1.446   8.182
23222WAT     H169908   8.512   1.467   8.225
23222WAT     H269909   8.600   1.477   8.087
23223WAT      O69910   2.010   3.504   6.025
23223WAT     H169911   1.919   3.470   6.048
23223WAT     H269912   2.078   3.434   6.043
23224WAT      O69913   7.041   7.002   4.945
23224WAT     H169914   6.966   6.986   4.880
23224WAT     H269915   7.031   7.093   4.985
23225WAT      O69916   5.669   1.553   3.058
23225WAT     H169917   5.685   1.565   3.156
23225WAT     H269918   5.641   1.459   3.039
23226WAT      O69919   1.273   4.253   3.990
23226WAT     H169920   1.362   4.220   4.020
23226WAT     H269921   1.272   4.263   3.891
23227WAT      O69922   9.778   4.764   4.240
23227WAT     H169923   9.683   4.748   4.215
23227WAT     H269924   9.795   4.730   4.332
23228WAT      O69925   5.685   8.347   1.052
23228WAT     H169926   5.666   8.288   0.974
23228WAT     H269927   5.721   8.292   1.127
23229WAT      O69928   0.162   6.088   4.059
23229WAT     H169929   0.196   6.163   4.115
23229WAT     H269930   0.062   6.082   4.067
23230WAT      O69931   1.962   0.193   6.159
23230WAT     H169932   2.053   0.158   6.182
23230WAT     H269933   1.898   0.117   6.152
23231WAT      O69934   5.193   4.514   9.793
23231WAT     H169935   5.130   4.545   9.865
23231WAT     H269936   5.278   4.481   9.835
23232WAT      O69937   4.797   3.528   1.306
23232WAT     H169938   4.892   3.500   1.319
23232WAT     H269939   4.782   3.617   1.348
23233WAT      O69940   8.769   0.491   3.460
23233WAT     H169941   8.693   0.547   3.493
23233WAT     H269942   8.737   0.397   3.445
23234WAT      O69943   7.296   6.476   4.839
23234WAT     H169944   7.327   6.568   4.814
23234WAT     H269945   7.222   6.483   4.907
23235WAT      O69946   2.554   9.284   0.333
23235WAT     H169947   2.633   9.322   0.286
23235WAT     H269948   2.559   9.184   0.333
23236WAT      O69949   5.892   8.031   7.820
23236WAT     H169950   5.933   8.079   7.897
23236WAT     H269951   5.799   8.065   7.805
23237WAT      O69952   2.185   2.091   1.886
23237WAT     H169953   2.163   2.119   1.980
23237WAT     H269954   2.265   2.031   1.888
23238WAT      O69955   2.258   9.613   4.609
23238WAT     H169956   2.175   9.561   4.633
23238WAT     H269957   2.304   9.642   4.692
23239WAT      O69958   5.208   1.296   1.535
23239WAT     H169959   5.113   1.266   1.524
23239WAT     H269960   5.250   1.248   1.612
23240WAT      O69961   9.526   1.515   5.160
23240WAT     H169962   9.543   1.417   5.171
23240WAT     H269963   9.512   1.557   5.251
23241WAT      O69964   8.350   1.800   3.337
23241WAT     H169965   8.283   1.856   3.287
23241WAT     H269966   8.437   1.849   3.342
23242WAT      O69967   3.103   4.745   3.758
23242WAT     H169968   3.172   4.697   3.703
23242WAT     H269969   3.073   4.685   3.832
23243WAT      O69970   7.584   5.854   5.319
23243WAT     H169971   7.535   5.889   5.239
23243WAT     H269972   7.519   5.806   5.379
23244WAT      O69973   4.732   7.096   3.903
23244WAT     H169974   4.656   7.152   3.935
23244WAT     H269975   4.697   7.020   3.848
23245WAT      O69976   6.844   6.406   6.572
23245WAT     H169977   6.895   6.416   6.487
23245WAT     H269978   6.766   6.345   6.556
23246WAT      O69979   0.254   0.058   2.626
23246WAT     H169980   0.187   0.118   2.670
23246WAT     H269981   0.346   0.093   2.642
23247WAT      O69982   7.839   1.212   0.171
23247WAT     H169983   7.799   1.281   0.231
23247WAT     H269984   7.892   1.147   0.226
23248WAT      O69985   3.543   2.271   8.865
23248WAT     H169986   3.638   2.298   8.882
23248WAT     H269987   3.509   2.219   8.944
23249WAT      O69988   8.707   6.694   1.108
23249WAT     H169989   8.804   6.693   1.081
23249WAT     H269990   8.701   6.698   1.208
23250WAT      O69991   3.882   8.646   7.963
23250WAT     H169992   3.934   8.709   8.020
23250WAT     H269993   3.814   8.697   7.910
23251WAT      O69994   5.073   3.134   8.249
23251WAT     H169995   5.010   3.076   8.302
23251WAT     H269996   5.079   3.224   8.292
23252WAT      O69997   9.786   2.701   3.430
23252WAT     H169998   9.763   2.604   3.420
23252WAT     H269999   9.801   2.722   3.526
23253WAT      O70000   2.827   6.182   9.062
23253WAT     H170001   2.750   6.133   9.021
23253WAT     H270002   2.828   6.168   9.161
23254WAT      O70003   1.651   4.849   9.061
23254WAT     H170004   1.554   4.838   9.040
23254WAT     H270005   1.701   4.871   8.977
23255WAT      O70006   6.824   3.173   3.283
23255WAT     H170007   6.923   3.169   3.266
23255WAT     H270008   6.783   3.086   3.255
23256WAT      O70009   2.292   9.336   9.205
23256WAT     H170010   2.236   9.284   9.141
23256WAT     H270011   2.388   9.309   9.195
23257WAT      O70012   7.882   9.196   0.492
23257WAT     H170013   7.949   9.125   0.470
23257WAT     H270014   7.927   9.271   0.540
23258WAT      O70015   0.286   3.651   3.711
23258WAT     H170016   0.284   3.646   3.612
23258WAT     H270017   0.292   3.559   3.750
23259WAT      O70018   8.149   8.143   7.770
23259WAT     H170019   8.134   8.064   7.829
23259WAT     H270020   8.087   8.217   7.796
23260WAT      O70021   5.204   5.391   1.434
23260WAT     H170022   5.137   5.456   1.470
23260WAT     H270023   5.276   5.376   1.502
23261WAT      O70024   0.537   5.019   6.522
23261WAT     H170025   0.458   4.996   6.466
23261WAT     H270026   0.618   5.027   6.465
23262WAT      O70027   3.725   7.389   5.725
23262WAT     H170028   3.685   7.299   5.706
23262WAT     H270029   3.766   7.389   5.815
23263WAT      O70030   0.131   7.104   5.012
23263WAT     H170031   0.141   7.089   4.913
23263WAT     H270032   0.117   7.201   5.029
23264WAT      O70033   9.727   3.934   7.197
23264WAT     H170034   9.754   3.841   7.222
23264WAT     H270035   9.808   3.992   7.190
23265WAT      O70036   1.753   3.286   8.623
23265WAT     H170037   1.779   3.250   8.713
23265WAT     H270038   1.830   3.277   8.560
23266WAT      O70039   1.795   1.336   7.396
23266WAT     H170040   1.835   1.265   7.453
23266WAT     H270041   1.800   1.424   7.444
23267WAT      O70042   6.266   1.356   2.719
23267WAT     H170043   6.221   1.443   2.737
23267WAT     H270044   6.231   1.286   2.782
23268WAT      O70045   9.771   2.425   6.691
23268WAT     H170046   9.703   2.461   6.628
23268WAT     H270047   9.813   2.343   6.652
23269WAT      O70048   8.469   1.126   0.936
23269WAT     H170049   8.399   1.153   1.003
23269WAT     H270050   8.425   1.103   0.849
23270WAT      O70051   2.548   5.153   1.814
23270WAT     H170052   2.477   5.160   1.744
23270WAT     H270053   2.527   5.215   1.890
23271WAT      O70054   0.812   3.004   7.280
23271WAT     H170055   0.736   2.947   7.248
23271WAT     H270056   0.790   3.042   7.370
23272WAT      O70057   6.498   1.601   3.042
23272WAT     H170058   6.501   1.597   3.141
23272WAT     H270059   6.534   1.515   3.004
23273WAT      O70060   6.999   6.022   6.872
23273WAT     H170061   7.062   6.024   6.794
23273WAT     H270062   6.905   6.025   6.838
23274WAT      O70063   4.736   1.801   0.657
23274WAT     H170064   4.782   1.890   0.655
23274WAT     H270065   4.726   1.766   0.564
23275WAT      O70066   9.168   7.202   8.729
23275WAT     H170067   9.109   7.223   8.807
23275WAT     H270068   9.143   7.113   8.692
23276WAT      O70069   6.366   4.206   1.638
23276WAT     H170070   6.275   4.188   1.602
23276WAT     H270071   6.415   4.268   1.576
23277WAT      O70072   6.760   9.543   5.377
23277WAT     H170073   6.806   9.565   5.291
23277WAT     H270074   6.662   9.529   5.360
23278WAT      O70075   4.323   8.733   3.685
23278WAT     H170076   4.280   8.718   3.596
23278WAT     H270077   4.253   8.763   3.750
23279WAT      O70078   0.613   3.209   0.198
23279WAT     H170079   0.628   3.177   0.291
23279WAT     H270080   0.651   3.301   0.188
23280WAT      O70081   5.931   3.115   2.647
23280WAT     H170082   5.968   3.107   2.555
23280WAT     H270083   5.937   3.210   2.678
23281WAT      O70084   3.297   0.725   6.313
23281WAT     H170085   3.220   0.722   6.249
23281WAT     H270086   3.382   0.715   6.262
23282WAT      O70087   5.191   2.375   5.690
23282WAT     H170088   5.134   2.440   5.641
23282WAT     H270089   5.218   2.301   5.627
23283WAT      O70090   2.123   9.153   9.799
23283WAT     H170091   2.150   9.249   9.802
23283WAT     H270092   2.195   9.100   9.755
23284WAT      O70093   5.888   8.129   8.827
23284WAT     H170094   5.951   8.168   8.760
23284WAT     H270095   5.794   8.137   8.795
23285WAT      O70096   9.427   6.534   7.419
23285WAT     H170097   9.476   6.447   7.411
23285WAT     H270098   9.459   6.596   7.347
23286WAT      O70099   0.982   2.175   9.430
23286WAT     H170100   0.943   2.247   9.374
23286WAT     H270101   0.908   2.121   9.472
23287WAT      O70102   9.478   7.390   5.732
23287WAT     H170103   9.426   7.312   5.766
23287WAT     H270104   9.415   7.465   5.710
23288WAT      O70105   9.638   3.338   3.493
23288WAT     H170106   9.553   3.390   3.484
23288WAT     H270107   9.671   3.345   3.587
23289WAT      O70108   6.336   4.921   5.833
23289WAT     H170109   6.246   4.925   5.877
23289WAT     H270110   6.383   5.009   5.845
23290WAT      O70111   4.003   5.713   6.242
23290WAT     H170112   3.948   5.779   6.191
23290WAT     H270113   3.943   5.655   6.297
23291WAT      O70114   5.359   0.970   4.474
23291WAT     H170115   5.285   1.029   4.442
23291WAT     H270116   5.373   0.982   4.572
23292WAT      O70117   5.293   3.511   3.541
23292WAT     H170118   5.312   3.539   3.447
23292WAT     H270119   5.360   3.554   3.602
23293WAT      O70120   4.699   2.321   8.500
23293WAT     H170121   4.795   2.340   8.483
23293WAT     H270122   4.654   2.405   8.532
23294WAT      O70123   5.614   5.369   1.198
23294WAT     H170124   5.694   5.430   1.201
23294WAT     H270125   5.634   5.290   1.141
23295WAT      O70126   0.382   4.937   0.139
23295WAT     H170127   0.337   4.981   0.062
23295WAT     H270128   0.367   4.991   0.222
23296WAT      O70129   3.736   8.676   3.808
23296WAT     H170130   3.689   8.632   3.731
23296WAT     H270131   3.774   8.763   3.778
23297WAT      O70132   1.791   2.240   8.772
23297WAT     H170133   1.825   2.335   8.774
23297WAT     H270134   1.720   2.230   8.841
23298WAT      O70135   3.388   0.250   2.738
23298WAT     H170136   3.304   0.298   2.713
23298WAT     H270137   3.419   0.194   2.662
23299WAT      O70138   7.886   7.425   0.782
23299WAT     H170139   7.834   7.505   0.815
23299WAT     H270140   7.826   7.345   0.782
23300WAT      O70141   6.588   6.085   5.802
23300WAT     H170142   6.526   6.106   5.879
23300WAT     H270143   6.604   6.168   5.749
23301WAT      O70144   2.446   8.974   2.856
23301WAT     H170145   2.448   8.902   2.926
23301WAT     H270146   2.384   9.047   2.885
23302WAT      O70147   9.383   5.593   9.661
23302WAT     H170148   9.362   5.592   9.759
23302WAT     H270149   9.410   5.686   9.634
23303WAT      O70150   8.779   5.775   3.293
23303WAT     H170151   8.814   5.697   3.346
23303WAT     H270152   8.692   5.750   3.251
23304WAT      O70153   2.798   8.983   5.425
23304WAT     H170154   2.716   8.986   5.368
23304WAT     H270155   2.878   8.962   5.368
23305WAT      O70156   7.304   4.183   3.252
23305WAT     H170157   7.310   4.266   3.307
23305WAT     H270158   7.215   4.180   3.205
23306WAT      O70159   9.153   2.612   2.835
23306WAT     H170160   9.102   2.623   2.920
23306WAT     H270161   9.200   2.697   2.812
23307WAT      O70162   5.401   2.418   1.854
23307WAT     H170163   5.425   2.462   1.941
23307WAT     H270164   5.308   2.445   1.828
23308WAT      O70165   3.266   8.859   9.587
23308WAT     H170166   3.289   8.949   9.624
23308WAT     H270167   3.330   8.836   9.513
23309WAT      O70168   3.612   1.626   3.107
23309WAT     H170169   3.595   1.611   3.204
23309WAT     H270170   3.703   1.591   3.084
23310WAT      O70171   7.200   0.575   1.290
23310WAT     H170172   7.261   0.642   1.332
23310WAT     H270173   7.130   0.547   1.355
23311WAT      O70174   8.172   7.565   1.514
23311WAT     H170175   8.118   7.594   1.435
23311WAT     H270176   8.112   7.550   1.592
23312WAT      O70177   3.223   7.164   6.144
23312WAT     H170178   3.303   7.154   6.084
23312WAT     H270179   3.167   7.241   6.112
23313WAT      O70180   2.099   8.260   9.451
23313WAT     H170181   2.025   8.308   9.403
23313WAT     H270182   2.156   8.212   9.384
23314WAT      O70183   9.844   5.398   4.685
23314WAT     H170184   9.854   5.492   4.717
23314WAT     H270185   9.837   5.336   4.764
23315WAT      O70186   7.444   7.968   0.576
23315WAT     H170187   7.406   7.991   0.666
23315WAT     H270188   7.538   8.000   0.570
23316WAT      O70189   9.612   0.485   6.997
23316WAT     H170190   9.671   0.561   7.024
23316WAT     H270191   9.530   0.484   7.054
23317WAT      O70192   1.408   6.082   4.540
23317WAT     H170193   1.311   6.074   4.561
23317WAT     H270194   1.460   6.016   4.595
23318WAT      O70195   7.445   8.271   4.439
23318WAT     H170196   7.381   8.339   4.474
23318WAT     H270197   7.403   8.181   4.444
23319WAT      O70198   7.696   9.373   2.059
23319WAT     H170199   7.614   9.429   2.063
23319WAT     H270200   7.754   9.392   2.138
23320WAT      O70201   3.471   1.081   5.602
23320WAT     H170202   3.500   0.986   5.609
23320WAT     H270203   3.373   1.088   5.621
23321WAT      O70204   0.486   8.255   8.016
23321WAT     H170205   0.521   8.314   8.089
23321WAT     H270206   0.388   8.241   8.029
23322WAT      O70207   9.387   0.059   6.218
23322WAT     H170208   9.443   0.038   6.138
23322WAT     H270209   9.340  -0.023   6.248
23323WAT      O70210   8.358   2.201   5.467
23323WAT     H170211   8.293   2.126   5.459
23323WAT     H270212   8.374   2.241   5.377
23324WAT      O70213   3.309   1.855   7.006
23324WAT     H170214   3.325   1.930   6.942
23324WAT     H270215   3.211   1.835   7.010
23325WAT      O70216   6.398   3.988   9.226
23325WAT     H170217   6.354   4.063   9.276
23325WAT     H270218   6.329   3.941   9.170
23326WAT      O70219   4.761   3.375   5.686
23326WAT     H170220   4.827   3.349   5.616
23326WAT     H270221   4.740   3.472   5.677
23327WAT      O70222   1.692   1.526   5.564
23327WAT     H170223   1.739   1.611   5.539
23327WAT     H270224   1.618   1.546   5.628
23328WAT      O70225   4.008   6.956   4.545
23328WAT     H170226   4.049   7.047   4.553
23328WAT     H270227   4.039   6.898   4.620
23329WAT      O70228   1.767   3.157   1.057
23329WAT     H170229   1.756   3.117   1.148
23329WAT     H270230   1.732   3.093   0.989
23330WAT      O70231   2.634   3.069   3.837
23330WAT     H170232   2.725   3.108   3.846
23330WAT     H270233   2.600   3.042   3.927
23331WAT      O70234   0.426   9.710   2.527
23331WAT     H170235   0.352   9.778   2.527
23331WAT     H270236   0.433   9.668   2.617
23332WAT      O70237   7.818   3.850   6.267
23332WAT     H170238   7.729   3.875   6.306
23332WAT     H270239   7.824   3.751   6.260
23333WAT      O70240   9.467   4.787   4.249
23333WAT     H170241   9.374   4.772   4.216
23333WAT     H270242   9.468   4.780   4.349
23334WAT      O70243   0.164   8.521   0.480
23334WAT     H170244   0.232   8.492   0.412
23334WAT     H270245   0.072   8.508   0.443
23335WAT      O70246   2.715   1.096   4.696
23335WAT     H170247   2.734   1.105   4.598
23335WAT     H270248   2.665   1.011   4.713
23336WAT      O70249   6.721   3.249   3.523
23336WAT     H170250   6.631   3.293   3.517
23336WAT     H270251   6.748   3.217   3.433
23337WAT      O70252   3.245   2.963   1.178
23337WAT     H170253   3.285   2.912   1.101
23337WAT     H270254   3.173   2.908   1.220
23338WAT      O70255   7.763   4.554   5.597
23338WAT     H170256   7.773   4.589   5.504
23338WAT     H270257   7.668   4.527   5.613
23339WAT      O70258   5.839   4.786   7.632
23339WAT     H170259   5.867   4.758   7.723
23339WAT     H270260   5.915   4.772   7.568
23340WAT      O70261   2.103   4.584   7.965
23340WAT     H170262   2.047   4.663   7.990
23340WAT     H270263   2.159   4.607   7.885
23341WAT      O70264   1.890   1.235   4.214
23341WAT     H170265   1.926   1.176   4.143
23341WAT     H270266   1.837   1.180   4.280
23342WAT      O70267   3.383   2.733   6.833
23342WAT     H170268   3.440   2.777   6.902
23342WAT     H270269   3.342   2.803   6.774
23343WAT      O70270   6.621   0.443   9.232
23343WAT     H170271   6.564   0.513   9.188
23343WAT     H270272   6.563   0.383   9.287
23344WAT      O70273   1.446   8.182   6.756
23344WAT     H170274   1.374   8.136   6.808
23344WAT     H270275   1.488   8.253   6.811
23345WAT      O70276   2.806   4.068   3.026
23345WAT     H170277   2.883   4.042   2.968
23345WAT     H270278   2.736   3.996   3.021
23346WAT      O70279   5.247   6.333   2.832
23346WAT     H170280   5.173   6.269   2.817
23346WAT     H270281   5.213   6.412   2.883
23347WAT      O70282   8.878   0.494   7.584
23347WAT     H170283   8.831   0.514   7.670
23347WAT     H270284   8.811   0.490   7.510
23348WAT      O70285   9.025   1.244   0.022
23348WAT     H170286   9.073   1.172  -0.029
23348WAT     H270287   8.927   1.228   0.017
23349WAT      O70288   4.413   0.301   4.678
23349WAT     H170289   4.439   0.211   4.642
23349WAT     H270290   4.364   0.289   4.765
23350WAT      O70291   0.991   9.732   3.933
23350WAT     H170292   1.076   9.706   3.978
23350WAT     H270293   0.915   9.722   3.998
23351WAT      O70294   0.360   8.517   1.169
23351WAT     H170295   0.325   8.465   1.247
23351WAT     H270296   0.447   8.559   1.194
23352WAT      O70297   5.631   4.987   5.037
23352WAT     H170298   5.682   4.921   5.092
23352WAT     H270299   5.633   4.958   4.941
23353WAT      O70300   6.585   0.167   6.437
23353WAT     H170301   6.538   0.238   6.489
23353WAT     H270302   6.528   0.085   6.432
23354WAT      O70303   7.511   0.694   6.887
23354WAT     H170304   7.572   0.761   6.844
23354WAT     H270305   7.446   0.660   6.820
23355WAT      O70306   0.507   3.763   6.488
23355WAT     H170307   0.483   3.727   6.398
23355WAT     H270308   0.424   3.789   6.537
23356WAT      O70309   7.245   6.851   6.758
23356WAT     H170310   7.276   6.909   6.683
23356WAT     H270311   7.183   6.781   6.723
23357WAT      O70312   6.934   3.309   6.066
23357WAT     H170313   6.958   3.298   6.162
23357WAT     H270314   6.917   3.406   6.046
23358WAT      O70315   4.375   3.360   2.187
23358WAT     H170316   4.361   3.387   2.282
23358WAT     H270317   4.451   3.413   2.149
23359WAT      O70318   2.089   7.458   8.686
23359WAT     H170319   2.114   7.554   8.684
23359WAT     H270320   2.164   7.402   8.651
23360WAT      O70321   0.638   3.207   2.304
23360WAT     H170322   0.643   3.129   2.241
23360WAT     H270323   0.728   3.247   2.314
23361WAT      O70324   4.801   3.672   8.175
23361WAT     H170325   4.890   3.632   8.154
23361WAT     H270326   4.740   3.601   8.210
23362WAT      O70327   1.168   8.167   5.389
23362WAT     H170328   1.088   8.111   5.369
23362WAT     H270329   1.251   8.118   5.361
23363WAT      O70330   0.576   7.845   7.097
23363WAT     H170331   0.587   7.920   7.162
23363WAT     H270332   0.487   7.802   7.111
23364WAT      O70333   5.742   4.970   2.287
23364WAT     H170334   5.776   4.909   2.358
23364WAT     H270335   5.796   4.957   2.204
23365WAT      O70336   5.786   2.027   0.364
23365WAT     H170337   5.727   2.078   0.301
23365WAT     H270338   5.838   1.958   0.314
23366WAT      O70339   4.658   8.187   2.469
23366WAT     H170340   4.686   8.276   2.504
23366WAT     H270341   4.696   8.115   2.527
23367WAT      O70342   2.132   5.413   8.983
23367WAT     H170343   2.182   5.329   9.001
23367WAT     H270344   2.196   5.484   8.954
23368WAT      O70345   6.021   6.949   1.081
23368WAT     H170346   5.929   6.916   1.059
23368WAT     H270347   6.067   6.976   0.996
23369WAT      O70348   7.796   5.910   2.198
23369WAT     H170349   7.771   5.823   2.156
23369WAT     H270350   7.810   5.979   2.126
23370WAT      O70351   8.403   7.388   1.542
23370WAT     H170352   8.310   7.425   1.537
23370WAT     H270353   8.450   7.402   1.455
23371WAT      O70354   3.819   0.090   3.505
23371WAT     H170355   3.847   0.031   3.429
23371WAT     H270356   3.754   0.158   3.472
23372WAT      O70357   8.398   5.561   9.345
23372WAT     H170358   8.316   5.525   9.388
23372WAT     H270359   8.374   5.604   9.258
23373WAT      O70360   1.356   3.451   9.499
23373WAT     H170361   1.394   3.510   9.571
23373WAT     H270362   1.259   3.436   9.516
23374WAT      O70363   5.739   0.784   2.609
23374WAT     H170364   5.825   0.835   2.610
23374WAT     H270365   5.664   0.846   2.586
23375WAT      O70366   9.193   5.041   6.232
23375WAT     H170367   9.239   5.107   6.172
23375WAT     H270368   9.094   5.049   6.220
23376WAT      O70369   6.093   1.802   0.997
23376WAT     H170370   6.072   1.900   0.992
23376WAT     H270371   6.122   1.780   1.090
23377WAT      O70372   0.467   8.272   0.698
23377WAT     H170373   0.415   8.337   0.752
23377WAT     H270374   0.414   8.188   0.686
23378WAT      O70375   7.991   6.674   4.627
23378WAT     H170376   8.066   6.611   4.610
23378WAT     H270377   8.019   6.767   4.603
23379WAT      O70378   3.758   0.609   4.724
23379WAT     H170379   3.774   0.702   4.758
23379WAT     H270380   3.667   0.604   4.683
23380WAT      O70381   7.130   7.385   1.393
23380WAT     H170382   7.066   7.357   1.322
23380WAT     H270383   7.083   7.394   1.480
23381WAT      O70384   8.482   3.464   9.275
23381WAT     H170385   8.402   3.486   9.331
23381WAT     H270386   8.472   3.372   9.237
23382WAT      O70387   2.778   7.862   0.423
23382WAT     H170388   2.682   7.884   0.406
23382WAT     H270389   2.809   7.793   0.357
23383WAT      O70390   7.462   6.958   0.459
23383WAT     H170391   7.529   6.884   0.448
23383WAT     H270392   7.420   6.953   0.549
23384WAT      O70393   5.551   6.940   3.655
23384WAT     H170394   5.534   7.037   3.671
23384WAT     H270395   5.595   6.928   3.566
23385WAT      O70396   3.595   9.477   1.620
23385WAT     H170397   3.544   9.406   1.571
23385WAT     H270398   3.538   9.559   1.629
23386WAT      O70399   8.508   3.044   4.655
23386WAT     H170400   8.550   3.117   4.709
23386WAT     H270401   8.552   2.957   4.677
23387WAT      O70402   4.477   0.788   5.157
23387WAT     H170403   4.472   0.760   5.253
23387WAT     H270404   4.455   0.885   5.150
23388WAT      O70405   1.055   7.651   6.714
23388WAT     H170406   1.053   7.554   6.739
23388WAT     H270407   1.090   7.661   6.621
23389WAT      O70408   5.000   1.629   0.803
23389WAT     H170409   5.005   1.662   0.897
23389WAT     H270410   4.904   1.619   0.776
23390WAT      O70411   5.717   6.803   4.012
23390WAT     H170412   5.661   6.773   3.934
23390WAT     H270413   5.710   6.736   4.085
23391WAT      O70414   0.190   6.195   9.773
23391WAT     H170415   0.123   6.232   9.839
23391WAT     H270416   0.141   6.160   9.693
23392WAT      O70417   4.200   8.665   4.592
23392WAT     H170418   4.207   8.729   4.515
23392WAT     H270419   4.104   8.639   4.604
23393WAT      O70420   2.164   2.690   2.941
23393WAT     H170421   2.170   2.789   2.934
23393WAT     H270422   2.144   2.651   2.850
23394WAT      O70423   1.776   4.981   2.561
23394WAT     H170424   1.819   4.911   2.504
23394WAT     H270425   1.699   5.021   2.513
23395WAT      O70426   7.766   1.119   2.055
23395WAT     H170427   7.732   1.074   1.973
23395WAT     H270428   7.735   1.214   2.056
23396WAT      O70429   5.360   0.172   8.445
23396WAT     H170430   5.456   0.143   8.443
23396WAT     H270431   5.355   0.271   8.443
23397WAT      O70432   4.988   1.059   2.446
23397WAT     H170433   5.043   1.009   2.379
23397WAT     H270434   4.910   1.003   2.474
23398WAT      O70435   4.610   3.764   8.783
23398WAT     H170436   4.570   3.838   8.837
23398WAT     H270437   4.655   3.802   8.702
23399WAT      O70438   8.253   1.838   5.765
23399WAT     H170439   8.270   1.765   5.832
23399WAT     H270440   8.232   1.923   5.813
23400WAT      O70441   1.545   7.409   3.468
23400WAT     H170442   1.469   7.474   3.470
23400WAT     H270443   1.630   7.457   3.487
23401WAT      O70444   2.439   3.915   5.419
23401WAT     H170445   2.469   3.900   5.325
23401WAT     H270446   2.459   4.009   5.446
23402WAT      O70447   5.172   3.267   2.714
23402WAT     H170448   5.251   3.215   2.746
23402WAT     H270449   5.173   3.358   2.756
23403WAT      O70450   4.382   4.893   5.017
23403WAT     H170451   4.333   4.918   5.101
23403WAT     H270452   4.319   4.846   4.955
23404WAT      O70453   5.307   7.238   6.228
23404WAT     H170454   5.252   7.180   6.168
23404WAT     H270455   5.279   7.223   6.323
23405WAT      O70456   3.439   0.481   7.117
23405WAT     H170457   3.380   0.461   7.038
23405WAT     H270458   3.395   0.448   7.200
23406WAT      O70459   4.298   1.746   6.065
23406WAT     H170460   4.216   1.768   6.118
23406WAT     H270461   4.347   1.830   6.043
23407WAT      O70462   6.224   0.316   3.512
23407WAT     H170463   6.281   0.312   3.594
23407WAT     H270464   6.230   0.407   3.471
23408WAT      O70465   9.676   2.181   6.498
23408WAT     H170466   9.712   2.131   6.577
23408WAT     H270467   9.636   2.116   6.433
23409WAT      O70468   7.154   7.337   6.303
23409WAT     H170469   7.105   7.262   6.348
23409WAT     H270470   7.252   7.322   6.312
23410WAT      O70471   5.030   4.740   7.712
23410WAT     H170472   5.070   4.748   7.621
23410WAT     H270473   5.009   4.643   7.730
23411WAT      O70474   6.647   6.329   8.961
23411WAT     H170475   6.686   6.380   8.884
23411WAT     H270476   6.571   6.382   9.000
23412WAT      O70477   2.386   9.834   9.788
23412WAT     H170478   2.482   9.815   9.810
23412WAT     H270479   2.368   9.809   9.693
23413WAT      O70480   0.941   9.000   0.082
23413WAT     H170481   0.884   9.042   0.153
23413WAT     H270482   0.883   8.976   0.003
23414WAT      O70483   1.448   1.614   0.878
23414WAT     H170484   1.485   1.523   0.862
23414WAT     H270485   1.375   1.608   0.947
23415WAT      O70486   8.418   8.317   8.533
23415WAT     H170487   8.465   8.406   8.540
23415WAT     H270488   8.453   8.256   8.605
23416WAT      O70489   8.145   8.475   2.932
23416WAT     H170490   8.047   8.483   2.946
23416WAT     H270491   8.189   8.445   3.017
23417WAT      O70492   9.513   1.423   1.385
23417WAT     H170493   9.467   1.336   1.404
23417WAT     H270494   9.542   1.464   1.471
23418WAT      O70495   0.521   8.917   5.542
23418WAT     H170496   0.589   8.914   5.615
23418WAT     H270497   0.534   9.001   5.488
23419WAT      O70498   9.178   7.928   3.960
23419WAT     H170499   9.178   7.843   4.013
23419WAT     H270500   9.124   7.915   3.877
23420WAT      O70501   1.475   9.434   0.641
23420WAT     H170502   1.575   9.435   0.640
23420WAT     H270503   1.443   9.372   0.712
23421WAT      O70504   9.484   2.013   8.755
23421WAT     H170505   9.402   2.040   8.704
23421WAT     H270506   9.486   1.914   8.765
23422WAT      O70507   5.189   3.839   8.796
23422WAT     H170508   5.131   3.794   8.729
23422WAT     H270509   5.224   3.925   8.757
23423WAT      O70510   8.994   0.967   8.305
23423WAT     H170511   8.917   0.975   8.242
23423WAT     H270512   9.072   0.924   8.259
23424WAT      O70513   9.836   4.392   5.042
23424WAT     H170514   9.821   4.488   5.067
23424WAT     H270515   9.922   4.361   5.081
23425WAT      O70516   5.386   6.619   4.500
23425WAT     H170517   5.461   6.674   4.535
23425WAT     H270518   5.393   6.526   4.535
23426WAT      O70519   4.720   4.026   9.290
23426WAT     H170520   4.807   4.055   9.330
23426WAT     H270521   4.682   3.951   9.344
23427WAT      O70522   7.338   0.011   2.149
23427WAT     H170523   7.325  -0.082   2.183
23427WAT     H270524   7.403   0.010   2.073
23428WAT      O70525   6.480   3.284   5.081
23428WAT     H170526   6.424   3.333   5.148
23428WAT     H270527   6.441   3.295   4.990
23429WAT      O70528   8.919   8.217   3.501
23429WAT     H170529   9.007   8.200   3.547
23429WAT     H270530   8.847   8.167   3.549
23430WAT      O70531   9.092   2.722   1.418
23430WAT     H170532   9.140   2.684   1.497
23430WAT     H270533   9.159   2.764   1.356
23431WAT      O70534   7.106   8.972   4.944
23431WAT     H170535   7.150   8.887   4.914
23431WAT     H270536   7.167   9.021   5.006
23432WAT      O70537   8.777   0.847   7.695
23432WAT     H170538   8.742   0.930   7.652
23432WAT     H270539   8.848   0.807   7.637
23433WAT      O70540   1.986   9.098   9.465
23433WAT     H170541   2.062   9.160   9.444
23433WAT     H270542   2.018   9.004   9.458
23434WAT      O70543   0.826   8.919   9.726
23434WAT     H170544   0.853   8.969   9.644
23434WAT     H270545   0.733   8.883   9.714
23435WAT      O70546   3.089   3.807   6.298
23435WAT     H170547   3.009   3.791   6.239
23435WAT     H270548   3.119   3.902   6.288
23436WAT      O70549   1.643   6.127   8.413
23436WAT     H170550   1.612   6.044   8.459
23436WAT     H270551   1.610   6.208   8.462
23437WAT      O70552   4.290   8.893   5.045
23437WAT     H170553   4.301   8.819   4.979
23437WAT     H270554   4.357   8.883   5.118
23438WAT      O70555   5.523   0.229   7.693
23438WAT     H170556   5.519   0.149   7.633
23438WAT     H270557   5.618   0.246   7.720
23439WAT      O70558   3.625   0.424   8.488
23439WAT     H170559   3.704   0.443   8.546
23439WAT     H270560   3.549   0.483   8.514
23440WAT      O70561   5.054   6.981   6.438
23440WAT     H170562   4.977   6.958   6.379
23440WAT     H270563   5.080   7.076   6.424
23441WAT      O70564   3.627   2.831   2.779
23441WAT     H170565   3.654   2.785   2.863
23441WAT     H270566   3.566   2.908   2.801
23442WAT      O70567   5.466   1.504   0.438
23442WAT     H170568   5.462   1.466   0.530
23442WAT     H270569   5.439   1.600   0.440
23443WAT      O70570   7.600   2.020   0.390
23443WAT     H170571   7.646   1.997   0.304
23443WAT     H270572   7.646   2.098   0.432
23444WAT      O70573   2.597   0.852   0.801
23444WAT     H170574   2.562   0.944   0.818
23444WAT     H270575   2.688   0.843   0.841
23445WAT      O70576   8.414   8.324   2.130
23445WAT     H170577   8.412   8.258   2.206
23445WAT     H270578   8.503   8.321   2.086
23446WAT      O70579   8.799   0.675   8.558
23446WAT     H170580   8.843   0.765   8.559
23446WAT     H270581   8.711   0.681   8.511
23447WAT      O70582   4.736   4.927   3.105
23447WAT     H170583   4.770   4.888   3.020
23447WAT     H270584   4.772   5.020   3.116
23448WAT      O70585   6.136   0.342   5.055
23448WAT     H170586   6.113   0.354   5.151
23448WAT     H270587   6.235   0.349   5.042
23449WAT      O70588   6.820   6.063   4.944
23449WAT     H170589   6.846   6.043   4.850
23449WAT     H270590   6.743   6.126   4.945
23450WAT      O70591   1.884   3.231   8.109
23450WAT     H170592   1.935   3.149   8.081
23450WAT     H270593   1.810   3.248   8.044
23451WAT      O70594   1.952   0.633   0.014
23451WAT     H170595   1.873   0.678  -0.028
23451WAT     H270596   1.922   0.579   0.093
23452WAT      O70597   8.453   0.115   3.162
23452WAT     H170598   8.353   0.110   3.167
23452WAT     H270599   8.492   0.085   3.249
23453WAT      O70600   8.231   2.477   5.299
23453WAT     H170601   8.211   2.465   5.396
23453WAT     H270602   8.309   2.420   5.273
23454WAT      O70603   4.577   4.398   0.677
23454WAT     H170604   4.649   4.376   0.612
23454WAT     H270605   4.527   4.479   0.646
23455WAT      O70606   9.366   7.083   7.072
23455WAT     H170607   9.394   7.140   6.994
23455WAT     H270608   9.414   6.995   7.067
23456WAT      O70609   5.148   2.213   7.622
23456WAT     H170610   5.051   2.228   7.604
23456WAT     H270611   5.175   2.124   7.585
23457WAT      O70612   7.119   6.158   0.292
23457WAT     H170613   7.163   6.240   0.327
23457WAT     H270614   7.024   6.179   0.267
23458WAT      O70615   6.597   4.955   4.345
23458WAT     H170616   6.633   4.887   4.282
23458WAT     H270617   6.497   4.946   4.350
23459WAT      O70618   5.987   3.789   7.116
23459WAT     H170619   5.900   3.834   7.133
23459WAT     H270620   6.061   3.856   7.124
23460WAT      O70621   7.144   1.296   2.641
23460WAT     H170622   7.240   1.267   2.646
23460WAT     H270623   7.119   1.341   2.727
23461WAT      O70624   7.666   3.689   4.475
23461WAT     H170625   7.642   3.724   4.384
23461WAT     H270626   7.594   3.713   4.540
23462WAT      O70627   8.041   9.197   4.220
23462WAT     H170628   8.130   9.216   4.261
23462WAT     H270629   8.050   9.196   4.120
23463WAT      O70630   5.654   4.494   0.314
23463WAT     H170631   5.620   4.555   0.242
23463WAT     H270632   5.750   4.514   0.332
23464WAT      O70633   6.775   1.044   8.441
23464WAT     H170634   6.853   1.049   8.378
23464WAT     H270635   6.797   1.092   8.525
23465WAT      O70636   1.095   5.749   6.118
23465WAT     H170637   1.016   5.759   6.178
23465WAT     H270638   1.172   5.801   6.156
23466WAT      O70639   4.505   5.383   0.105
23466WAT     H170640   4.534   5.329   0.025
23466WAT     H270641   4.584   5.399   0.164
23467WAT      O70642   5.632   1.561   5.219
23467WAT     H170643   5.544   1.607   5.205
23467WAT     H270644   5.626   1.503   5.299
23468WAT      O70645   4.211   8.827   1.575
23468WAT     H170646   4.224   8.912   1.524
23468WAT     H270647   4.144   8.842   1.647
23469WAT      O70648   2.696   3.281   2.464
23469WAT     H170649   2.688   3.328   2.552
23469WAT     H270650   2.605   3.265   2.426
23470WAT      O70651   0.794   9.811   2.239
23470WAT     H170652   0.822   9.835   2.146
23470WAT     H270653   0.844   9.868   2.304
23471WAT      O70654   6.921   6.459   2.185
23471WAT     H170655   6.935   6.454   2.086
23471WAT     H270656   6.823   6.463   2.205
23472WAT      O70657   4.662   7.202   2.621
23472WAT     H170658   4.688   7.132   2.688
23472WAT     H270659   4.607   7.273   2.666
23473WAT      O70660   2.081   6.472   3.319
23473WAT     H170661   2.055   6.379   3.292
23473WAT     H270662   2.019   6.503   3.391
23474WAT      O70663   4.064   9.090   0.627
23474WAT     H170664   4.030   9.158   0.692
23474WAT     H270665   4.080   9.133   0.538
23475WAT      O70666   3.831   3.209   8.696
23475WAT     H170667   3.857   3.204   8.600
23475WAT     H270668   3.764   3.283   8.709
23476WAT      O70669   8.466   2.213   4.666
23476WAT     H170670   8.416   2.299   4.656
23476WAT     H270671   8.563   2.230   4.650
23477WAT      O70672   4.411   8.250   0.776
23477WAT     H170673   4.375   8.332   0.730
23477WAT     H270674   4.353   8.172   0.756
23478WAT      O70675   8.332   1.248   1.126
23478WAT     H170676   8.286   1.243   1.215
23478WAT     H270677   8.294   1.323   1.073
23479WAT      O70678   8.248   1.975   7.419
23479WAT     H170679   8.251   2.042   7.493
23479WAT     H270680   8.166   1.919   7.428
23480WAT      O70681   2.435   0.566   3.591
23480WAT     H170682   2.378   0.505   3.646
23480WAT     H270683   2.518   0.589   3.642
23481WAT      O70684   7.751   4.919   3.606
23481WAT     H170685   7.839   4.872   3.617
23481WAT     H270686   7.692   4.866   3.545
23482WAT      O70687   9.838   3.674   9.170
23482WAT     H170688   9.826   3.773   9.178
23482WAT     H270689   9.806   3.644   9.081
23483WAT      O70690   8.923   0.440   3.728
23483WAT     H170691   8.865   0.454   3.647
23483WAT     H270692   9.004   0.498   3.720
23484WAT      O70693   2.959   7.075   9.680
23484WAT     H170694   2.981   6.987   9.637
23484WAT     H270695   2.989   7.074   9.775
23485WAT      O70696   2.624   9.398   3.229
23485WAT     H170697   2.677   9.478   3.202
23485WAT     H270698   2.657   9.318   3.179
23486WAT      O70699   4.849   1.263   3.006
23486WAT     H170700   4.820   1.302   3.093
23486WAT     H270701   4.849   1.163   3.013
23487WAT      O70702   4.743   2.202   2.225
23487WAT     H170703   4.834   2.163   2.211
23487WAT     H270704   4.724   2.207   2.323
23488WAT      O70705   0.863   9.520   7.914
23488WAT     H170706   0.848   9.588   7.842
23488WAT     H270707   0.825   9.554   8.000
23489WAT      O70708   2.060   3.202   7.652
23489WAT     H170709   2.041   3.299   7.642
23489WAT     H270710   2.148   3.189   7.699
23490WAT      O70711   4.326   7.475   1.319
23490WAT     H170712   4.237   7.470   1.273
23490WAT     H270713   4.313   7.504   1.413
23491WAT      O70714   9.095   3.523   2.714
23491WAT     H170715   9.065   3.537   2.619
23491WAT     H270716   9.029   3.564   2.776
23492WAT      O70717   2.415   6.336   2.371
23492WAT     H170718   2.352   6.414   2.376
23492WAT     H270719   2.509   6.368   2.382
23493WAT      O70720   9.859   3.494   6.213
23493WAT     H170721   9.849   3.483   6.114
23493WAT     H270722   9.941   3.446   6.243
23494WAT      O70723   3.690   3.398   6.130
23494WAT     H170724   3.719   3.382   6.224
23494WAT     H270725   3.592   3.378   6.122
23495WAT      O70726   7.625   9.271   7.682
23495WAT     H170727   7.662   9.180   7.662
23495WAT     H270728   7.556   9.263   7.754
23496WAT      O70729   6.186   0.084   5.249
23496WAT     H170730   6.101   0.049   5.210
23496WAT     H270731   6.262   0.025   5.222
23497WAT      O70732   9.160   0.106   6.903
23497WAT     H170733   9.259   0.112   6.892
23497WAT     H270734   9.115   0.156   6.829
23498WAT      O70735   5.057   2.915   1.737
23498WAT     H170736   4.971   2.943   1.695
23498WAT     H270737   5.039   2.842   1.804
23499WAT      O70738   6.381   6.031   3.434
23499WAT     H170739   6.396   6.023   3.336
23499WAT     H270740   6.439   5.966   3.483
23500WAT      O70741   2.893   2.732   1.042
23500WAT     H170742   2.909   2.829   1.023
23500WAT     H270743   2.805   2.704   1.005
23501WAT      O70744   0.086   9.637   0.457
23501WAT     H170745   0.154   9.605   0.392
23501WAT     H270746   0.131   9.668   0.541
23502WAT      O70747   1.486   3.114   1.700
23502WAT     H170748   1.505   3.209   1.676
23502WAT     H270749   1.572   3.064   1.712
23503WAT      O70750   6.677   9.435   5.726
23503WAT     H170751   6.751   9.381   5.766
23503WAT     H270752   6.715   9.515   5.680
23504WAT      O70753   1.127   0.960   5.559
23504WAT     H170754   1.122   0.874   5.609
23504WAT     H270755   1.219   0.998   5.566
23505WAT      O70756   0.118   8.131   1.058
23505WAT     H170757   0.216   8.120   1.038
23505WAT     H270758   0.105   8.153   1.154
23506WAT      O70759   0.828   7.520   6.464
23506WAT     H170760   0.747   7.569   6.432
23506WAT     H270761   0.808   7.474   6.550
23507WAT      O70762   5.683   6.462   8.794
23507WAT     H170763   5.780   6.441   8.792
23507WAT     H270764   5.667   6.549   8.747
23508WAT      O70765   3.320   1.799   3.332
23508WAT     H170766   3.385   1.752   3.391
23508WAT     H270767   3.255   1.850   3.388
23509WAT      O70768   8.590   3.353   6.632
23509WAT     H170769   8.619   3.311   6.718
23509WAT     H270770   8.668   3.401   6.591
23510WAT      O70771   2.990   8.583   1.783
23510WAT     H170772   2.912   8.534   1.744
23510WAT     H270773   2.969   8.681   1.788
23511WAT      O70774   9.683   4.028   2.329
23511WAT     H170775   9.746   4.032   2.406
23511WAT     H270776   9.600   3.978   2.356
23512WAT      O70777   1.880   1.384   8.037
23512WAT     H170778   1.928   1.336   7.963
23512WAT     H270779   1.915   1.352   8.125
23513WAT      O70780   3.931   3.818   6.097
23513WAT     H170781   4.021   3.781   6.120
23513WAT     H270782   3.919   3.906   6.144
23514WAT      O70783   8.361   9.321   3.970
23514WAT     H170784   8.295   9.392   3.994
23514WAT     H270785   8.338   9.283   3.880
23515WAT      O70786   5.831   8.208   5.350
23515WAT     H170787   5.832   8.177   5.255
23515WAT     H270788   5.742   8.188   5.390
23516WAT      O70789   4.761   5.456   4.805
23516WAT     H170790   4.771   5.428   4.710
23516WAT     H270791   4.781   5.554   4.813
23517WAT      O70792   3.338   8.461   8.897
23517WAT     H170793   3.310   8.380   8.845
23517WAT     H270794   3.372   8.531   8.834
23518WAT      O70795   7.560   5.503   4.983
23518WAT     H170796   7.497   5.579   4.969
23518WAT     H270797   7.564   5.447   4.900
23519WAT      O70798   8.681   2.488   1.833
23519WAT     H170799   8.756   2.554   1.843
23519WAT     H270800   8.600   2.524   1.879
23520WAT      O70801   0.039   9.503   8.580
23520WAT     H170802   0.006   9.576   8.520
23520WAT     H270803   0.090   9.436   8.526
23521WAT      O70804   5.034   9.675   6.407
23521WAT     H170805   4.975   9.693   6.485
23521WAT     H270806   5.070   9.762   6.371
23522WAT      O70807   5.762   1.471   6.404
23522WAT     H170808   5.699   1.424   6.466
23522WAT     H270809   5.791   1.558   6.445
23523WAT      O70810   3.716   5.665   3.164
23523WAT     H170811   3.703   5.697   3.257
23523WAT     H270812   3.639   5.608   3.136
23524WAT      O70813   1.919   9.100   0.163
23524WAT     H170814   1.936   9.147   0.250
23524WAT     H270815   1.908   9.168   0.091
23525WAT      O70816   0.565   5.995   0.319
23525WAT     H170817   0.468   6.010   0.302
23525WAT     H270818   0.606   6.079   0.356
23526WAT      O70819   1.165   6.281   1.338
23526WAT     H170820   1.084   6.224   1.324
23526WAT     H270821   1.220   6.242   1.413
23527WAT      O70822   2.858   1.223   1.451
23527WAT     H170823   2.946   1.195   1.490
23527WAT     H270824   2.874   1.293   1.381
23528WAT      O70825   3.382   9.621   2.054
23528WAT     H170826   3.464   9.565   2.041
23528WAT     H270827   3.311   9.592   1.990
23529WAT      O70828   0.610   7.092   7.877
23529WAT     H170829   0.649   7.176   7.839
23529WAT     H270830   0.510   7.093   7.864
23530WAT      O70831   6.178   9.618   7.247
23530WAT     H170832   6.124   9.627   7.332
23530WAT     H270833   6.212   9.708   7.219
23531WAT      O70834   8.797   5.600   2.834
23531WAT     H170835   8.864   5.605   2.760
23531WAT     H270836   8.843   5.570   2.918
23532WAT      O70837   2.320   4.641   1.424
23532WAT     H170838   2.226   4.667   1.400
23532WAT     H270839   2.317   4.562   1.485
23533WAT      O70840   9.063   7.612   4.782
23533WAT     H170841   8.983   7.622   4.722
23533WAT     H270842   9.070   7.518   4.814
23534WAT      O70843   7.984   2.100   5.634
23534WAT     H170844   7.946   2.192   5.643
23534WAT     H270845   8.058   2.088   5.701
23535WAT      O70846   0.884   9.024   0.585
23535WAT     H170847   0.823   9.005   0.509
23535WAT     H270848   0.902   8.940   0.636
23536WAT      O70849   0.264   6.693   5.382
23536WAT     H170850   0.282   6.724   5.289
23536WAT     H270851   0.347   6.702   5.437
23537WAT      O70852   2.785   8.611   2.074
23537WAT     H170853   2.747   8.665   2.148
23537WAT     H270854   2.755   8.649   1.986
23538WAT      O70855   3.085   6.615   4.844
23538WAT     H170856   3.019   6.544   4.866
23538WAT     H270857   3.058   6.661   4.759
23539WAT      O70858   1.477   4.797   4.573
23539WAT     H170859   1.495   4.842   4.485
23539WAT     H270860   1.416   4.719   4.559
23540WAT      O70861   4.899   2.256   5.414
23540WAT     H170862   4.936   2.325   5.351
23540WAT     H270863   4.966   2.236   5.485
23541WAT      O70864   1.017   6.152   9.488
23541WAT     H170865   0.920   6.129   9.495
23541WAT     H270866   1.039   6.174   9.392
23542WAT      O70867   6.726   0.760   3.937
23542WAT     H170868   6.791   0.809   3.995
23542WAT     H270869   6.708   0.669   3.975
23543WAT      O70870   5.746   5.714   9.284
23543WAT     H170871   5.687   5.742   9.208
23543WAT     H270872   5.836   5.689   9.248
23544WAT      O70873   2.257   1.836   6.958
23544WAT     H170874   2.210   1.794   7.036
23544WAT     H270875   2.355   1.817   6.964
23545WAT      O70876   0.435   9.697   1.807
23545WAT     H170877   0.466   9.756   1.881
23545WAT     H270878   0.344   9.725   1.776
23546WAT      O70879   9.114   4.730   9.031
23546WAT     H170880   9.060   4.812   9.049
23546WAT     H270881   9.208   4.744   9.062
23547WAT      O70882   0.496   7.749   9.183
23547WAT     H170883   0.403   7.750   9.220
23547WAT     H270884   0.503   7.676   9.115
23548WAT      O70885   3.645   7.020   1.376
23548WAT     H170886   3.680   7.103   1.420
23548WAT     H270887   3.717   6.979   1.320
23549WAT      O70888   6.774   9.253   0.505
23549WAT     H170889   6.784   9.161   0.465
23549WAT     H270890   6.696   9.254   0.567
23550WAT      O70891   4.796   8.364   0.482
23550WAT     H170892   4.875   8.425   0.487
23550WAT     H270893   4.772   8.332   0.573
23551WAT      O70894   2.368   7.621   2.746
23551WAT     H170895   2.433   7.697   2.752
23551WAT     H270896   2.401   7.545   2.801
23552WAT      O70897   7.275   2.710   2.948
23552WAT     H170898   7.340   2.640   2.978
23552WAT     H270899   7.201   2.667   2.898
23553WAT      O70900   7.801   0.808   9.332
23553WAT     H170901   7.709   0.771   9.342
23553WAT     H270902   7.857   0.744   9.279
23554WAT      O70903   6.358   5.659   1.019
23554WAT     H170904   6.434   5.682   1.081
23554WAT     H270905   6.353   5.726   0.945
23555WAT      O70906   2.883   9.055   7.122
23555WAT     H170907   2.896   9.058   7.221
23555WAT     H270908   2.798   9.103   7.098
23556WAT      O70909   4.613   0.601   8.548
23556WAT     H170910   4.622   0.535   8.622
23556WAT     H270911   4.605   0.693   8.586
23557WAT      O70912   7.864   5.947   5.709
23557WAT     H170913   7.768   5.928   5.685
23557WAT     H270914   7.919   5.866   5.689
23558WAT      O70915   1.253   7.507   4.669
23558WAT     H170916   1.345   7.509   4.706
23558WAT     H270917   1.252   7.454   4.584
23559WAT      O70918   3.550   9.840   0.109
23559WAT     H170919   3.510   9.873   0.194
23559WAT     H270920   3.543   9.740   0.105
23560WAT      O70921   8.434   0.424   8.230
23560WAT     H170922   8.436   0.324   8.222
23560WAT     H270923   8.410   0.464   8.141
23561WAT      O70924   8.241   0.189   7.387
23561WAT     H170925   8.150   0.183   7.345
23561WAT     H270926   8.281   0.279   7.365
23562WAT      O70927   7.118   8.171   9.563
23562WAT     H170928   7.030   8.143   9.600
23562WAT     H270929   7.190   8.154   9.630
23563WAT      O70930   7.930   9.642   3.415
23563WAT     H170931   7.856   9.632   3.349
23563WAT     H270932   8.018   9.634   3.369
23564WAT      O70933   2.149   6.578   5.398
23564WAT     H170934   2.196   6.496   5.429
23564WAT     H270935   2.195   6.615   5.317
23565WAT      O70936   6.185   5.091   7.308
23565WAT     H170937   6.111   5.041   7.264
23565WAT     H270938   6.270   5.075   7.259
23566WAT      O70939   7.692   6.786   0.441
23566WAT     H170940   7.664   6.752   0.351
23566WAT     H270941   7.791   6.795   0.443
23567WAT      O70942   2.645   8.477   4.206
23567WAT     H170943   2.662   8.575   4.197
23567WAT     H270944   2.666   8.448   4.300
23568WAT      O70945   1.204   1.458   8.393
23568WAT     H170946   1.152   1.510   8.460
23568WAT     H270947   1.174   1.484   8.301
23569WAT      O70948   5.499   2.389   0.568
23569WAT     H170949   5.417   2.445   0.553
23569WAT     H270950   5.473   2.293   0.578
23570WAT      O70951   6.742   0.307   0.966
23570WAT     H170952   6.812   0.308   0.895
23570WAT     H270953   6.768   0.243   1.038
23571WAT      O70954   0.154   8.470   5.992
23571WAT     H170955   0.085   8.508   5.930
23571WAT     H270956   0.173   8.536   6.065
23572WAT      O70957   3.953   4.303   3.861
23572WAT     H170958   3.910   4.241   3.927
23572WAT     H270959   3.938   4.268   3.769
23573WAT      O70960   7.075   2.761   6.603
23573WAT     H170961   6.992   2.810   6.630
23573WAT     H270962   7.150   2.788   6.664
23574WAT      O70963   4.097   1.961   8.441
23574WAT     H170964   4.192   1.954   8.412
23574WAT     H270965   4.039   1.980   8.362
23575WAT      O70966   6.201   2.489   6.295
23575WAT     H170967   6.139   2.564   6.319
23575WAT     H270968   6.265   2.474   6.369
23576WAT      O70969   2.648   5.315   5.938
23576WAT     H170970   2.582   5.358   5.875
23576WAT     H270971   2.741   5.342   5.912
23577WAT      O70972   1.456   4.366   4.364
23577WAT     H170973   1.400   4.445   4.387
23577WAT     H270974   1.520   4.391   4.291
23578WAT      O70975   8.942   1.154   5.404
23578WAT     H170976   8.993   1.135   5.320
23578WAT     H270977   8.844   1.150   5.386
23579WAT      O70978   1.380   8.016   7.277
23579WAT     H170979   1.282   8.011   7.257
23579WAT     H270980   1.397   7.976   7.367
23580WAT      O70981   1.892   7.082   5.974
23580WAT     H170982   1.917   6.991   6.006
23580WAT     H270983   1.969   7.145   5.989
23581WAT      O70984   0.545   8.527   0.037
23581WAT     H170985   0.537   8.441   0.087
23581WAT     H270986   0.469   8.535  -0.029
23582WAT      O70987   6.143   4.158   9.007
23582WAT     H170988   6.115   4.087   8.942
23582WAT     H270989   6.167   4.241   8.958
23583WAT      O70990   4.980   0.850   1.694
23583WAT     H170991   4.984   0.778   1.625
23583WAT     H270992   4.887   0.857   1.730
23584WAT      O70993   3.808   0.218   5.367
23584WAT     H170994   3.866   0.179   5.439
23584WAT     H270995   3.786   0.313   5.390
23585WAT      O70996   8.107   6.389   1.762
23585WAT     H170997   8.099   6.488   1.748
23585WAT     H270998   8.048   6.341   1.696
23586WAT      O70999   7.855   2.239   9.816
23586WAT     H171000   7.790   2.249   9.892
23586WAT     H271001   7.940   2.288   9.838
23587WAT      O71002   3.223   8.368   1.175
23587WAT     H171003   3.149   8.317   1.132
23587WAT     H271004   3.292   8.391   1.106
23588WAT      O71005   9.578   7.465   1.380
23588WAT     H171006   9.594   7.388   1.443
23588WAT     H271007   9.550   7.429   1.291
23589WAT      O71008   3.083   5.818   8.252
23589WAT     H171009   3.011   5.779   8.309
23589WAT     H271010   3.146   5.870   8.310
23590WAT      O71011   3.714   4.413   1.193
23590WAT     H171012   3.637   4.376   1.246
23590WAT     H271013   3.725   4.510   1.215
23591WAT      O71014   1.919   9.421   9.374
23591WAT     H171015   2.019   9.415   9.377
23591WAT     H271016   1.879   9.338   9.412
23592WAT      O71017   3.824   9.228   6.626
23592WAT     H171018   3.903   9.252   6.683
23592WAT     H271019   3.744   9.211   6.684
23593WAT      O71020   5.511   1.216   8.407
23593WAT     H171021   5.426   1.162   8.410
23593WAT     H271022   5.508   1.279   8.329
23594WAT      O71023   9.835   1.170   3.957
23594WAT     H171024   9.902   1.241   3.976
23594WAT     H271025   9.869   1.110   3.884
23595WAT      O71026   0.612   5.900   2.495
23595WAT     H171027   0.596   5.966   2.569
23595WAT     H271028   0.645   5.814   2.534
23596WAT      O71029   2.594   3.288   5.535
23596WAT     H171030   2.547   3.375   5.520
23596WAT     H271031   2.603   3.271   5.633
23597WAT      O71032   2.926   2.676   2.082
23597WAT     H171033   2.875   2.590   2.086
23597WAT     H271034   2.867   2.752   2.110
23598WAT      O71035   4.690   6.711   5.166
23598WAT     H171036   4.785   6.700   5.196
23598WAT     H271037   4.669   6.808   5.155
23599WAT      O71038   9.884   8.072   0.110
23599WAT     H171039   9.906   8.104   0.018
23599WAT     H271040   9.941   7.993   0.132
23600WAT      O71041   5.165   6.635   4.344
23600WAT     H171042   5.160   6.574   4.265
23600WAT     H271043   5.243   6.610   4.401
23601WAT      O71044   8.514   0.382   3.143
23601WAT     H171045   8.464   0.425   3.219
23601WAT     H271046   8.494   0.284   3.142
23602WAT      O71047   6.590   5.137   1.695
23602WAT     H171048   6.672   5.188   1.722
23602WAT     H271049   6.598   5.042   1.726
23603WAT      O71050   7.979   6.831   6.310
23603WAT     H171051   8.022   6.741   6.310
23603WAT     H271052   8.026   6.891   6.374
23604WAT      O71053   5.093   1.268   2.604
23604WAT     H171054   5.062   1.185   2.556
23604WAT     H271055   5.017   1.305   2.657
23605WAT      O71056   2.577   5.888   0.856
23605WAT     H171057   2.632   5.861   0.777
23605WAT     H271058   2.488   5.842   0.852
23606WAT      O71059   3.049   9.327   7.119
23606WAT     H171060   3.148   9.318   7.132
23606WAT     H271061   3.008   9.236   7.114
23607WAT      O71062   3.461   2.217   1.099
23607WAT     H171063   3.375   2.182   1.062
23607WAT     H271064   3.487   2.164   1.179
23608WAT      O71065   8.216   8.752   7.053
23608WAT     H171066   8.237   8.753   6.955
23608WAT     H271067   8.119   8.770   7.067
23609WAT      O71068   9.397   0.695   7.806
23609WAT     H171069   9.308   0.738   7.815
23609WAT     H271070   9.385   0.596   7.793
23610WAT      O71071   3.548   3.709   5.761
23610WAT     H171072   3.473   3.648   5.787
23610WAT     H271073   3.633   3.676   5.802
23611WAT      O71074   3.136   0.609   3.132
23611WAT     H171075   3.158   0.512   3.140
23611WAT     H271076   3.051   0.620   3.081
23612WAT      O71077   3.075   4.060   6.755
23612WAT     H171078   3.133   4.017   6.686
23612WAT     H271079   3.124   4.063   6.842
23613WAT      O71080   8.466   1.290   8.526
23613WAT     H171081   8.486   1.357   8.455
23613WAT     H271082   8.369   1.295   8.550
23614WAT      O71083   5.330   0.059   5.524
23614WAT     H171084   5.287  -0.023   5.487
23614WAT     H271085   5.408   0.085   5.466
23615WAT      O71086   3.996   8.834   1.364
23615WAT     H171087   4.070   8.901   1.378
23615WAT     H271088   3.984   8.780   1.447
23616WAT      O71089   4.910   8.275   9.626
23616WAT     H171090   4.867   8.186   9.615
23616WAT     H271091   4.914   8.322   9.538
23617WAT      O71092   2.086   6.613   7.298
23617WAT     H171093   2.076   6.704   7.338
23617WAT     H271094   2.108   6.621   7.201
23618WAT      O71095   8.604   8.708   0.339
23618WAT     H171096   8.687   8.695   0.286
23618WAT     H271097   8.581   8.623   0.386
23619WAT      O71098   1.149   0.885   0.584
23619WAT     H171099   1.223   0.830   0.621
23619WAT     H271100   1.061   0.846   0.609
23620WAT      O71101   4.647   4.154   1.900
23620WAT     H171102   4.646   4.254   1.892
23620WAT     H271103   4.574   4.125   1.961
23621WAT      O71104   7.464   7.840   2.297
23621WAT     H171105   7.393   7.901   2.263
23621WAT     H271106   7.442   7.746   2.273
23622WAT      O71107   8.226   3.593   3.004
23622WAT     H171108   8.318   3.595   2.963
23622WAT     H271109   8.232   3.560   3.098
23623WAT      O71110   3.529   4.377   0.517
23623WAT     H171111   3.502   4.292   0.563
23623WAT     H271112   3.462   4.399   0.446
23624WAT      O71113   5.673   3.444   3.123
23624WAT     H171114   5.728   3.418   3.202
23624WAT     H271115   5.622   3.527   3.144
23625WAT      O71116   2.607   5.448   6.209
23625WAT     H171117   2.561   5.406   6.288
23625WAT     H271118   2.570   5.540   6.194
23626WAT      O71119   6.233   2.664   1.007
23626WAT     H171120   6.232   2.763   1.021
23626WAT     H271121   6.279   2.620   1.084
23627WAT      O71122   2.246   6.267   1.779
23627WAT     H171123   2.248   6.267   1.679
23627WAT     H271124   2.175   6.204   1.810
23628WAT      O71125   0.421   6.810   9.584
23628WAT     H171126   0.369   6.730   9.614
23628WAT     H271127   0.467   6.851   9.663
23629WAT      O71128   4.225   8.973   8.701
23629WAT     H171129   4.290   9.049   8.713
23629WAT     H271130   4.134   9.011   8.683
23630WAT      O71131   9.801   5.094   2.218
23630WAT     H171132   9.808   4.994   2.210
23630WAT     H271133   9.892   5.134   2.215
23631WAT      O71134   2.201   7.092   7.185
23631WAT     H171135   2.151   7.126   7.105
23631WAT     H271136   2.266   7.022   7.156
23632WAT      O71137   3.328   6.803   6.396
23632WAT     H171138   3.368   6.713   6.377
23632WAT     H271139   3.284   6.801   6.486
23633WAT      O71140   0.758   5.820   0.515
23633WAT     H171141   0.703   5.819   0.431
23633WAT     H271142   0.735   5.740   0.571
23634WAT      O71143   7.840   4.298   9.555
23634WAT     H171144   7.891   4.213   9.573
23634WAT     H271145   7.750   4.292   9.599
23635WAT      O71146   3.979   4.879   4.981
23635WAT     H171147   4.004   4.835   5.068
23635WAT     H271148   3.945   4.810   4.917
23636WAT      O71149   4.424   8.823   8.181
23636WAT     H171150   4.389   8.874   8.260
23636WAT     H271151   4.423   8.725   8.202
23637WAT      O71152   0.419   8.125   4.688
23637WAT     H171153   0.473   8.041   4.678
23637WAT     H271154   0.332   8.114   4.641
23638WAT      O71155   6.125   9.052   7.378
23638WAT     H171156   6.222   9.030   7.391
23638WAT     H271157   6.108   9.147   7.403
23639WAT      O71158   6.328   2.836   4.101
23639WAT     H171159   6.284   2.855   4.189
23639WAT     H271160   6.394   2.762   4.113
23640WAT      O71161   7.031   5.431   0.066
23640WAT     H171162   7.101   5.489   0.025
23640WAT     H271163   6.964   5.405  -0.004
23641WAT      O71164   0.229   7.134   5.918
23641WAT     H171165   0.161   7.112   5.987
23641WAT     H271166   0.293   7.201   5.955
23642WAT      O71167   5.347   1.631   2.596
23642WAT     H171168   5.386   1.578   2.672
23642WAT     H271169   5.412   1.702   2.569
23643WAT      O71170   5.049   6.707   0.805
23643WAT     H171171   4.995   6.782   0.766
23643WAT     H271172   4.987   6.636   0.839
23644WAT      O71173   4.791   7.472   4.016
23644WAT     H171174   4.711   7.412   4.016
23644WAT     H271175   4.851   7.449   3.939
23645WAT      O71176   7.484   9.160   9.737
23645WAT     H171177   7.569   9.107   9.736
23645WAT     H271178   7.502   9.252   9.702
23646WAT      O71179   1.217   6.538   7.908
23646WAT     H171180   1.272   6.603   7.856
23646WAT     H271181   1.251   6.533   8.002
23647WAT      O71182   6.483   7.683   7.526
23647WAT     H171183   6.535   7.703   7.443
23647WAT     H271184   6.449   7.589   7.522
23648WAT      O71185   3.374   3.344   4.502
23648WAT     H171186   3.332   3.409   4.439
23648WAT     H271187   3.449   3.297   4.455
23649WAT      O71188   1.786   7.682   8.551
23649WAT     H171189   1.724   7.700   8.475
23649WAT     H271190   1.871   7.734   8.539
23650WAT      O71191   3.756   3.266   4.646
23650WAT     H171192   3.816   3.291   4.722
23650WAT     H271193   3.730   3.348   4.595
23651WAT      O71194   7.523   5.169   6.065
23651WAT     H171195   7.465   5.250   6.059
23651WAT     H271196   7.491   5.100   6.001
23652WAT      O71197   9.303   7.889   1.209
23652WAT     H171198   9.233   7.951   1.175
23652WAT     H271199   9.321   7.818   1.141
23653WAT      O71200   4.683   1.484   8.245
23653WAT     H171201   4.742   1.424   8.190
23653WAT     H271202   4.628   1.541   8.184
23654WAT      O71203   1.379   5.267   8.552
23654WAT     H171204   1.365   5.322   8.470
23654WAT     H271205   1.477   5.252   8.566
23655WAT      O71206   3.878   4.250   7.949
23655WAT     H171207   3.915   4.163   7.916
23655WAT     H271208   3.912   4.268   8.041
23656WAT      O71209   8.562   2.119   1.500
23656WAT     H171210   8.588   2.081   1.411
23656WAT     H271211   8.467   2.148   1.498
23657WAT      O71212   0.246   7.321   3.421
23657WAT     H171213   0.262   7.409   3.376
23657WAT     H271214   0.199   7.260   3.357
23658WAT      O71215   4.462   3.723   4.442
23658WAT     H171216   4.486   3.820   4.449
23658WAT     H271217   4.442   3.688   4.534
23659WAT      O71218   7.169   8.487   0.202
23659WAT     H171219   7.244   8.518   0.143
23659WAT     H271220   7.138   8.397   0.172
23660WAT      O71221   3.673   4.699   9.822
23660WAT     H171222   3.630   4.732   9.738
23660WAT     H271223   3.635   4.610   9.846
23661WAT      O71224   3.848   2.522   6.636
23661WAT     H171225   3.934   2.558   6.599
23661WAT     H271226   3.775   2.587   6.616
23662WAT      O71227   2.945   5.603   5.508
23662WAT     H171228   2.903   5.693   5.518
23662WAT     H271229   2.911   5.542   5.580
23663WAT      O71230   0.726   2.697   2.825
23663WAT     H171231   0.694   2.726   2.735
23663WAT     H271232   0.664   2.734   2.896
23664WAT      O71233   2.011   8.703   7.509
23664WAT     H171234   1.959   8.625   7.546
23664WAT     H271235   2.046   8.758   7.584
23665WAT      O71236   0.149   6.932   0.336
23665WAT     H171237   0.153   7.031   0.340
23665WAT     H271238   0.218   6.898   0.273
23666WAT      O71239   7.310   4.951   3.732
23666WAT     H171240   7.365   5.026   3.697
23666WAT     H271241   7.247   4.985   3.802
23667WAT      O71242   0.638   0.170   5.683
23667WAT     H171243   0.728   0.170   5.641
23667WAT     H271244   0.647   0.161   5.783
23668WAT      O71245   5.593   9.139   8.987
23668WAT     H171246   5.612   9.093   8.901
23668WAT     H271247   5.526   9.087   9.039
23669WAT      O71248   9.027   2.066   1.901
23669WAT     H171249   8.994   2.132   1.967
23669WAT     H271250   8.965   1.988   1.898
23670WAT      O71251   2.105   4.638   5.473
23670WAT     H171252   2.050   4.706   5.521
23670WAT     H271253   2.144   4.678   5.391
23671WAT      O71254   2.752   4.119   7.639
23671WAT     H171255   2.747   4.219   7.651
23671WAT     H271256   2.739   4.075   7.728
23672WAT      O71257   3.571   4.363   4.493
23672WAT     H171258   3.566   4.444   4.433
23672WAT     H271259   3.513   4.291   4.456
23673WAT      O71260   8.654   0.915   1.271
23673WAT     H171261   8.650   0.977   1.193
23673WAT     H271262   8.747   0.913   1.307
23674WAT      O71263   9.352   8.876   8.788
23674WAT     H171264   9.383   8.971   8.782
23674WAT     H271265   9.430   8.815   8.779
23675WAT      O71266   6.489   4.102   5.621
23675WAT     H171267   6.587   4.084   5.615
23675WAT     H271268   6.439   4.026   5.579
23676WAT      O71269   6.804   5.945   0.507
23676WAT     H171270   6.734   5.927   0.437
23676WAT     H271271   6.775   6.021   0.564
23677WAT      O71272   4.295   6.358   9.293
23677WAT     H171273   4.204   6.385   9.262
23677WAT     H271274   4.364   6.405   9.238
23678WAT      O71275   8.103   3.875   7.363
23678WAT     H171276   8.175   3.886   7.295
23678WAT     H271277   8.034   3.946   7.350
23679WAT      O71278   6.046   3.676   4.370
23679WAT     H171279   5.984   3.668   4.291
23679WAT     H271280   6.034   3.765   4.413
23680WAT      O71281   9.526   9.423   2.245
23680WAT     H171282   9.617   9.459   2.264
23680WAT     H271283   9.534   9.329   2.211
23681WAT      O71284   4.265   6.399   2.823
23681WAT     H171285   4.313   6.335   2.763
23681WAT     H271286   4.323   6.479   2.840
23682WAT      O71287   9.664   5.652   6.782
23682WAT     H171288   9.578   5.679   6.739
23682WAT     H271289   9.661   5.555   6.804
23683WAT      O71290   6.287   4.141   4.819
23683WAT     H171291   6.305   4.067   4.884
23683WAT     H271292   6.339   4.126   4.736
23684WAT      O71293   8.269   1.565   5.236
23684WAT     H171294   8.311   1.628   5.301
23684WAT     H271295   8.184   1.530   5.274
23685WAT      O71296   6.314   5.804   7.217
23685WAT     H171297   6.362   5.829   7.302
23685WAT     H271298   6.353   5.855   7.141
23686WAT      O71299   0.601   5.644   3.641
23686WAT     H171300   0.641   5.573   3.583
23686WAT     H271301   0.640   5.733   3.617
23687WAT      O71302   9.300   9.419   2.638
23687WAT     H171303   9.387   9.418   2.688
23687WAT     H271304   9.248   9.336   2.660
23688WAT      O71305   3.445   8.791   4.098
23688WAT     H171306   3.470   8.873   4.046
23688WAT     H271307   3.393   8.818   4.179
23689WAT      O71308   4.336   6.759   5.008
23689WAT     H171309   4.305   6.726   5.097
23689WAT     H271310   4.420   6.813   5.019
23690WAT      O71311   2.455   6.511   7.905
23690WAT     H171312   2.522   6.584   7.919
23690WAT     H271313   2.461   6.445   7.980
23691WAT      O71314   6.048   0.016   9.220
23691WAT     H171315   6.109  -0.003   9.297
23691WAT     H271316   6.078  -0.036   9.140
23692WAT      O71317   3.318   0.860   4.880
23692WAT     H171318   3.232   0.911   4.891
23692WAT     H271319   3.308   0.792   4.808
23693WAT      O71320   2.625   6.000   7.905
23693WAT     H171321   2.644   5.932   7.976
23693WAT     H271322   2.703   6.062   7.897
23694WAT      O71323   6.992   3.014   3.540
23694WAT     H171324   6.979   3.089   3.475
23694WAT     H271325   6.922   2.944   3.525
23695WAT      O71326   3.130   6.871   6.610
23695WAT     H171327   3.140   6.970   6.600
23695WAT     H271328   3.070   6.836   6.538
23696WAT      O71329   7.971   0.672   1.631
23696WAT     H171330   8.041   0.716   1.686
23696WAT     H271331   7.890   0.730   1.626
23697WAT      O71332   4.138   8.160   7.425
23697WAT     H171333   4.217   8.175   7.485
23697WAT     H271334   4.170   8.133   7.334
23698WAT      O71335   6.414   9.455   2.863
23698WAT     H171336   6.415   9.509   2.779
23698WAT     H271337   6.477   9.496   2.929
23699WAT      O71338   4.417   6.714   0.692
23699WAT     H171339   4.384   6.731   0.599
23699WAT     H271340   4.467   6.628   0.694
23700WAT      O71341   1.933   0.118   0.606
23700WAT     H171342   1.886   0.199   0.639
23700WAT     H271343   2.030   0.123   0.631
23701WAT      O71344   9.478   0.258   5.572
23701WAT     H171345   9.529   0.182   5.532
23701WAT     H271346   9.457   0.238   5.668
23702WAT      O71347   0.282   0.642   7.062
23702WAT     H171348   0.212   0.656   7.133
23702WAT     H271349   0.372   0.634   7.105
23703WAT      O71350   2.835   0.501   3.198
23703WAT     H171351   2.899   0.531   3.269
23703WAT     H271352   2.772   0.576   3.177
23704WAT      O71353   9.623   8.012   4.747
23704WAT     H171354   9.609   8.110   4.734
23704WAT     H271355   9.695   7.998   4.815
23705WAT      O71356   4.272   0.392   6.978
23705WAT     H171357   4.289   0.297   6.955
23705WAT     H271358   4.287   0.406   7.076
23706WAT      O71359   2.312   2.263   6.789
23706WAT     H171360   2.309   2.362   6.797
23706WAT     H271361   2.275   2.235   6.700
23707WAT      O71362   4.973   6.723   9.495
23707WAT     H171363   4.936   6.724   9.588
23707WAT     H271364   5.020   6.636   9.478
23708WAT      O71365   2.669   5.964   1.592
23708WAT     H171366   2.714   6.039   1.640
23708WAT     H271367   2.618   6.000   1.513
23709WAT      O71368   5.584   3.264   0.642
23709WAT     H171369   5.640   3.202   0.697
23709WAT     H271370   5.584   3.354   0.685
23710WAT      O71371   1.258   4.298   2.191
23710WAT     H171372   1.183   4.244   2.152
23710WAT     H271373   1.290   4.254   2.275
23711WAT      O71374   9.213   9.746   8.096
23711WAT     H171375   9.287   9.763   8.161
23711WAT     H271376   9.246   9.762   8.003
23712WAT      O71377   2.637   3.713   8.984
23712WAT     H171378   2.696   3.700   8.904
23712WAT     H271379   2.642   3.808   9.014
23713WAT      O71380   4.806   9.315   7.453
23713WAT     H171381   4.894   9.339   7.493
23713WAT     H271382   4.804   9.344   7.357
23714WAT      O71383   4.796   4.336   0.515
23714WAT     H171384   4.869   4.312   0.581
23714WAT     H271385   4.824   4.306   0.424
23715WAT      O71386   9.572   4.415   3.593
23715WAT     H171387   9.582   4.502   3.546
23715WAT     H271388   9.657   4.362   3.584
23716WAT      O71389   0.770   7.985   4.435
23716WAT     H171390   0.720   8.067   4.404
23716WAT     H271391   0.731   7.905   4.390
23717WAT      O71392   7.046   3.135   5.850
23717WAT     H171393   6.979   3.175   5.913
23717WAT     H271394   7.138   3.167   5.876
23718WAT      O71395   0.534   6.245   9.488
23718WAT     H171396   0.505   6.221   9.396
23718WAT     H271397   0.485   6.189   9.555
23719WAT      O71398   5.762   1.264   1.304
23719WAT     H171399   5.688   1.265   1.238
23719WAT     H271400   5.826   1.190   1.282
23720WAT      O71401   4.911   4.184   1.787
23720WAT     H171402   4.824   4.165   1.833
23720WAT     H271403   4.925   4.117   1.715
23721WAT      O71404   8.211   3.124   7.988
23721WAT     H171405   8.159   3.147   8.070
23721WAT     H271406   8.192   3.030   7.961
23722WAT      O71407   3.566   4.964   4.754
23722WAT     H171408   3.479   5.004   4.783
23722WAT     H271409   3.618   5.032   4.702
23723WAT      O71410   1.737   8.303   8.893
23723WAT     H171411   1.645   8.341   8.880
23723WAT     H271412   1.741   8.212   8.852
23724WAT      O71413   5.599   3.504   8.694
23724WAT     H171414   5.635   3.428   8.748
23724WAT     H271415   5.628   3.591   8.733
23725WAT      O71416   5.506   9.085   5.874
23725WAT     H171417   5.459   9.148   5.812
23725WAT     H271418   5.470   9.097   5.967
23726WAT      O71419   9.341   4.090   9.613
23726WAT     H171420   9.433   4.050   9.610
23726WAT     H271421   9.300   4.084   9.523
23727WAT      O71422   5.009   4.212   3.750
23727WAT     H171423   4.967   4.123   3.734
23727WAT     H271424   5.084   4.203   3.816
23728WAT      O71425   8.760   7.302   3.031
23728WAT     H171426   8.785   7.397   3.009
23728WAT     H271427   8.699   7.267   2.960
23729WAT      O71428   9.285   2.703   2.070
23729WAT     H171429   9.329   2.651   2.143
23729WAT     H271430   9.220   2.644   2.021
23730WAT      O71431   2.012   0.503   9.360
23730WAT     H171432   2.012   0.538   9.454
23730WAT     H271433   2.096   0.451   9.345
23731WAT      O71434   9.695   6.313   5.253
23731WAT     H171435   9.698   6.413   5.244
23731WAT     H271436   9.755   6.272   5.184
23732WAT      O71437   6.922   3.239   8.984
23732WAT     H171438   6.853   3.187   8.934
23732WAT     H271439   6.891   3.333   8.996
23733WAT      O71440   7.013   2.179   7.802
23733WAT     H171441   7.106   2.160   7.832
23733WAT     H271442   7.014   2.251   7.732
23734WAT      O71443   9.105   0.272   8.758
23734WAT     H171444   9.073   0.184   8.724
23734WAT     H271445   9.195   0.261   8.800
23735WAT      O71446   2.145   8.393   6.966
23735WAT     H171447   2.092   8.474   6.990
23735WAT     H271448   2.088   8.312   6.972
23736WAT      O71449   6.102   3.870   0.732
23736WAT     H171450   6.129   3.819   0.650
23736WAT     H271451   6.154   3.836   0.810
23737WAT      O71452   0.481   2.705   7.961
23737WAT     H171453   0.391   2.663   7.953
23737WAT     H271454   0.544   2.640   8.004
23738WAT      O71455   5.878   2.398   3.403
23738WAT     H171456   5.867   2.401   3.303
23738WAT     H271457   5.889   2.303   3.431
23739WAT      O71458   5.207   0.760   1.810
23739WAT     H171459   5.125   0.804   1.775
23739WAT     H271460   5.220   0.673   1.763
23740WAT      O71461   8.054   9.749   6.138
23740WAT     H171462   8.064   9.654   6.110
23740WAT     H271463   8.116   9.769   6.213
23741WAT      O71464   5.414   9.301   3.393
23741WAT     H171465   5.512   9.284   3.390
23741WAT     H271466   5.379   9.317   3.301
23742WAT      O71467   8.835   5.171   2.843
23742WAT     H171468   8.827   5.237   2.768
23742WAT     H271469   8.855   5.219   2.928
23743WAT      O71470   6.074   7.816   7.870
23743WAT     H171471   6.039   7.722   7.862
23743WAT     H271472   6.004   7.880   7.839
23744WAT      O71473   0.598   4.155   5.352
23744WAT     H171474   0.691   4.184   5.373
23744WAT     H271475   0.601   4.071   5.297
23745WAT      O71476   0.433   8.362   2.245
23745WAT     H171477   0.516   8.306   2.239
23745WAT     H271478   0.440   8.439   2.181
23746WAT      O71479   4.598   0.867   8.660
23746WAT     H171480   4.555   0.957   8.663
23746WAT     H271481   4.645   0.850   8.747
23747WAT      O71482   6.514   1.727   0.366
23747WAT     H171483   6.591   1.679   0.409
23747WAT     H271484   6.447   1.750   0.436
23748WAT      O71485   8.939   8.727   1.775
23748WAT     H171486   8.940   8.632   1.806
23748WAT     H271487   8.947   8.729   1.675
23749WAT      O71488   0.333   4.747   2.782
23749WAT     H171489   0.420   4.725   2.825
23749WAT     H271490   0.290   4.663   2.750
23750WAT      O71491   5.740   2.894   1.504
23750WAT     H171492   5.648   2.928   1.482
23750WAT     H271493   5.734   2.834   1.584
23751WAT      O71494   3.130   4.137   3.217
23751WAT     H171495   3.090   4.189   3.292
23751WAT     H271496   3.181   4.199   3.157
23752WAT      O71497   8.887   9.088   0.538
23752WAT     H171498   8.871   9.174   0.587
23752WAT     H271499   8.982   9.084   0.508
23753WAT      O71500   6.630   0.923   4.802
23753WAT     H171501   6.655   0.985   4.728
23753WAT     H271502   6.713   0.894   4.850
23754WAT      O71503   7.831   0.666   0.076
23754WAT     H171504   7.817   0.567   0.071
23754WAT     H271505   7.925   0.688   0.052
23755WAT      O71506   1.414   6.909   1.283
23755WAT     H171507   1.352   6.831   1.276
23755WAT     H271508   1.407   6.964   1.200
23756WAT      O71509   5.867   2.931   0.192
23756WAT     H171510   5.925   2.988   0.132
23756WAT     H271511   5.798   2.989   0.236
23757WAT      O71512   0.509   2.683   5.272
23757WAT     H171513   0.415   2.716   5.257
23757WAT     H271514   0.535   2.699   5.367
23758WAT      O71515   5.205   7.825   7.955
23758WAT     H171516   5.172   7.732   7.971
23758WAT     H271517   5.285   7.842   8.011
23759WAT      O71518   5.682   8.697   5.342
23759WAT     H171519   5.720   8.700   5.249
23759WAT     H271520   5.743   8.643   5.400
23760WAT      O71521   4.146   5.118   7.484
23760WAT     H171522   4.154   5.058   7.564
23760WAT     H271523   4.054   5.113   7.447
23761WAT      O71524   7.853   8.724   3.148
23761WAT     H171525   7.919   8.686   3.213
23761WAT     H271526   7.866   8.681   3.058
23762WAT      O71527   9.013   0.783   9.247
23762WAT     H171528   9.108   0.798   9.222
23762WAT     H271529   9.004   0.698   9.299
23763WAT      O71530   4.664   0.534   5.749
23763WAT     H171531   4.666   0.578   5.660
23763WAT     H271532   4.606   0.453   5.745
23764WAT      O71533   4.940   7.896   1.673
23764WAT     H171534   4.912   7.912   1.767
23764WAT     H271535   5.040   7.888   1.668
23765WAT      O71536   5.060   4.968   0.566
23765WAT     H171537   4.969   4.928   0.575
23765WAT     H271538   5.106   4.966   0.655
23766WAT      O71539   9.068   9.726   0.547
23766WAT     H171540   8.981   9.744   0.593
23766WAT     H271541   9.114   9.813   0.528
23767WAT      O71542   5.910   6.590   6.873
23767WAT     H171543   5.828   6.603   6.818
23767WAT     H271544   5.978   6.539   6.820
23768WAT      O71545   2.304   4.160   3.486
23768WAT     H171546   2.393   4.143   3.445
23768WAT     H271547   2.285   4.088   3.554
23769WAT      O71548   4.811   0.799   1.244
23769WAT     H171549   4.908   0.778   1.236
23769WAT     H271550   4.772   0.747   1.320
23770WAT      O71551   6.630   9.365   8.366
23770WAT     H171552   6.677   9.277   8.365
23770WAT     H271553   6.562   9.367   8.293
23771WAT      O71554   2.392   5.020   7.825
23771WAT     H171555   2.302   5.000   7.787
23771WAT     H271556   2.463   4.992   7.759
23772WAT      O71557   6.251   4.231   9.260
23772WAT     H171558   6.308   4.312   9.254
23772WAT     H271559   6.215   4.207   9.170
23773WAT      O71560   9.570   1.355   3.703
23773WAT     H171561   9.573   1.327   3.799
23773WAT     H271562   9.475   1.353   3.671
23774WAT      O71563   6.314   2.765   7.791
23774WAT     H171564   6.302   2.684   7.847
23774WAT     H271565   6.343   2.738   7.699
23775WAT      O71566   1.513   5.094   8.921
23775WAT     H171567   1.558   5.183   8.922
23775WAT     H271568   1.532   5.048   8.835
23776WAT      O71569   9.463   5.452   4.699
23776WAT     H171570   9.471   5.444   4.600
23776WAT     H271571   9.509   5.536   4.729
23777WAT      O71572   7.339   6.543   9.118
23777WAT     H171573   7.251   6.591   9.113
23777WAT     H271574   7.401   6.581   9.050
23778WAT      O71575   5.978   6.416   5.460
23778WAT     H171576   6.058   6.360   5.439
23778WAT     H271577   5.996   6.511   5.433
23779WAT      O71578   2.423   2.545   6.419
23779WAT     H171579   2.396   2.599   6.499
23779WAT     H271580   2.362   2.566   6.342
23780WAT      O71581   8.188   8.445   8.782
23780WAT     H171582   8.116   8.479   8.842
23780WAT     H271583   8.227   8.521   8.730
23781WAT      O71584   2.763   7.406   1.499
23781WAT     H171585   2.754   7.480   1.432
23781WAT     H271586   2.853   7.363   1.489
23782WAT      O71587   0.342   2.920   1.263
23782WAT     H171588   0.261   2.935   1.320
23782WAT     H271589   0.319   2.859   1.187
23783WAT      O71590   0.673   2.962   1.158
23783WAT     H171591   0.624   3.049   1.160
23783WAT     H271592   0.628   2.900   1.093
23784WAT      O71593   5.052   3.287   6.568
23784WAT     H171594   5.145   3.302   6.602
23784WAT     H271595   4.986   3.308   6.640
23785WAT      O71596   1.630   7.368   6.299
23785WAT     H171597   1.695   7.368   6.222
23785WAT     H271598   1.681   7.369   6.385
23786WAT      O71599   0.155   8.980   0.107
23786WAT     H171600   0.055   8.983   0.106
23786WAT     H271601   0.190   9.055   0.051
23787WAT      O71602   8.666   1.235   6.262
23787WAT     H171603   8.630   1.204   6.351
23787WAT     H271604   8.606   1.203   6.189
23788WAT      O71605   3.991   3.166   6.563
23788WAT     H171606   3.980   3.070   6.588
23788WAT     H271607   3.902   3.205   6.541
23789WAT      O71608   1.811   6.015   5.082
23789WAT     H171609   1.712   6.027   5.070
23789WAT     H271610   1.832   6.011   5.180
23790WAT      O71611   3.846   4.265   0.799
23790WAT     H171612   3.875   4.244   0.893
23790WAT     H271613   3.914   4.229   0.735
23791WAT      O71614   5.905   2.305   6.979
23791WAT     H171615   5.855   2.227   7.019
23791WAT     H271616   5.938   2.280   6.888
23792WAT      O71617   7.800   7.482   1.899
23792WAT     H171618   7.833   7.394   1.935
23792WAT     H271619   7.812   7.553   1.967
23793WAT      O71620   9.679   8.700   9.046
23793WAT     H171621   9.747   8.632   9.017
23793WAT     H271622   9.688   8.782   8.988
23794WAT      O71623   4.212   0.320   6.575
23794WAT     H171624   4.145   0.395   6.568
23794WAT     H271625   4.304   0.357   6.570
23795WAT      O71626   9.148   4.006   8.106
23795WAT     H171627   9.186   3.915   8.125
23795WAT     H271628   9.190   4.073   8.167
23796WAT      O71629   3.119   5.057   3.213
23796WAT     H171630   3.139   4.984   3.148
23796WAT     H271631   3.193   5.125   3.210
23797WAT      O71632   6.001   9.578   4.489
23797WAT     H171633   5.980   9.663   4.538
23797WAT     H271634   6.076   9.595   4.425
23798WAT      O71635   6.374   2.927   8.657
23798WAT     H171636   6.372   2.834   8.620
23798WAT     H271637   6.394   2.924   8.755
23799WAT      O71638   2.164   1.511   2.045
23799WAT     H171639   2.211   1.555   1.969
23799WAT     H271640   2.192   1.555   2.131
23800WAT      O71641   0.308   2.955   8.476
23800WAT     H171642   0.224   2.926   8.430
23800WAT     H271643   0.328   2.891   8.551
23801WAT      O71644   2.765   0.861   5.359
23801WAT     H171645   2.698   0.935   5.363
23801WAT     H271646   2.753   0.810   5.274
23802WAT      O71647   6.793   7.242   9.545
23802WAT     H171648   6.863   7.182   9.506
23802WAT     H271649   6.832   7.332   9.562
23803WAT      O71650   7.115   0.133   2.082
23803WAT     H171651   7.205   0.113   2.121
23803WAT     H271652   7.123   0.203   2.011
23804WAT      O71653   6.823   2.571   4.118
23804WAT     H171654   6.799   2.511   4.042
23804WAT     H271655   6.836   2.516   4.201
23805WAT      O71656   8.816   5.339   3.371
23805WAT     H171657   8.767   5.422   3.397
23805WAT     H271658   8.870   5.307   3.450
23806WAT      O71659   5.058   6.056   8.691
23806WAT     H171660   4.985   6.104   8.739
23806WAT     H271661   5.125   6.022   8.758
23807WAT      O71662   2.106   8.858   9.453
23807WAT     H171663   2.172   8.821   9.519
23807WAT     H271664   2.136   8.835   9.360
23808WAT      O71665   6.671   9.596   3.217
23808WAT     H171666   6.588   9.631   3.260
23808WAT     H271667   6.663   9.497   3.205
23809WAT      O71668   3.001   8.553   1.258
23809WAT     H171669   3.081   8.507   1.219
23809WAT     H271670   2.921   8.493   1.250
23810WAT      O71671   2.263   7.664   8.561
23810WAT     H171672   2.314   7.614   8.631
23810WAT     H271673   2.324   7.684   8.484
23811WAT      O71674   9.810   0.186   0.375
23811WAT     H171675   9.824   0.264   0.313
23811WAT     H271676   9.877   0.116   0.355
23812WAT      O71677   4.561   3.735   0.778
23812WAT     H171678   4.569   3.721   0.877
23812WAT     H271679   4.568   3.832   0.758
23813WAT      O71680   1.703   8.749   2.845
23813WAT     H171681   1.712   8.703   2.933
23813WAT     H271682   1.693   8.847   2.860
23814WAT      O71683   9.143   9.242   6.867
23814WAT     H171684   9.122   9.216   6.773
23814WAT     H271685   9.071   9.302   6.902
23815WAT      O71686   6.494   5.816   9.328
23815WAT     H171687   6.556   5.872   9.383
23815WAT     H271688   6.433   5.875   9.275
23816WAT      O71689   6.626   2.444   6.633
23816WAT     H171690   6.700   2.429   6.567
23816WAT     H271691   6.664   2.449   6.726
23817WAT      O71692   1.380   7.086   5.305
23817WAT     H171693   1.290   7.126   5.287
23817WAT     H271694   1.424   7.136   5.380
23818WAT      O71695   4.905   3.103   6.828
23818WAT     H171696   4.857   3.067   6.907
23818WAT     H271697   4.844   3.161   6.775
23819WAT      O71698   7.634   2.901   6.768
23819WAT     H171699   7.588   2.875   6.853
23819WAT     H271700   7.661   2.819   6.718
23820WAT      O71701   6.675   7.426   4.160
23820WAT     H171702   6.656   7.522   4.137
23820WAT     H271703   6.721   7.422   4.248
23821WAT      O71704   3.736   0.865   2.573
23821WAT     H171705   3.649   0.878   2.525
23821WAT     H271706   3.787   0.792   2.528
23822WAT      O71707   5.512   4.429   8.639
23822WAT     H171708   5.567   4.500   8.594
23822WAT     H271709   5.556   4.403   8.725
23823WAT      O71710   8.590   8.292   8.146
23823WAT     H171711   8.606   8.264   8.051
23823WAT     H271712   8.497   8.268   8.173
23824WAT      O71713   3.721   8.568   2.818
23824WAT     H171714   3.677   8.654   2.792
23824WAT     H271715   3.722   8.506   2.739
23825WAT      O71716   6.697   6.095   7.427
23825WAT     H171717   6.669   6.017   7.482
23825WAT     H271718   6.713   6.065   7.332
23826WAT      O71719   0.188   9.127   8.807
23826WAT     H171720   0.259   9.171   8.861
23826WAT     H271721   0.125   9.196   8.772
23827WAT      O71722   1.712   7.945   0.478
23827WAT     H171723   1.748   7.987   0.394
23827WAT     H271724   1.660   7.864   0.454
23828WAT      O71725   6.482   6.952   6.882
23828WAT     H171726   6.516   6.873   6.931
23828WAT     H271727   6.558   7.014   6.861
23829WAT      O71728   6.625   5.631   3.586
23829WAT     H171729   6.615   5.686   3.503
23829WAT     H271730   6.616   5.689   3.667
23830WAT      O71731   3.161   8.073   3.221
23830WAT     H171732   3.217   7.999   3.258
23830WAT     H271733   3.101   8.037   3.149
23831WAT      O71734   8.696   8.800   8.409
23831WAT     H171735   8.753   8.829   8.486
23831WAT     H271736   8.751   8.747   8.345
23832WAT      O71737   1.021   1.759   5.663
23832WAT     H171738   1.057   1.829   5.602
23832WAT     H271739   1.064   1.767   5.753
23833WAT      O71740   6.788   2.839   3.482
23833WAT     H171741   6.770   2.741   3.479
23833WAT     H271742   6.702   2.889   3.488
23834WAT      O71743   6.587   8.618   4.016
23834WAT     H171744   6.630   8.706   3.996
23834WAT     H271745   6.536   8.624   4.101
23835WAT      O71746   0.424   6.075   9.681
23835WAT     H171747   0.342   6.115   9.721
23835WAT     H271748   0.467   6.013   9.748
23836WAT      O71749   1.511   0.045   0.265
23836WAT     H171750   1.535  -0.039   0.215
23836WAT     H271751   1.594   0.098   0.283
23837WAT      O71752   0.356   5.908   3.962
23837WAT     H171753   0.303   5.826   3.941
23837WAT     H271754   0.295   5.987   3.970
23838WAT      O71755   3.204   3.103   5.996
23838WAT     H171756   3.283   3.163   5.983
23838WAT     H271757   3.150   3.101   5.912
23839WAT      O71758   1.083   0.498   0.372
23839WAT     H171759   1.104   0.433   0.299
23839WAT     H271760   1.168   0.531   0.412
23840WAT      O71761   4.888   0.199   5.078
23840WAT     H171762   4.914   0.291   5.046
23840WAT     H271763   4.937   0.179   5.163
23841WAT      O71764   5.171   1.704   8.017
23841WAT     H171765   5.075   1.694   8.041
23841WAT     H271766   5.179   1.766   7.939
23842WAT      O71767   8.420   1.057   4.332
23842WAT     H171768   8.468   1.046   4.245
23842WAT     H271769   8.463   1.130   4.385
23843WAT      O71770   7.604   6.592   2.572
23843WAT     H171771   7.598   6.691   2.582
23843WAT     H271772   7.682   6.558   2.624
23844WAT      O71773   9.477   2.501   3.511
23844WAT     H171774   9.444   2.582   3.461
23844WAT     H271775   9.570   2.479   3.481
23845WAT      O71776   7.639   6.314   0.849
23845WAT     H171777   7.626   6.227   0.802
23845WAT     H271778   7.636   6.389   0.782
23846WAT      O71779   7.231   7.284   4.867
23846WAT     H171780   7.251   7.361   4.927
23846WAT     H271781   7.136   7.288   4.837
23847WAT      O71782   8.996   7.570   1.069
23847WAT     H171783   8.988   7.612   0.979
23847WAT     H271784   9.080   7.515   1.073
23848WAT      O71785   2.317   0.585   8.854
23848WAT     H171786   2.220   0.579   8.831
23848WAT     H271787   2.367   0.510   8.811
23849WAT      O71788   2.223   1.771   7.253
23849WAT     H171789   2.281   1.807   7.325
23849WAT     H271790   2.176   1.689   7.286
23850WAT      O71791   2.344   9.046   3.374
23850WAT     H171792   2.372   8.957   3.410
23850WAT     H271793   2.353   9.115   3.446
23851WAT      O71794   9.025   9.291   5.518
23851WAT     H171795   9.043   9.316   5.613
23851WAT     H271796   8.968   9.209   5.515
23852WAT      O71797   5.260   4.495   8.755
23852WAT     H171798   5.214   4.413   8.790
23852WAT     H271799   5.333   4.468   8.692
23853WAT      O71800   8.730   1.228   0.673
23853WAT     H171801   8.777   1.288   0.738
23853WAT     H271802   8.653   1.278   0.632
23854WAT      O71803   7.501   4.250   2.372
23854WAT     H171804   7.496   4.250   2.272
23854WAT     H271805   7.414   4.278   2.410
23855WAT      O71806   4.462   3.020   3.178
23855WAT     H171807   4.363   3.026   3.187
23855WAT     H271808   4.487   2.926   3.152
23856WAT      O71809   0.018   6.813   6.229
23856WAT     H171810   0.067   6.784   6.311
23856WAT     H271811  -0.076   6.778   6.232
23857WAT      O71812   3.657   7.175   2.917
23857WAT     H171813   3.669   7.104   2.848
23857WAT     H271814   3.677   7.137   3.007
23858WAT      O71815   5.335   6.245   5.872
23858WAT     H171816   5.320   6.340   5.898
23858WAT     H271817   5.274   6.220   5.797
23859WAT      O71818   3.518   6.017   3.333
23859WAT     H171819   3.432   6.062   3.354
23859WAT     H271820   3.507   5.918   3.342
23860WAT      O71821   9.695   9.345   3.315
23860WAT     H171822   9.669   9.369   3.408
23860WAT     H271823   9.681   9.424   3.255
23861WAT      O71824   9.044   3.072   7.690
23861WAT     H171825   8.952   3.075   7.728
23861WAT     H271826   9.052   2.992   7.630
23862WAT      O71827   6.622   5.636   3.216
23862WAT     H171828   6.550   5.593   3.162
23862WAT     H271829   6.696   5.571   3.231
23863WAT      O71830   3.496   4.984   8.285
23863WAT     H171831   3.413   5.038   8.295
23863WAT     H271832   3.502   4.917   8.359
23864WAT      O71833   5.410   3.542   1.833
23864WAT     H171834   5.391   3.608   1.905
23864WAT     H271835   5.458   3.463   1.872
23865WAT      O71836   3.718   0.501   5.090
23865WAT     H171837   3.775   0.420   5.086
23865WAT     H271838   3.713   0.543   4.999
23866WAT      O71839   2.031   6.743   0.889
23866WAT     H171840   2.012   6.830   0.935
23866WAT     H271841   2.099   6.691   0.942
23867WAT      O71842   1.089   1.990   6.696
23867WAT     H171843   1.156   2.057   6.725
23867WAT     H271844   1.121   1.943   6.613
23868WAT      O71845   7.050   7.796   2.404
23868WAT     H171846   7.110   7.732   2.355
23868WAT     H271847   7.063   7.888   2.366
23869WAT      O71848   1.142   7.641   7.154
23869WAT     H171849   1.204   7.610   7.081
23869WAT     H271850   1.056   7.590   7.148
23870WAT      O71851   0.222   6.076   5.722
23870WAT     H171852   0.297   6.136   5.694
23870WAT     H271853   0.135   6.115   5.693
23871WAT      O71854   6.379   6.785   4.612
23871WAT     H171855   6.332   6.771   4.699
23871WAT     H271856   6.385   6.882   4.592
23872WAT      O71857   4.722   1.668   0.410
23872WAT     H171858   4.731   1.573   0.441
23872WAT     H271859   4.767   1.677   0.321
23873WAT      O71860   2.548   9.151   1.164
23873WAT     H171861   2.527   9.077   1.100
23873WAT     H271862   2.636   9.191   1.141
23874WAT      O71863   0.251   6.814   3.119
23874WAT     H171864   0.164   6.804   3.167
23874WAT     H271865   0.326   6.794   3.182
23875WAT      O71866   8.526   8.204   5.996
23875WAT     H171867   8.448   8.263   6.018
23875WAT     H271868   8.518   8.172   5.901
23876WAT      O71869   1.707   8.543   4.896
23876WAT     H171870   1.760   8.620   4.931
23876WAT     H271871   1.769   8.469   4.869
23877WAT      O71872   6.839   2.190   2.176
23877WAT     H171873   6.860   2.285   2.198
23877WAT     H271874   6.748   2.167   2.213
23878WAT      O71875   3.766   6.464   7.362
23878WAT     H171876   3.758   6.465   7.262
23878WAT     H271877   3.854   6.502   7.389
23879WAT      O71878   1.111   6.150   8.023
23879WAT     H171879   1.202   6.178   7.993
23879WAT     H271880   1.057   6.123   7.943
23880WAT      O71881   8.710   0.155   8.414
23880WAT     H171882   8.689   0.059   8.397
23880WAT     H271883   8.650   0.213   8.359
23881WAT      O71884   0.236   5.207   7.326
23881WAT     H171885   0.151   5.177   7.284
23881WAT     H271886   0.302   5.229   7.254
23882WAT      O71887   9.415   5.343   6.991
23882WAT     H171888   9.421   5.443   6.996
23882WAT     H271889   9.377   5.308   7.077
23883WAT      O71890   2.620   0.946   9.569
23883WAT     H171891   2.648   0.955   9.664
23883WAT     H271892   2.611   0.849   9.545
23884WAT      O71893   9.227   1.913   3.633
23884WAT     H171894   9.185   1.983   3.690
23884WAT     H271895   9.269   1.843   3.691
23885WAT      O71896   9.612   4.495   0.065
23885WAT     H171897   9.669   4.503   0.147
23885WAT     H271898   9.669   4.501  -0.017
23886WAT      O71899   1.026   4.544   0.840
23886WAT     H171900   1.020   4.559   0.939
23886WAT     H271901   1.018   4.631   0.792
23887WAT      O71902   5.007   7.992   2.214
23887WAT     H171903   4.913   8.026   2.205
23887WAT     H271904   5.013   7.930   2.292
23888WAT      O71905   6.938   6.550   8.025
23888WAT     H171906   7.026   6.547   8.073
23888WAT     H271907   6.932   6.472   7.963
23889WAT      O71908   8.554   2.793   1.695
23889WAT     H171909   8.583   2.820   1.603
23889WAT     H271910   8.591   2.857   1.762
23890WAT      O71911   7.435   2.364   0.400
23890WAT     H171912   7.391   2.275   0.392
23890WAT     H271913   7.410   2.407   0.486
23891WAT      O71914   4.767   5.579   2.958
23891WAT     H171915   4.678   5.591   2.914
23891WAT     H271916   4.759   5.511   3.032
23892WAT      O71917   2.063   9.483   5.050
23892WAT     H171918   2.153   9.441   5.037
23892WAT     H271919   2.001   9.416   5.091
23893WAT      O71920   7.736   7.264   8.372
23893WAT     H171921   7.728   7.173   8.413
23893WAT     H271922   7.688   7.331   8.430
23894WAT      O71923   9.169   2.551   4.271
23894WAT     H171924   9.230   2.626   4.297
23894WAT     H271925   9.205   2.465   4.306
23895WAT      O71926   9.203   2.122   1.666
23895WAT     H171927   9.125   2.072   1.703
23895WAT     H271928   9.263   2.059   1.616
23896WAT      O71929   6.434   4.280   9.808
23896WAT     H171930   6.434   4.189   9.850
23896WAT     H271931   6.408   4.272   9.712
23897WAT      O71932   6.045   8.008   2.144
23897WAT     H171933   6.069   7.951   2.066
23897WAT     H271934   6.029   7.951   2.224
23898WAT      O71935   3.731   1.084   1.640
23898WAT     H171936   3.657   1.069   1.706
23898WAT     H271937   3.741   1.182   1.622
23899WAT      O71938   3.117   2.663   7.790
23899WAT     H171939   3.150   2.625   7.703
23899WAT     H271940   3.154   2.610   7.866
23900WAT      O71941   1.592   9.015   3.233
23900WAT     H171942   1.683   8.974   3.231
23900WAT     H271943   1.599   9.111   3.262
23901WAT      O71944   3.713   6.517   6.801
23901WAT     H171945   3.778   6.572   6.749
23901WAT     H271946   3.761   6.442   6.847
23902WAT      O71947   5.658   8.295   7.163
23902WAT     H171948   5.576   8.347   7.140
23902WAT     H271949   5.735   8.358   7.173
23903WAT      O71950   3.981   2.936   4.887
23903WAT     H171951   3.942   2.882   4.962
23903WAT     H271952   4.002   2.876   4.810
23904WAT      O71953   5.483   9.815   6.368
23904WAT     H171954   5.471   9.859   6.280
23904WAT     H271955   5.556   9.747   6.362
23905WAT      O71956   3.484   7.298   3.275
23905WAT     H171957   3.458   7.358   3.199
23905WAT     H271958   3.568   7.249   3.251
23906WAT      O71959   8.898   1.181   4.699
23906WAT     H171960   8.807   1.168   4.739
23906WAT     H271961   8.943   1.259   4.744
23907WAT      O71962   2.002   1.137   1.217
23907WAT     H171963   1.974   1.233   1.212
23907WAT     H271964   1.996   1.106   1.312
23908WAT      O71965   8.445   9.366   1.776
23908WAT     H171966   8.482   9.458   1.768
23908WAT     H271967   8.457   9.333   1.869
23909WAT      O71968   9.766   2.842   3.707
23909WAT     H171969   9.809   2.832   3.797
23909WAT     H271970   9.801   2.925   3.663
23910WAT      O71971   9.720   9.029   0.665
23910WAT     H171972   9.817   9.045   0.645
23910WAT     H271973   9.672   9.005   0.581
23911WAT      O71974   4.344   8.095   9.113
23911WAT     H171975   4.443   8.095   9.101
23911WAT     H271976   4.316   8.180   9.159
23912WAT      O71977   8.313   0.480   4.822
23912WAT     H171978   8.294   0.561   4.877
23912WAT     H271979   8.341   0.508   4.730
23913WAT      O71980   2.522   5.428   5.740
23913WAT     H171981   2.471   5.513   5.723
23913WAT     H271982   2.524   5.373   5.657
23914WAT      O71983   1.918   4.883   0.538
23914WAT     H171984   1.981   4.944   0.586
23914WAT     H271985   1.831   4.929   0.522
23915WAT      O71986   0.445   5.812   4.201
23915WAT     H171987   0.430   5.856   4.113
23915WAT     H271988   0.444   5.713   4.189
23916WAT      O71989   7.922   7.109   7.562
23916WAT     H171990   7.889   7.036   7.622
23916WAT     H271991   8.014   7.137   7.591
23917WAT      O71992   0.774   0.446   3.634
23917WAT     H171993   0.782   0.519   3.566
23917WAT     H271994   0.692   0.461   3.689
23918WAT      O71995   9.152   5.822   4.105
23918WAT     H171996   9.076   5.887   4.115
23918WAT     H271997   9.195   5.809   4.194
23919WAT      O71998   2.821   3.450   8.404
23919WAT     H171999   2.748   3.480   8.465
23919WAT     H272000   2.888   3.397   8.456
23920WAT      O72001   0.384   0.335   2.896
23920WAT     H172002   0.387   0.282   2.981
23920WAT     H272003   0.290   0.361   2.875
23921WAT      O72004   5.193   4.840   2.253
23921WAT     H172005   5.103   4.883   2.263
23921WAT     H272006   5.262   4.895   2.300
23922WAT      O72007   9.431   2.313   0.925
23922WAT     H172008   9.439   2.295   1.023
23922WAT     H272009   9.428   2.226   0.875
23923WAT      O72010   0.305   1.240   6.204
23923WAT     H172011   0.347   1.324   6.169
23923WAT     H272012   0.206   1.250   6.208
23924WAT      O72013   6.155   2.331   3.782
23924WAT     H172014   6.174   2.390   3.704
23924WAT     H272015   6.240   2.315   3.833
23925WAT      O72016   2.280   8.691   2.510
23925WAT     H172017   2.283   8.685   2.410
23925WAT     H272018   2.370   8.666   2.547
23926WAT      O72019   5.598   9.288   8.584
23926WAT     H172020   5.610   9.327   8.675
23926WAT     H272021   5.685   9.290   8.535
23927WAT      O72022   0.410   7.336   6.508
23927WAT     H172023   0.331   7.377   6.553
23927WAT     H272024   0.379   7.277   6.434
23928WAT      O72025   5.225   2.462   7.531
23928WAT     H172026   5.221   2.373   7.577
23928WAT     H272027   5.320   2.494   7.529
23929WAT      O72028   0.891   2.340   3.486
23929WAT     H172029   0.828   2.344   3.564
23929WAT     H272030   0.907   2.245   3.462
23930WAT      O72031   3.850   3.456   8.191
23930WAT     H172032   3.918   3.427   8.258
23930WAT     H272033   3.897   3.484   8.107
23931WAT      O72034   0.373   9.050   8.066
23931WAT     H172035   0.345   9.143   8.088
23931WAT     H272036   0.448   9.022   8.126
23932WAT      O72037   8.843   9.239   9.491
23932WAT     H172038   8.914   9.196   9.436
23932WAT     H272039   8.755   9.228   9.447
23933WAT      O72040   2.637   7.501   9.618
23933WAT     H172041   2.590   7.422   9.580
23933WAT     H272042   2.679   7.554   9.544
23934WAT      O72043   5.682   1.483   2.197
23934WAT     H172044   5.711   1.577   2.213
23934WAT     H272045   5.735   1.421   2.255
23935WAT      O72046   3.741   0.756   6.883
23935WAT     H172047   3.684   0.821   6.932
23935WAT     H272048   3.836   0.767   6.910
23936WAT      O72049   4.363   0.897   1.679
23936WAT     H172050   4.455   0.862   1.661
23936WAT     H272051   4.353   0.988   1.638
23937WAT      O72052   3.003   9.295   5.915
23937WAT     H172053   2.912   9.334   5.926
23937WAT     H272054   3.046   9.333   5.833
23938WAT      O72055   4.147   2.931   7.970
23938WAT     H172056   4.125   2.855   8.030
23938WAT     H272057   4.128   3.017   8.017
23939WAT      O72058   0.121   2.085   8.256
23939WAT     H172059   0.035   2.131   8.282
23939WAT     H272060   0.185   2.153   8.221
23940WAT      O72061   6.976   9.567   7.219
23940WAT     H172062   6.904   9.555   7.287
23940WAT     H272063   6.951   9.638   7.154
23941WAT      O72064   4.650   3.037   6.330
23941WAT     H172065   4.689   3.037   6.238
23941WAT     H272066   4.719   3.071   6.394
23942WAT      O72067   7.821   1.313   6.820
23942WAT     H172068   7.895   1.323   6.753
23942WAT     H272069   7.827   1.386   6.888
23943WAT      O72070   8.962   0.083   1.459
23943WAT     H172071   8.972   0.176   1.423
23943WAT     H272072   8.881   0.079   1.517
23944WAT      O72073   7.623   1.662   6.766
23944WAT     H172074   7.546   1.598   6.774
23944WAT     H272075   7.664   1.653   6.675
23945WAT      O72076   6.274   2.118   5.093
23945WAT     H172077   6.319   2.029   5.088
23945WAT     H272078   6.342   2.189   5.110
23946WAT      O72079   7.477   6.267   4.341
23946WAT     H172080   7.535   6.203   4.391
23946WAT     H272081   7.476   6.355   4.389
23947WAT      O72082   0.879   5.719   6.293
23947WAT     H172083   0.838   5.809   6.302
23947WAT     H272084   0.848   5.675   6.209
23948WAT      O72085   9.343   4.891   7.982
23948WAT     H172086   9.264   4.831   7.974
23948WAT     H272087   9.406   4.873   7.906
23949WAT      O72088   6.881   0.790   7.219
23949WAT     H172089   6.904   0.791   7.316
23949WAT     H272090   6.961   0.816   7.166
23950WAT      O72091   7.593   1.749   1.049
23950WAT     H172092   7.586   1.693   1.131
23950WAT     H272093   7.520   1.817   1.048
23951WAT      O72094   3.698   8.309   5.838
23951WAT     H172095   3.762   8.357   5.777
23951WAT     H272096   3.684   8.364   5.921
23952WAT      O72097   8.571   7.407   8.298
23952WAT     H172098   8.668   7.423   8.279
23952WAT     H272099   8.521   7.494   8.292
23953WAT      O72100   3.017   8.774   6.644
23953WAT     H172101   3.039   8.723   6.728
23953WAT     H272102   3.100   8.785   6.590
23954WAT      O72103   1.288   1.497   8.962
23954WAT     H172104   1.233   1.419   8.931
23954WAT     H272105   1.314   1.553   8.884
23955WAT      O72106   3.996   7.313   6.588
23955WAT     H172107   4.088   7.302   6.551
23955WAT     H272108   3.988   7.264   6.675
23956WAT      O72109   7.281   2.300   5.836
23956WAT     H172110   7.257   2.374   5.773
23956WAT     H272111   7.261   2.327   5.930
23957WAT      O72112   1.577   5.132   3.900
23957WAT     H172113   1.517   5.206   3.931
23957WAT     H272114   1.661   5.171   3.864
23958WAT      O72115   4.286   4.639   3.316
23958WAT     H172116   4.378   4.676   3.328
23958WAT     H272117   4.224   4.712   3.287
23959WAT      O72118   9.804   6.537   3.020
23959WAT     H172119   9.747   6.503   2.945
23959WAT     H272120   9.900   6.513   3.003
23960WAT      O72121   3.356   4.171   4.351
23960WAT     H172122   3.417   4.103   4.391
23960WAT     H272123   3.265   4.131   4.339
23961WAT      O72124   8.953   2.522   6.561
23961WAT     H172125   8.973   2.612   6.523
23961WAT     H272126   8.856   2.516   6.585
23962WAT      O72127   1.236   6.635   1.967
23962WAT     H172128   1.193   6.712   2.015
23962WAT     H272129   1.318   6.667   1.920
23963WAT      O72130   6.273   3.446   6.693
23963WAT     H172131   6.213   3.400   6.628
23963WAT     H272132   6.369   3.427   6.669
23964WAT      O72133   4.018   6.904   7.705
23964WAT     H172134   3.975   6.994   7.715
23964WAT     H272135   4.052   6.894   7.611
23965WAT      O72136   4.760   8.430   8.090
23965WAT     H172137   4.720   8.341   8.109
23965WAT     H272138   4.793   8.432   7.995
23966WAT      O72139   8.516   8.050   5.765
23966WAT     H172140   8.419   8.078   5.764
23966WAT     H272141   8.526   7.967   5.819
23967WAT      O72142   9.236   5.242   0.316
23967WAT     H172143   9.237   5.237   0.416
23967WAT     H272144   9.207   5.154   0.279
23968WAT      O72145   1.803   7.731   1.167
23968WAT     H172146   1.769   7.793   1.096
23968WAT     H272147   1.808   7.638   1.130
23969WAT      O72148   0.763   5.368   3.163
23969WAT     H172149   0.818   5.369   3.080
23969WAT     H272150   0.809   5.314   3.233
23970WAT      O72151   6.310   8.292   3.559
23970WAT     H172152   6.376   8.337   3.498
23970WAT     H272153   6.323   8.326   3.652
23971WAT      O72154   9.152   4.368   1.008
23971WAT     H172155   9.058   4.384   1.036
23971WAT     H272156   9.214   4.392   1.083
23972WAT      O72157   0.433   2.366   4.099
23972WAT     H172158   0.349   2.317   4.121
23972WAT     H272159   0.493   2.307   4.045
23973WAT      O72160   1.252   9.164   9.508
23973WAT     H172161   1.172   9.177   9.450
23973WAT     H272162   1.248   9.074   9.551
23974WAT      O72163   9.313   9.629   2.109
23974WAT     H172164   9.366   9.559   2.061
23974WAT     H272165   9.231   9.652   2.056
23975WAT      O72166   3.411   5.714   6.473
23975WAT     H172167   3.355   5.781   6.425
23975WAT     H272168   3.508   5.736   6.460
23976WAT      O72169   3.875   3.316   2.391
23976WAT     H172170   3.933   3.295   2.469
23976WAT     H272171   3.880   3.242   2.324
23977WAT      O72172   8.003   9.619   2.481
23977WAT     H172173   7.943   9.657   2.411
23977WAT     H272174   8.068   9.689   2.511
23978WAT      O72175   7.388   4.331   3.983
23978WAT     H172176   7.355   4.290   4.068
23978WAT     H272177   7.463   4.394   4.003
23979WAT      O72178   8.891   4.821   6.787
23979WAT     H172179   8.945   4.870   6.856
23979WAT     H272180   8.937   4.826   6.699
23980WAT      O72181   7.014   3.154   5.362
23980WAT     H172182   6.977   3.208   5.438
23980WAT     H272183   7.111   3.174   5.351
23981WAT      O72184   8.723   4.810   4.011
23981WAT     H172185   8.803   4.852   3.967
23981WAT     H272186   8.754   4.736   4.071
23982WAT      O72187   8.696   0.892   4.132
23982WAT     H172188   8.621   0.945   4.092
23982WAT     H272189   8.713   0.811   4.075
23983WAT      O72190   5.726   1.539   1.073
23983WAT     H172191   5.799   1.471   1.073
23983WAT     H272192   5.694   1.552   0.979
23984WAT      O72193   4.989   6.651   4.842
23984WAT     H172194   5.048   6.581   4.882
23984WAT     H272195   5.040   6.703   4.773
23985WAT      O72196   7.024   0.417   6.299
23985WAT     H172197   6.981   0.455   6.217
23985WAT     H272198   6.960   0.353   6.344
23986WAT      O72199   6.800   9.461   2.874
23986WAT     H172200   6.763   9.394   2.809
23986WAT     H272201   6.724   9.510   2.917
23987WAT      O72202   9.802   2.954   8.447
23987WAT     H172203   9.702   2.951   8.442
23987WAT     H272204   9.838   2.983   8.359
23988WAT      O72205   3.468   9.267   4.704
23988WAT     H172206   3.418   9.341   4.749
23988WAT     H272207   3.542   9.305   4.648
23989WAT      O72208   4.175   0.606   6.828
23989WAT     H172209   4.213   0.525   6.873
23989WAT     H272210   4.134   0.579   6.741
23990WAT      O72211   3.508   4.972   0.740
23990WAT     H172212   3.439   5.041   0.716
23990WAT     H272213   3.501   4.951   0.838
23991WAT      O72214   7.556   3.457   0.362
23991WAT     H172215   7.615   3.420   0.290
23991WAT     H272216   7.465   3.477   0.325
23992WAT      O72217   9.078   2.652   0.583
23992WAT     H172218   9.045   2.743   0.608
23992WAT     H272219   9.176   2.656   0.562
23993WAT      O72220   7.316   2.193   5.457
23993WAT     H172221   7.364   2.109   5.430
23993WAT     H272222   7.359   2.271   5.412
23994WAT      O72223   6.571   7.164   0.094
23994WAT     H172224   6.606   7.072   0.074
23994WAT     H272225   6.627   7.207   0.165
23995WAT      O72226   2.242   6.968   5.214
23995WAT     H172227   2.173   7.031   5.178
23995WAT     H272228   2.328   7.018   5.227
23996WAT      O72229   8.389   8.722   5.450
23996WAT     H172230   8.414   8.819   5.454
23996WAT     H272231   8.359   8.699   5.358
23997WAT      O72232   6.822   5.610   4.453
23997WAT     H172233   6.826   5.611   4.553
23997WAT     H272234   6.735   5.572   4.424
23998WAT      O72235   6.310   8.313   9.578
23998WAT     H172236   6.255   8.383   9.533
23998WAT     H272237   6.283   8.307   9.674
23999WAT      O72238   6.942   8.078   9.740
23999WAT     H172239   6.998   7.999   9.765
23999WAT     H272240   6.849   8.047   9.721
24000WAT      O72241   4.877   3.263   5.910
24000WAT     H172242   4.845   3.316   5.832
24000WAT     H272243   4.952   3.203   5.882
24001WAT      O72244   9.861   8.287   6.734
24001WAT     H172245   9.874   8.351   6.659
24001WAT     H272246   9.910   8.319   6.815
24002WAT      O72247   5.975   5.137   9.235
24002WAT     H172248   5.993   5.069   9.164
24002WAT     H272249   5.892   5.188   9.212
24003WAT      O72250   2.444   5.985   5.730
24003WAT     H172251   2.520   6.037   5.691
24003WAT     H272252   2.369   6.047   5.754
24004WAT      O72253   0.785   6.256   1.315
24004WAT     H172254   0.801   6.183   1.248
24004WAT     H272255   0.837   6.337   1.288
24005WAT      O72256   7.440   0.444   5.826
24005WAT     H172257   7.477   0.383   5.896
24005WAT     H272258   7.340   0.435   5.824
24006WAT      O72259   4.882   6.631   9.742
24006WAT     H172260   4.942   6.558   9.774
24006WAT     H272261   4.786   6.605   9.757
24007WAT      O72262   6.302   1.280   4.588
24007WAT     H172263   6.264   1.214   4.523
24007WAT     H272264   6.257   1.368   4.576
24008WAT      O72265   6.973   6.846   9.611
24008WAT     H172266   7.039   6.893   9.552
24008WAT     H272267   7.019   6.771   9.659
24009WAT      O72268   7.192   7.482   7.286
24009WAT     H172269   7.252   7.408   7.256
24009WAT     H272270   7.241   7.569   7.280
24010WAT      O72271   2.757   1.166   0.730
24010WAT     H172272   2.846   1.180   0.774
24010WAT     H272273   2.692   1.130   0.797
24011WAT      O72274   6.025   6.106   5.330
24011WAT     H172275   6.020   6.060   5.419
24011WAT     H272276   5.934   6.117   5.292
24012WAT      O72277   0.950   2.651   4.511
24012WAT     H172278   1.025   2.715   4.529
24012WAT     H272279   0.868   2.703   4.488
24013WAT      O72280   1.791   0.411   8.818
24013WAT     H172281   1.872   0.470   8.815
24013WAT     H272282   1.714   0.459   8.777
24014WAT      O72283   8.037   8.836   5.196
24014WAT     H172284   8.071   8.759   5.142
24014WAT     H272285   8.112   8.900   5.213
24015WAT      O72286   5.861   4.693   6.544
24015WAT     H172287   5.916   4.617   6.506
24015WAT     H272288   5.855   4.766   6.476
24016WAT      O72289   3.403   3.144   7.357
24016WAT     H172290   3.428   3.135   7.454
24016WAT     H272291   3.346   3.225   7.345
24017WAT      O72292   2.701   0.990   9.839
24017WAT     H172293   2.788   0.950   9.869
24017WAT     H272294   2.640   1.000   9.918
24018WAT      O72295   2.360   4.772   9.006
24018WAT     H172296   2.422   4.826   8.950
24018WAT     H272297   2.333   4.825   9.086
24019WAT      O72298   4.985   7.207   0.317
24019WAT     H172299   4.987   7.108   0.328
24019WAT     H272300   4.907   7.233   0.260
24020WAT      O72301   5.565   6.546   0.325
24020WAT     H172302   5.592   6.632   0.368
24020WAT     H272303   5.646   6.497   0.294
24021WAT      O72304   4.326   7.339   1.743
24021WAT     H172305   4.270   7.345   1.826
24021WAT     H272306   4.353   7.244   1.728
24022WAT      O72307   7.024   4.571   1.482
24022WAT     H172308   7.017   4.649   1.544
24022WAT     H272309   6.936   4.524   1.477
24023WAT      O72310   1.945   1.712   7.004
24023WAT     H172311   1.862   1.750   6.964
24023WAT     H272312   1.997   1.663   6.934
24024WAT      O72313   3.238   2.250   0.489
24024WAT     H172314   3.261   2.153   0.498
24024WAT     H272315   3.291   2.303   0.556
24025WAT      O72316   9.008   6.556   4.697
24025WAT     H172317   8.967   6.587   4.611
24025WAT     H272318   8.938   6.513   4.754
24026WAT      O72319   4.421   7.071   3.129
24026WAT     H172320   4.448   7.165   3.152
24026WAT     H272321   4.357   7.073   3.052
24027WAT      O72322   4.664   8.163   0.336
24027WAT     H172323   4.717   8.227   0.391
24027WAT     H272324   4.717   8.139   0.254
24028WAT      O72325   2.152   0.265   5.324
24028WAT     H172326   2.142   0.364   5.312
24028WAT     H272327   2.249   0.241   5.317
24029WAT      O72328   9.809   2.560   8.408
24029WAT     H172329   9.743   2.524   8.342
24029WAT     H272330   9.864   2.632   8.366
24030WAT      O72331   3.466   1.116   7.281
24030WAT     H172332   3.421   1.111   7.192
24030WAT     H272333   3.470   1.025   7.322
24031WAT      O72334   4.571   7.618   4.196
24031WAT     H172335   4.602   7.573   4.280
24031WAT     H272336   4.646   7.623   4.130
24032WAT      O72337   9.679   1.832   4.904
24032WAT     H172338   9.610   1.779   4.954
24032WAT     H272339   9.634   1.907   4.855
24033WAT      O72340   6.210   4.197   7.497
24033WAT     H172341   6.259   4.268   7.548
24033WAT     H272342   6.274   4.148   7.438
24034WAT      O72343   8.036   6.566   2.608
24034WAT     H172344   8.085   6.609   2.684
24034WAT     H272345   7.960   6.512   2.644
24035WAT      O72346   7.702   0.959   8.767
24035WAT     H172347   7.613   0.935   8.728
24035WAT     H272348   7.688   1.011   8.851
24036WAT      O72349   4.082   1.424   8.798
24036WAT     H172350   4.022   1.365   8.744
24036WAT     H272351   4.028   1.471   8.868
24037WAT      O72352   2.083   5.547   7.189
24037WAT     H172353   2.159   5.489   7.219
24037WAT     H272354   2.030   5.576   7.268
24038WAT      O72355   1.845   1.064   5.168
24038WAT     H172356   1.865   1.009   5.087
24038WAT     H272357   1.929   1.079   5.220
24039WAT      O72358   9.790   1.738   5.809
24039WAT     H172359   9.877   1.691   5.826
24039WAT     H272360   9.724   1.713   5.880
24040WAT      O72361   6.087   0.733   0.473
24040WAT     H172362   6.103   0.825   0.437
24040WAT     H272363   6.006   0.733   0.531
24041WAT      O72364   2.543   7.237   1.535
24041WAT     H172365   2.598   7.159   1.564
24041WAT     H272366   2.603   7.313   1.512
24042WAT      O72367   5.657   7.691   2.918
24042WAT     H172368   5.648   7.595   2.892
24042WAT     H272369   5.583   7.715   2.981
24043WAT      O72370   7.208   1.904   7.519
24043WAT     H172371   7.284   1.887   7.583
24043WAT     H272372   7.181   2.000   7.524
24044WAT      O72373   4.395   2.708   0.997
24044WAT     H172374   4.343   2.661   0.925
24044WAT     H272375   4.404   2.649   1.076
24045WAT      O72376   5.255   8.799   6.214
24045WAT     H172377   5.324   8.743   6.169
24045WAT     H272378   5.187   8.740   6.258
24046WAT      O72379   7.594   3.908   6.391
24046WAT     H172380   7.506   3.862   6.406
24046WAT     H272381   7.586   4.004   6.418
24047WAT      O72382   9.689   8.049   2.223
24047WAT     H172383   9.610   8.039   2.162
24047WAT     H272384   9.728   7.959   2.242
24048WAT      O72385   5.978   5.285   2.983
24048WAT     H172386   5.905   5.349   2.959
24048WAT     H272387   6.064   5.315   2.941
24049WAT      O72388   1.877   0.665   5.310
24049WAT     H172389   1.891   0.687   5.213
24049WAT     H272390   1.917   0.575   5.330
24050WAT      O72391   1.293   6.039   6.450
24050WAT     H172392   1.260   6.057   6.543
24050WAT     H272393   1.286   6.123   6.396
24051WAT      O72394   3.065   7.690   2.279
24051WAT     H172395   3.018   7.778   2.279
24051WAT     H272396   3.015   7.626   2.338
24052WAT      O72397   3.075   3.563   4.053
24052WAT     H172398   3.010   3.594   4.122
24052WAT     H272399   3.026   3.514   3.981
24053WAT      O72400   6.952   2.838   6.317
24053WAT     H172401   7.016   2.765   6.292
24053WAT     H272402   6.894   2.807   6.392
24054WAT      O72403   8.229   3.412   7.393
24054WAT     H172404   8.145   3.468   7.390
24054WAT     H272405   8.303   3.466   7.433
24055WAT      O72406   7.301   0.637   1.922
24055WAT     H172407   7.347   0.601   2.003
24055WAT     H272408   7.203   0.649   1.941
24056WAT      O72409   8.128   5.767   8.097
24056WAT     H172410   8.121   5.864   8.123
24056WAT     H272411   8.096   5.755   8.003
24057WAT      O72412   0.736   0.640   9.151
24057WAT     H172413   0.732   0.615   9.055
24057WAT     H272414   0.701   0.565   9.207
24058WAT      O72415   3.305   2.508   7.950
24058WAT     H172416   3.334   2.455   7.870
24058WAT     H272417   3.229   2.461   7.996
24059WAT      O72418   1.123   4.077   7.502
24059WAT     H172419   1.117   4.168   7.543
24059WAT     H272420   1.032   4.036   7.498
24060WAT      O72421   4.325   5.666   2.069
24060WAT     H172422   4.316   5.765   2.053
24060WAT     H272423   4.249   5.635   2.127
24061WAT      O72424   9.887   3.452   9.660
24061WAT     H172425   9.928   3.472   9.571
24061WAT     H272426   9.800   3.403   9.646
24062WAT      O72427   2.209   6.845   1.571
24062WAT     H172428   2.171   6.829   1.480
24062WAT     H272429   2.245   6.759   1.608
24063WAT      O72430   3.632   4.716   7.994
24063WAT     H172431   3.540   4.686   7.970
24063WAT     H272432   3.699   4.646   7.968
24064WAT      O72433   3.708   8.012   2.757
24064WAT     H172434   3.800   8.047   2.741
24064WAT     H272435   3.657   8.077   2.814
24065WAT      O72436   8.460   2.060   0.625
24065WAT     H172437   8.414   2.047   0.713
24065WAT     H272438   8.499   1.973   0.594
24066WAT      O72439   9.682   8.163   8.711
24066WAT     H172440   9.733   8.122   8.634
24066WAT     H272441   9.659   8.091   8.776
24067WAT      O72442   6.234   2.345   6.616
24067WAT     H172443   6.236   2.264   6.675
24067WAT     H272444   6.300   2.334   6.542
24068WAT      O72445   1.838   3.514   4.278
24068WAT     H172446   1.767   3.569   4.234
24068WAT     H272447   1.928   3.540   4.242
24069WAT      O72448   5.391   7.114   2.931
24069WAT     H172449   5.489   7.112   2.909
24069WAT     H272450   5.338   7.120   2.846
24070WAT      O72451   0.553   6.924   6.512
24070WAT     H172452   0.507   6.848   6.466
24070WAT     H272453   0.650   6.924   6.488
24071WAT      O72454   5.385   4.476   9.105
24071WAT     H172455   5.421   4.423   9.028
24071WAT     H272456   5.355   4.414   9.177
24072WAT      O72457   3.148   5.883   0.694
24072WAT     H172458   3.159   5.801   0.750
24072WAT     H272459   3.219   5.883   0.622
24073WAT      O72460   0.431   2.705   9.478
24073WAT     H172461   0.384   2.691   9.566
24073WAT     H272462   0.370   2.753   9.415
24074WAT      O72463   7.493   0.762   3.245
24074WAT     H172464   7.588   0.745   3.268
24074WAT     H272465   7.477   0.741   3.148
24075WAT      O72466   3.166   2.156   3.046
24075WAT     H172467   3.177   2.206   2.960
24075WAT     H272468   3.088   2.193   3.096
24076WAT      O72469   7.740   2.234   7.496
24076WAT     H172470   7.729   2.146   7.543
24076WAT     H272471   7.687   2.304   7.543
24077WAT      O72472   4.560   7.473   0.798
24077WAT     H172473   4.590   7.496   0.890
24077WAT     H272474   4.631   7.497   0.732
24078WAT      O72475   9.587   1.313   2.556
24078WAT     H172476   9.609   1.388   2.493
24078WAT     H272477   9.501   1.271   2.529
24079WAT      O72478   0.651   1.750   3.106
24079WAT     H172479   0.744   1.732   3.074
24079WAT     H272480   0.588   1.684   3.066
24080WAT      O72481   9.102   5.411   1.726
24080WAT     H172482   9.045   5.492   1.712
24080WAT     H272483   9.073   5.363   1.809
24081WAT      O72484   1.650   1.010   0.102
24081WAT     H172485   1.557   0.977   0.091
24081WAT     H272486   1.648   1.108   0.122
24082WAT      O72487   2.710   0.101   6.982
24082WAT     H172488   2.671   0.191   6.964
24082WAT     H272489   2.654   0.054   7.050
24083WAT      O72490   7.667   9.525   6.573
24083WAT     H172491   7.730   9.594   6.538
24083WAT     H272492   7.714   9.438   6.584
24084WAT      O72493   4.961   7.257   9.063
24084WAT     H172494   5.009   7.320   9.124
24084WAT     H272495   5.025   7.187   9.030
24085WAT      O72496   8.286   5.281   1.048
24085WAT     H172497   8.250   5.206   1.103
24085WAT     H272498   8.219   5.307   0.978
24086WAT      O72499   2.620   3.993   9.493
24086WAT     H172500   2.552   4.040   9.436
24086WAT     H272501   2.631   3.899   9.460
24087WAT      O72502   4.849   9.021   5.280
24087WAT     H172503   4.782   8.969   5.227
24087WAT     H272504   4.805   9.055   5.364
24088WAT      O72505   1.667   3.388   3.487
24088WAT     H172506   1.744   3.431   3.439
24088WAT     H272507   1.600   3.358   3.420
24089WAT      O72508   0.116   6.781   9.037
24089WAT     H172509   0.028   6.826   9.054
24089WAT     H272510   0.099   6.694   8.988
24090WAT      O72511   6.594   8.832   5.320
24090WAT     H172512   6.555   8.907   5.374
24090WAT     H272513   6.684   8.859   5.286
24091WAT      O72514   9.563   6.410   9.432
24091WAT     H172515   9.523   6.499   9.409
24091WAT     H272516   9.645   6.396   9.376
24092WAT      O72517   1.139   1.865   8.121
24092WAT     H172518   1.063   1.914   8.079
24092WAT     H272519   1.185   1.925   8.186
24093WAT      O72520   8.979   4.502   7.809
24093WAT     H172521   9.010   4.433   7.873
24093WAT     H272522   8.880   4.513   7.816
24094WAT      O72523   0.544   4.870   8.350
24094WAT     H172524   0.602   4.827   8.419
24094WAT     H272525   0.544   4.969   8.364
24095WAT      O72526   4.467   6.469   1.317
24095WAT     H172527   4.514   6.528   1.252
24095WAT     H272528   4.481   6.373   1.292
24096WAT      O72529   5.550   5.366   7.859
24096WAT     H172530   5.645   5.361   7.828
24096WAT     H272531   5.542   5.434   7.932
24097WAT      O72532   9.186   5.258   9.710
24097WAT     H172533   9.209   5.204   9.629
24097WAT     H272534   9.269   5.279   9.760
24098WAT      O72535   0.518   9.796   7.983
24098WAT     H172536   0.508   9.785   8.082
24098WAT     H272537   0.438   9.757   7.937
24099WAT      O72538   5.529   0.603   6.043
24099WAT     H172539   5.537   0.537   5.968
24099WAT     H272540   5.463   0.674   6.019
24100WAT      O72541   5.842   5.027   0.640
24100WAT     H172542   5.748   5.040   0.672
24100WAT     H272543   5.897   4.988   0.714
24101WAT      O72544   7.714   2.949   7.368
24101WAT     H172545   7.763   2.871   7.330
24101WAT     H272546   7.618   2.925   7.382
24102WAT      O72547   6.001   8.024   7.298
24102WAT     H172548   5.986   7.956   7.226
24102WAT     H272549   6.037   7.978   7.380
24103WAT      O72550   7.239   2.923   5.418
24103WAT     H172551   7.272   2.944   5.326
24103WAT     H272552   7.218   2.825   5.424
24104WAT      O72553   4.164   0.750   1.131
24104WAT     H172554   4.205   0.831   1.090
24104WAT     H272555   4.209   0.668   1.096
24105WAT      O72556   6.349   0.157   6.039
24105WAT     H172557   6.447   0.176   6.031
24105WAT     H272558   6.327   0.072   5.991
24106WAT      O72559   0.702   4.355   7.894
24106WAT     H172560   0.661   4.285   7.835
24106WAT     H272561   0.776   4.314   7.948
24107WAT      O72562   3.145   3.570   7.409
24107WAT     H172563   3.218   3.599   7.471
24107WAT     H272564   3.120   3.646   7.349
24108WAT      O72565   0.962   4.532   1.130
24108WAT     H172566   0.871   4.539   1.088
24108WAT     H272567   0.952   4.512   1.227
24109WAT      O72568   0.889   5.442   1.978
24109WAT     H172569   0.905   5.369   2.045
24109WAT     H272570   0.958   5.514   1.991
24110WAT      O72571   6.265   1.165   3.920
24110WAT     H172572   6.331   1.101   3.880
24110WAT     H272573   6.314   1.233   3.974
24111WAT      O72574   3.166   1.539   3.820
24111WAT     H172575   3.264   1.550   3.805
24111WAT     H272576   3.116   1.600   3.760
24112WAT      O72577   9.777   3.871   4.852
24112WAT     H172578   9.825   3.897   4.935
24112WAT     H272579   9.839   3.821   4.791
24113WAT      O72580   1.003   8.150   6.556
24113WAT     H172581   0.960   8.214   6.492
24113WAT     H272582   1.016   8.062   6.511
24114WAT      O72583   4.119   0.052   3.814
24114WAT     H172584   4.131   0.106   3.897
24114WAT     H272585   4.102   0.114   3.737
24115WAT      O72586   0.804   2.591   8.523
24115WAT     H172587   0.724   2.633   8.566
24115WAT     H272588   0.793   2.590   8.424
24116WAT      O72589   2.000   3.755   2.115
24116WAT     H172590   1.963   3.824   2.052
24116WAT     H272591   1.929   3.728   2.180
24117WAT      O72592   4.295   5.681   3.090
24117WAT     H172593   4.240   5.669   3.173
24117WAT     H272594   4.291   5.598   3.035
24118WAT      O72595   8.828   1.423   7.320
24118WAT     H172596   8.816   1.490   7.247
24118WAT     H272597   8.740   1.405   7.363
24119WAT      O72598   9.275   0.600   1.448
24119WAT     H172599   9.224   0.596   1.534
24119WAT     H272600   9.373   0.595   1.467
24120WAT      O72601   4.684   5.626   8.736
24120WAT     H172602   4.624   5.546   8.727
24120WAT     H272603   4.678   5.682   8.653
24121WAT      O72604   8.581   3.218   8.610
24121WAT     H172605   8.541   3.253   8.694
24121WAT     H272606   8.677   3.246   8.604
24122WAT      O72607   9.696   2.717   9.180
24122WAT     H172608   9.739   2.633   9.147
24122WAT     H272609   9.600   2.718   9.149
24123WAT      O72610   2.752   6.442   3.981
24123WAT     H172611   2.711   6.498   3.909
24123WAT     H272612   2.747   6.345   3.955
24124WAT      O72613   9.833   5.388   9.704
24124WAT     H172614   9.928   5.410   9.684
24124WAT     H272615   9.779   5.472   9.707
24125WAT      O72616   6.988   0.135   2.343
24125WAT     H172617   7.036   0.205   2.397
24125WAT     H272618   7.007   0.151   2.246
24126WAT      O72619   7.719   8.197   0.325
24126WAT     H172620   7.685   8.204   0.231
24126WAT     H272621   7.806   8.148   0.325
24127WAT      O72622   0.474   9.037   7.233
24127WAT     H172623   0.500   8.961   7.293
24127WAT     H272624   0.544   9.048   7.162
24128WAT      O72625   5.710   7.074   4.075
24128WAT     H172626   5.738   6.981   4.054
24128WAT     H272627   5.646   7.074   4.152
24129WAT      O72628   1.153   1.508   0.609
24129WAT     H172629   1.072   1.537   0.558
24129WAT     H272630   1.236   1.533   0.559
24130WAT      O72631   2.006   1.228   2.792
24130WAT     H172632   2.098   1.257   2.765
24130WAT     H272633   2.013   1.151   2.856
24131WAT      O72634   4.045   4.333   6.204
24131WAT     H172635   4.001   4.378   6.127
24131WAT     H272636   4.112   4.396   6.245
24132WAT      O72637   0.694   4.948   2.830
24132WAT     H172638   0.638   5.010   2.776
24132WAT     H272639   0.665   4.951   2.926
24133WAT      O72640   5.608   0.942   2.272
24133WAT     H172641   5.698   0.980   2.254
24133WAT     H272642   5.565   0.913   2.186
24134WAT      O72643   1.668   9.763   8.758
24134WAT     H172644   1.605   9.731   8.687
24134WAT     H272645   1.643   9.855   8.786
24135WAT      O72646   6.270   6.104   1.123
24135WAT     H172647   6.192   6.043   1.133
24135WAT     H272648   6.278   6.132   1.027
24136WAT      O72649   1.068   0.883   7.798
24136WAT     H172650   0.969   0.876   7.813
24136WAT     H272651   1.115   0.815   7.854
24137WAT      O72652   9.721   3.644   3.902
24137WAT     H172653   9.661   3.720   3.878
24137WAT     H272654   9.743   3.648   4.000
24138WAT      O72655   3.916   8.229   2.802
24138WAT     H172656   3.933   8.203   2.897
24138WAT     H272657   3.982   8.300   2.775
24139WAT      O72658   0.664   1.361   6.215
24139WAT     H172659   0.579   1.340   6.168
24139WAT     H272660   0.737   1.375   6.147
24140WAT      O72661   4.662   0.664   2.766
24140WAT     H172662   4.749   0.705   2.794
24140WAT     H272663   4.626   0.608   2.840
24141WAT      O72664   4.913   6.845   2.648
24141WAT     H172665   4.864   6.906   2.712
24141WAT     H272666   4.949   6.767   2.699
24142WAT      O72667   4.569   8.602   6.133
24142WAT     H172668   4.668   8.611   6.142
24142WAT     H272669   4.545   8.585   6.038
24143WAT      O72670   4.333   1.160   1.624
24143WAT     H172671   4.340   1.167   1.724
24143WAT     H272672   4.254   1.211   1.592
24144WAT      O72673   2.810   1.846   4.323
24144WAT     H172674   2.857   1.781   4.263
24144WAT     H272675   2.711   1.831   4.318
24145WAT      O72676   2.571   1.055   5.973
24145WAT     H172677   2.560   1.063   5.874
24145WAT     H272678   2.491   1.008   6.011
24146WAT      O72679   1.476   1.923   1.467
24146WAT     H172680   1.518   2.009   1.437
24146WAT     H272681   1.385   1.914   1.427
24147WAT      O72682   8.442   2.806   7.470
24147WAT     H172683   8.523   2.851   7.433
24147WAT     H272684   8.400   2.750   7.399
24148WAT      O72685   5.544   1.435   9.667
24148WAT     H172686   5.495   1.425   9.754
24148WAT     H272687   5.622   1.496   9.679
24149WAT      O72688   0.653   1.613   1.062
24149WAT     H172689   0.657   1.550   0.984
24149WAT     H272690   0.679   1.564   1.146
24150WAT      O72691   5.267   2.705   6.100
24150WAT     H172692   5.221   2.643   6.036
24150WAT     H272693   5.326   2.652   6.161
24151WAT      O72694   2.939   4.813   8.968
24151WAT     H172695   2.855   4.773   9.004
24151WAT     H272696   2.922   4.907   8.941
24152WAT      O72697   4.632   0.622   9.087
24152WAT     H172698   4.699   0.611   9.014
24152WAT     H272699   4.560   0.553   9.076
24153WAT      O72700   0.122   5.124   6.745
24153WAT     H172701   0.120   5.055   6.673
24153WAT     H272702   0.216   5.156   6.758
24154WAT      O72703   0.079   2.252   4.736
24154WAT     H172704   0.039   2.168   4.702
24154WAT     H272705   0.007   2.321   4.748
24155WAT      O72706   6.282   6.776   5.368
24155WAT     H172707   6.291   6.875   5.357
24155WAT     H272708   6.313   6.730   5.284
24156WAT      O72709   1.046   0.776   1.096
24156WAT     H172710   1.027   0.849   1.031
24156WAT     H272711   0.987   0.786   1.176
24157WAT      O72712   2.226   3.163   5.810
24157WAT     H172713   2.260   3.187   5.719
24157WAT     H272714   2.216   3.064   5.817
24158WAT      O72715   0.173   6.358   4.753
24158WAT     H172716   0.196   6.380   4.848
24158WAT     H272717   0.233   6.284   4.721
24159WAT      O72718   8.666   1.487   2.681
24159WAT     H172719   8.732   1.514   2.751
24159WAT     H272720   8.638   1.392   2.696
24160WAT      O72721   5.333   5.157   8.270
24160WAT     H172722   5.280   5.077   8.297
24160WAT     H272723   5.300   5.190   8.181
24161WAT      O72724   8.224   3.112   4.003
24161WAT     H172725   8.189   3.031   4.051
24161WAT     H272726   8.177   3.194   4.036
24162WAT      O72727   2.278   6.169   1.044
24162WAT     H172728   2.315   6.210   0.961
24162WAT     H272729   2.289   6.070   1.041
24163WAT      O72730   7.332   6.008   8.586
24163WAT     H172731   7.241   5.968   8.594
24163WAT     H272732   7.339   6.088   8.646
24164WAT      O72733   0.368   3.407   6.054
24164WAT     H172734   0.399   3.400   6.149
24164WAT     H272735   0.448   3.413   5.994
24165WAT      O72736   8.481   3.256   9.078
24165WAT     H172737   8.386   3.285   9.089
24165WAT     H272738   8.508   3.198   9.155
24166WAT      O72739   4.429   1.475   7.660
24166WAT     H172740   4.359   1.530   7.616
24166WAT     H272741   4.479   1.531   7.726
24167WAT      O72742   4.172   3.638   7.345
24167WAT     H172743   4.206   3.553   7.305
24167WAT     H272744   4.249   3.698   7.365
24168WAT      O72745   5.777   6.699   7.284
24168WAT     H172746   5.790   6.763   7.360
24168WAT     H272747   5.837   6.724   7.208
24169WAT      O72748   9.518   8.638   1.011
24169WAT     H172749   9.609   8.637   1.054
24169WAT     H272750   9.507   8.722   0.958
24170WAT      O72751   5.790   4.699   5.900
24170WAT     H172752   5.730   4.643   5.842
24170WAT     H272753   5.867   4.733   5.847
24171WAT      O72754   6.242   9.645   0.551
24171WAT     H172755   6.191   9.624   0.634
24171WAT     H272756   6.340   9.639   0.569
24172WAT      O72757   8.767   7.272   6.805
24172WAT     H172758   8.825   7.284   6.724
24172WAT     H272759   8.671   7.281   6.779
24173WAT      O72760   4.688   3.254   8.766
24173WAT     H172761   4.592   3.225   8.764
24173WAT     H272762   4.693   3.347   8.803
24174WAT      O72763   2.827   6.394   6.235
24174WAT     H172764   2.912   6.399   6.183
24174WAT     H272765   2.767   6.324   6.194
24175WAT      O72766   7.792   0.389   7.001
24175WAT     H172767   7.832   0.331   6.930
24175WAT     H272768   7.798   0.342   7.089
24176WAT      O72769   8.124   0.918   0.580
24176WAT     H172770   8.069   0.973   0.516
24176WAT     H272771   8.066   0.848   0.622
24177WAT      O72772   5.155   7.414   0.570
24177WAT     H172773   5.188   7.420   0.476
24177WAT     H272774   5.216   7.357   0.624
24178WAT      O72775   7.679   7.973   7.945
24178WAT     H172776   7.699   7.891   7.890
24178WAT     H272777   7.683   8.054   7.887
24179WAT      O72778   8.962   0.847   7.273
24179WAT     H172779   9.009   0.777   7.219
24179WAT     H272780   9.013   0.933   7.268
24180WAT      O72781   8.362   0.436   7.566
24180WAT     H172782   8.314   0.479   7.489
24180WAT     H272783   8.351   0.493   7.648
24181WAT      O72784   5.105   2.934   6.893
24181WAT     H172785   5.117   2.844   6.851
24181WAT     H272786   5.021   2.977   6.859
24182WAT      O72787   6.402   8.238   8.969
24182WAT     H172788   6.443   8.177   9.036
24182WAT     H272789   6.383   8.326   9.011
24183WAT      O72790   6.891   1.287   0.862
24183WAT     H172791   6.899   1.195   0.899
24183WAT     H272792   6.977   1.336   0.873
24184WAT      O72793   4.277   4.177   9.878
24184WAT     H172794   4.294   4.273   9.902
24184WAT     H272795   4.285   4.165   9.779
24185WAT      O72796   2.476   3.359   6.411
24185WAT     H172797   2.563   3.312   6.427
24185WAT     H272798   2.457   3.362   6.313
24186WAT      O72799   6.508   0.346   2.009
24186WAT     H172800   6.535   0.367   2.103
24186WAT     H272801   6.582   0.372   1.947
24187WAT      O72802   9.356   3.493   2.686
24187WAT     H172803   9.380   3.396   2.693
24187WAT     H272804   9.261   3.507   2.711
24188WAT      O72805   6.232   2.284   7.141
24188WAT     H172806   6.154   2.227   7.169
24188WAT     H272807   6.199   2.372   7.106
24189WAT      O72808   1.071   6.630   6.364
24189WAT     H172809   1.155   6.589   6.329
24189WAT     H272810   1.029   6.569   6.430
24190WAT      O72811   1.186   7.678   6.468
24190WAT     H172812   1.199   7.750   6.399
24190WAT     H272813   1.151   7.596   6.423
24191WAT      O72814   7.095   0.467   5.173
24191WAT     H172815   7.108   0.563   5.148
24191WAT     H272816   7.184   0.425   5.190
24192WAT      O72817   4.404   3.622   4.707
24192WAT     H172818   4.454   3.538   4.688
24192WAT     H272819   4.435   3.661   4.793
24193WAT      O72820   6.497   9.562   6.799
24193WAT     H172821   6.488   9.641   6.737
24193WAT     H272822   6.529   9.483   6.747
24194WAT      O72823   0.407   3.350   2.336
24194WAT     H172824   0.491   3.296   2.329
24194WAT     H272825   0.354   3.341   2.251
24195WAT      O72826   8.815   7.563   6.195
24195WAT     H172827   8.878   7.568   6.272
24195WAT     H272828   8.864   7.582   6.110
24196WAT      O72829   5.215   8.440   4.539
24196WAT     H172830   5.118   8.465   4.536
24196WAT     H272831   5.251   8.453   4.631
24197WAT      O72832   7.238   1.123   0.243
24197WAT     H172833   7.271   1.134   0.149
24197WAT     H272834   7.315   1.123   0.306
24198WAT      O72835   8.381   7.546   3.774
24198WAT     H172836   8.319   7.613   3.733
24198WAT     H272837   8.361   7.537   3.872
24199WAT      O72838   4.640   2.593   8.538
24199WAT     H172839   4.620   2.582   8.440
24199WAT     H272840   4.610   2.683   8.569
24200WAT      O72841   9.419   8.622   6.181
24200WAT     H172842   9.364   8.625   6.097
24200WAT     H272843   9.450   8.528   6.197
24201WAT      O72844   5.897   4.307   3.934
24201WAT     H172845   5.954   4.225   3.946
24201WAT     H272846   5.956   4.385   3.911
24202WAT      O72847   4.410   6.558   2.249
24202WAT     H172848   4.438   6.462   2.257
24202WAT     H272849   4.313   6.567   2.272
24203WAT      O72850   9.649   1.968   6.966
24203WAT     H172851   9.606   1.996   6.880
24203WAT     H272852   9.583   1.979   7.041
24204WAT      O72853   0.338   5.547   5.418
24204WAT     H172854   0.429   5.512   5.400
24204WAT     H272855   0.344   5.642   5.449
24205WAT      O72856   4.338   2.873   8.835
24205WAT     H172857   4.281   2.794   8.814
24205WAT     H272858   4.376   2.864   8.927
24206WAT      O72859   5.019   8.259   0.235
24206WAT     H172860   4.976   8.169   0.250
24206WAT     H272861   5.108   8.246   0.192
24207WAT      O72862   4.207   5.297   3.983
24207WAT     H172863   4.192   5.290   3.884
24207WAT     H272864   4.138   5.244   4.032
24208WAT      O72865   4.430   2.504   8.950
24208WAT     H172866   4.371   2.423   8.946
24208WAT     H272867   4.423   2.546   9.041
24209WAT      O72868   6.789   8.435   0.185
24209WAT     H172869   6.765   8.364   0.251
24209WAT     H272870   6.829   8.513   0.233
24210WAT      O72871   5.282   2.747   9.491
24210WAT     H172872   5.239   2.668   9.534
24210WAT     H272873   5.304   2.726   9.396
24211WAT      O72874   6.748   7.536   8.400
24211WAT     H172875   6.777   7.548   8.495
24211WAT     H272876   6.813   7.475   8.353
24212WAT      O72877   5.363   0.946   9.482
24212WAT     H172878   5.370   0.848   9.460
24212WAT     H272879   5.271   0.966   9.515
24213WAT      O72880   6.721   4.725   0.232
24213WAT     H172881   6.652   4.679   0.176
24213WAT     H272882   6.713   4.694   0.326
24214WAT      O72883   1.687   0.500   3.377
24214WAT     H172884   1.623   0.528   3.449
24214WAT     H272885   1.778   0.536   3.398
24215WAT      O72886   5.798   7.951   6.016
24215WAT     H172887   5.718   8.003   6.045
24215WAT     H272888   5.854   7.928   6.096
24216WAT      O72889   7.366   0.911   4.848
24216WAT     H172890   7.423   0.839   4.888
24216WAT     H272891   7.370   0.993   4.905
24217WAT      O72892   5.494   4.678   4.777
24217WAT     H172893   5.487   4.704   4.680
24217WAT     H272894   5.590   4.683   4.806
24218WAT      O72895   6.109   1.449   9.887
24218WAT     H172896   6.121   1.533   9.833
24218WAT     H272897   6.157   1.459   9.974
24219WAT      O72898   6.651   0.547   0.804
24219WAT     H172899   6.675   0.457   0.839
24219WAT     H272900   6.551   0.553   0.794
24220WAT      O72901   6.613   9.171   5.426
24220WAT     H172902   6.623   9.232   5.505
24220WAT     H272903   6.642   9.218   5.343
24221WAT      O72904   6.035   4.333   0.615
24221WAT     H172905   6.109   4.270   0.636
24221WAT     H272906   5.967   4.331   0.689
24222WAT      O72907   6.768   3.123   0.907
24222WAT     H172908   6.805   3.152   0.995
24222WAT     H272909   6.671   3.148   0.902
24223WAT      O72910   5.212   5.893   1.882
24223WAT     H172911   5.298   5.842   1.881
24223WAT     H272912   5.205   5.948   1.799
24224WAT      O72913   6.234   1.688   0.226
24224WAT     H172914   6.297   1.623   0.184
24224WAT     H272915   6.276   1.726   0.308
24225WAT      O72916   6.979   0.777   8.197
24225WAT     H172917   6.884   0.792   8.169
24225WAT     H272918   7.039   0.791   8.119
24226WAT      O72919   5.654   8.567   2.910
24226WAT     H172920   5.615   8.499   2.972
24226WAT     H272921   5.734   8.609   2.953
24227WAT      O72922   9.691   6.623   6.590
24227WAT     H172923   9.753   6.580   6.524
24227WAT     H272924   9.742   6.644   6.674
24228WAT      O72925   6.041   0.225   7.255
24228WAT     H172926   5.991   0.312   7.260
24228WAT     H272927   6.004   0.162   7.324
24229WAT      O72928   2.714   7.653   9.404
24229WAT     H172929   2.745   7.744   9.377
24229WAT     H272930   2.754   7.584   9.343
24230WAT      O72931   1.680   4.223   0.542
24230WAT     H172932   1.764   4.188   0.584
24230WAT     H272933   1.647   4.157   0.475
24231WAT      O72934   6.510   4.756   1.251
24231WAT     H172935   6.512   4.657   1.249
24231WAT     H272936   6.592   4.793   1.206
24232WAT      O72937   9.141   6.142   7.136
24232WAT     H172938   9.119   6.054   7.179
24232WAT     H272939   9.202   6.195   7.195
24233WAT      O72940   4.336   3.274   1.493
24233WAT     H172941   4.298   3.265   1.401
24233WAT     H272942   4.332   3.186   1.540
24234WAT      O72943   3.311   8.898   6.972
24234WAT     H172944   3.334   8.806   7.004
24234WAT     H272945   3.386   8.934   6.917
24235WAT      O72946   2.077   6.137   4.059
24235WAT     H172947   2.168   6.177   4.053
24235WAT     H272948   2.009   6.206   4.031
24236WAT      O72949   7.746   0.708   3.346
24236WAT     H172950   7.785   0.765   3.418
24236WAT     H272951   7.807   0.707   3.267
24237WAT      O72952   5.887   0.964   4.007
24237WAT     H172953   5.972   0.911   4.007
24237WAT     H272954   5.885   1.025   3.927
24238WAT      O72955   4.671   8.543   0.806
24238WAT     H172956   4.727   8.527   0.888
24238WAT     H272957   4.705   8.623   0.757
24239WAT      O72958   0.804   4.791   9.762
24239WAT     H172959   0.727   4.728   9.747
24239WAT     H272960   0.890   4.740   9.756
24240WAT      O72961   3.789   6.864   5.333
24240WAT     H172962   3.816   6.769   5.345
24240WAT     H272963   3.845   6.922   5.392
24241WAT      O72964   7.454   4.868   2.907
24241WAT     H172965   7.526   4.933   2.885
24241WAT     H272966   7.384   4.913   2.964
24242WAT      O72967   6.942   3.457   8.588
24242WAT     H172968   6.909   3.467   8.494
24242WAT     H272969   6.997   3.374   8.594
24243WAT      O72970   9.607   4.356   8.259
24243WAT     H172971   9.660   4.278   8.228
24243WAT     H272972   9.532   4.373   8.195
24244WAT      O72973   5.040   5.686   1.252
24244WAT     H172974   4.984   5.769   1.251
24244WAT     H272975   5.133   5.709   1.224
24245WAT      O72976   3.485   1.767   5.168
24245WAT     H172977   3.476   1.840   5.101
24245WAT     H272978   3.582   1.744   5.180
24246WAT      O72979   3.010   8.062   2.548
24246WAT     H172980   2.952   8.091   2.625
24246WAT     H272981   3.096   8.025   2.583
24247WAT      O72982   3.260   7.862   3.319
24247WAT     H172983   3.242   7.806   3.399
24247WAT     H272984   3.358   7.862   3.299
24248WAT      O72985   9.888   6.509   1.329
24248WAT     H172986   9.954   6.530   1.401
24248WAT     H272987   9.836   6.591   1.306
24249WAT      O72988   3.672   1.740   1.088
24249WAT     H172989   3.656   1.712   1.183
24249WAT     H272990   3.769   1.760   1.076
24250WAT      O72991   7.060   0.853   0.276
24250WAT     H172992   7.011   0.877   0.360
24250WAT     H272993   7.042   0.922   0.206
24251WAT      O72994   8.380   7.128   2.247
24251WAT     H172995   8.321   7.195   2.202
24251WAT     H272996   8.448   7.175   2.303
24252WAT      O72997   7.726   2.195   1.906
24252WAT     H172998   7.698   2.216   2.000
24252WAT     H272999   7.747   2.098   1.898
24253WAT      O73000   7.176   2.525   9.382
24253WAT     H173001   7.136   2.575   9.459
24253WAT     H273002   7.103   2.483   9.328
24254WAT      O73003   7.603   1.096   5.336
24254WAT     H173004   7.679   1.151   5.300
24254WAT     H273005   7.518   1.147   5.324
24255WAT      O73006   9.615   8.116   2.839
24255WAT     H173007   9.677   8.080   2.768
24255WAT     H273008   9.662   8.118   2.927
24256WAT      O73009   4.842   8.793   7.440
24256WAT     H173010   4.800   8.828   7.357
24256WAT     H273011   4.807   8.842   7.519
24257WAT      O73012   1.396   3.920   0.851
24257WAT     H173013   1.370   4.014   0.828
24257WAT     H273014   1.450   3.882   0.776
24258WAT      O73015   2.493   6.615   3.529
24258WAT     H173016   2.583   6.578   3.505
24258WAT     H273017   2.432   6.609   3.450
24259WAT      O73018   6.938   6.496   0.762
24259WAT     H173019   6.872   6.567   0.787
24259WAT     H273020   7.030   6.526   0.786
24260WAT      O73021   5.723   7.040   0.671
24260WAT     H173022   5.665   6.977   0.722
24260WAT     H273023   5.817   7.005   0.669
24261WAT      O73024   6.671   3.494   8.819
24261WAT     H173025   6.620   3.578   8.836
24261WAT     H273026   6.740   3.511   8.749
24262WAT      O73027   8.022   2.532   9.857
24262WAT     H173028   8.047   2.502   9.949
24262WAT     H273029   7.927   2.564   9.856
24263WAT      O73030   7.916   8.791   3.788
24263WAT     H173031   7.860   8.804   3.706
24263WAT     H273032   7.990   8.727   3.768
24264WAT      O73033   5.240   1.571   4.766
24264WAT     H173034   5.242   1.471   4.762
24264WAT     H273035   5.267   1.602   4.857
24265WAT      O73036   2.291   4.946   9.214
24265WAT     H173037   2.195   4.971   9.207
24265WAT     H273038   2.309   4.907   9.305
24266WAT      O73039   5.620   6.559   5.097
24266WAT     H173040   5.599   6.564   5.195
24266WAT     H273041   5.597   6.468   5.063
24267WAT      O73042   1.185   7.916   5.182
24267WAT     H173043   1.252   7.928   5.109
24267WAT     H273044   1.172   7.819   5.201
24268WAT      O73045   0.202   7.900   0.210
24268WAT     H173046   0.205   7.800   0.215
24268WAT     H273047   0.215   7.938   0.302
24269WAT      O73048   3.641   0.068   2.607
24269WAT     H173049   3.647  -0.031   2.615
24269WAT     H273050   3.724   0.109   2.646
24270WAT      O73051   0.870   2.941   8.829
24270WAT     H173052   0.909   2.850   8.843
24270WAT     H273053   0.890   2.999   8.908
24271WAT      O73054   4.314   9.402   9.701
24271WAT     H173055   4.334   9.378   9.606
24271WAT     H273056   4.366   9.483   9.726
24272WAT      O73057   7.504   4.588   3.648
24272WAT     H173058   7.411   4.617   3.666
24272WAT     H273059   7.506   4.489   3.632
24273WAT      O73060   7.145   0.752   0.763
24273WAT     H173061   7.171   0.740   0.859
24273WAT     H273062   7.084   0.831   0.755
24274WAT      O73063   5.546   1.407   8.191
24274WAT     H173064   5.540   1.336   8.120
24274WAT     H273065   5.462   1.461   8.191
24275WAT      O73066   9.239   6.317   3.024
24275WAT     H173067   9.184   6.274   2.953
24275WAT     H273068   9.288   6.395   2.985
24276WAT      O73069   8.257   3.236   3.176
24276WAT     H173070   8.279   3.139   3.193
24276WAT     H273071   8.188   3.243   3.105
24277WAT      O73072   5.345   3.842   9.239
24277WAT     H173073   5.264   3.900   9.243
24277WAT     H273074   5.349   3.795   9.151
24278WAT      O73075   1.706   1.913   8.055
24278WAT     H173076   1.646   1.923   7.976
24278WAT     H273077   1.757   1.828   8.049
24279WAT      O73078   0.322   5.310   8.451
24279WAT     H173079   0.341   5.406   8.472
24279WAT     H273080   0.244   5.305   8.388
24280WAT      O73081   7.788   5.917   2.772
24280WAT     H173082   7.809   5.911   2.675
24280WAT     H273083   7.866   5.957   2.821
24281WAT      O73084   7.546   7.242   7.653
24281WAT     H173085   7.483   7.175   7.613
24281WAT     H273086   7.493   7.313   7.700
24282WAT      O73087   0.066   0.374   8.333
24282WAT     H173088  -0.026   0.397   8.301
24282WAT     H273089   0.060   0.344   8.429
24283WAT      O73090   6.377   7.070   1.199
24283WAT     H173091   6.401   7.032   1.288
24283WAT     H273092   6.319   7.151   1.211
24284WAT      O73093   9.627   9.140   0.906
24284WAT     H173094   9.596   9.234   0.891
24284WAT     H273095   9.675   9.106   0.826
24285WAT      O73096   7.225   1.494   0.583
24285WAT     H173097   7.249   1.529   0.493
24285WAT     H273098   7.137   1.532   0.612
24286WAT      O73099   7.042   2.187   9.146
24286WAT     H173100   7.135   2.168   9.178
24286WAT     H273101   6.993   2.101   9.131
24287WAT      O73102   7.631   8.459   7.533
24287WAT     H173103   7.687   8.525   7.483
24287WAT     H273104   7.566   8.507   7.591
24288WAT      O73105   7.869   5.036   2.650
24288WAT     H173106   7.932   4.989   2.712
24288WAT     H273107   7.917   5.109   2.602
24289WAT      O73108   3.988   5.295   5.586
24289WAT     H173109   3.889   5.304   5.592
24289WAT     H273110   4.029   5.310   5.676
24290WAT      O73111   2.426   3.280   2.381
24290WAT     H173112   2.376   3.213   2.327
24290WAT     H273113   2.432   3.366   2.329
24291WAT      O73114   3.875   7.476   6.397
24291WAT     H173115   3.908   7.406   6.461
24291WAT     H273116   3.784   7.506   6.425
24292WAT      O73117   7.105   5.650   0.757
24292WAT     H173118   7.054   5.713   0.698
24292WAT     H273119   7.073   5.557   0.742
24293WAT      O73120   2.596   0.621   6.513
24293WAT     H173121   2.661   0.674   6.459
24293WAT     H273122   2.578   0.534   6.467
24294WAT      O73123   4.190   3.099   3.187
24294WAT     H173124   4.143   3.184   3.163
24294WAT     H273125   4.122   3.026   3.195
24295WAT      O73126   4.054   9.247   1.854
24295WAT     H173127   4.052   9.148   1.843
24295WAT     H273128   4.049   9.270   1.951
24296WAT      O73129   3.994   7.481   9.799
24296WAT     H173130   3.954   7.567   9.770
24296WAT     H273131   3.993   7.416   9.723
24297WAT      O73132   5.904   7.528   4.710
24297WAT     H173133   5.924   7.472   4.790
24297WAT     H273134   5.808   7.514   4.683
24298WAT      O73135   4.300   6.770   5.602
24298WAT     H173136   4.296   6.718   5.517
24298WAT     H273137   4.312   6.707   5.679
24299WAT      O73138   0.144   7.892   4.338
24299WAT     H173139   0.050   7.861   4.351
24299WAT     H273140   0.156   7.924   4.244
24300WAT      O73141   5.016   7.568   0.973
24300WAT     H173142   4.972   7.657   0.985
24300WAT     H273143   4.982   7.504   1.042
24301WAT      O73144   5.656   3.180   0.017
24301WAT     H173145   5.649   3.098  -0.040
24301WAT     H273146   5.627   3.158   0.110
24302WAT      O73147   2.977   1.963   9.026
24302WAT     H173148   2.930   1.876   9.040
24302WAT     H273149   3.069   1.958   9.065
24303WAT      O73150   8.204   7.549   7.541
24303WAT     H173151   8.170   7.615   7.474
24303WAT     H273152   8.129   7.517   7.598
24304WAT      O73153   5.749   0.626   6.492
24304WAT     H173154   5.753   0.717   6.451
24304WAT     H273155   5.706   0.563   6.429
24305WAT      O73156   0.821   6.717   7.117
24305WAT     H173157   0.742   6.677   7.164
24305WAT     H273158   0.872   6.644   7.072
24306WAT      O73159   6.144   8.123   1.674
24306WAT     H173160   6.175   8.163   1.588
24306WAT     H273161   6.123   8.026   1.661
24307WAT      O73162   7.340   1.597   7.564
24307WAT     H173163   7.370   1.673   7.622
24307WAT     H273164   7.341   1.513   7.618
24308WAT      O73165   8.059   3.582   1.374
24308WAT     H173166   7.986   3.536   1.425
24308WAT     H273167   8.130   3.613   1.437
24309WAT      O73168   5.788   3.007   2.029
24309WAT     H173169   5.841   3.025   1.946
24309WAT     H273170   5.770   3.093   2.076
24310WAT      O73171   3.740   5.433   5.591
24310WAT     H173172   3.654   5.467   5.630
24310WAT     H273173   3.745   5.456   5.494
24311WAT      O73174   2.410   6.347   6.022
24311WAT     H173175   2.359   6.341   5.936
24311WAT     H273176   2.455   6.435   6.028
24312WAT      O73177   5.759   1.865   4.865
24312WAT     H173178   5.668   1.840   4.833
24312WAT     H273179   5.752   1.928   4.943
24313WAT      O73180   4.629   3.798   9.529
24313WAT     H173181   4.640   3.701   9.505
24313WAT     H273182   4.537   3.814   9.562
24314WAT      O73183   7.278   5.233   3.228
24314WAT     H173184   7.249   5.269   3.316
24314WAT     H273185   7.377   5.219   3.229
24315WAT      O73186   3.727   8.080   6.608
24315WAT     H173187   3.658   8.045   6.672
24315WAT     H273188   3.769   8.003   6.559
24316WAT      O73189   7.356   3.826   6.490
24316WAT     H173190   7.309   3.756   6.436
24316WAT     H273191   7.331   3.815   6.587
24317WAT      O73192   4.666   1.858   3.868
24317WAT     H173193   4.608   1.817   3.938
24317WAT     H273194   4.637   1.953   3.852
24318WAT      O73195   0.140   7.098   2.541
24318WAT     H173196   0.210   7.087   2.471
24318WAT     H273197   0.070   7.027   2.529
24319WAT      O73198   0.226   0.508   7.460
24319WAT     H173199   0.304   0.470   7.411
24319WAT     H273200   0.249   0.598   7.496
24320WAT      O73201   7.428   1.596   9.554
24320WAT     H173202   7.336   1.594   9.594
24320WAT     H273203   7.452   1.506   9.520
24321WAT      O73204   9.557   4.846   0.568
24321WAT     H173205   9.610   4.927   0.543
24321WAT     H273206   9.484   4.872   0.631
24322WAT      O73207   6.529   6.402   0.076
24322WAT     H173208   6.581   6.443   0.001
24322WAT     H273209   6.435   6.435   0.074
24323WAT      O73210   7.639   6.744   2.948
24323WAT     H173211   7.595   6.830   2.923
24323WAT     H273212   7.621   6.724   3.044
24324WAT      O73213   9.696   5.838   5.522
24324WAT     H173214   9.706   5.743   5.493
24324WAT     H273215   9.603   5.870   5.501
24325WAT      O73216   1.007   2.511   7.860
24325WAT     H173217   0.953   2.523   7.776
24325WAT     H273218   1.104   2.524   7.839
24326WAT      O73219   6.208   0.272   4.768
24326WAT     H173220   6.191   0.215   4.688
24326WAT     H273221   6.224   0.213   4.848
24327WAT      O73222   0.640   8.501   0.797
24327WAT     H173223   0.550   8.512   0.840
24327WAT     H273224   0.641   8.549   0.709
24328WAT      O73225   1.059   2.009   5.545
24328WAT     H173226   1.140   2.067   5.547
24328WAT     H273227   1.033   1.990   5.451
24329WAT      O73228   5.638   2.831   9.587
24329WAT     H173229   5.600   2.915   9.549
24329WAT     H273230   5.614   2.754   9.528
24330WAT      O73231   0.542   2.531   0.352
24330WAT     H173232   0.502   2.543   0.443
24330WAT     H273233   0.577   2.438   0.342
24331WAT      O73234   2.817   4.871   9.253
24331WAT     H173235   2.751   4.854   9.180
24331WAT     H273236   2.852   4.784   9.287
24332WAT      O73237   0.257   9.529   1.460
24332WAT     H173238   0.208   9.444   1.481
24332WAT     H273239   0.221   9.603   1.518
24333WAT      O73240   4.574   2.638   3.260
24333WAT     H173241   4.593   2.707   3.330
24333WAT     H273242   4.582   2.680   3.169
24334WAT      O73243   8.200   7.956   5.927
24334WAT     H173244   8.125   8.021   5.937
24334WAT     H273245   8.163   7.868   5.899
24335WAT      O73246   8.844   6.376   8.569
24335WAT     H173247   8.748   6.350   8.579
24335WAT     H273248   8.883   6.330   8.489
24336WAT      O73249   8.962   5.856   5.931
24336WAT     H173250   8.899   5.786   5.897
24336WAT     H273251   9.056   5.822   5.925
24337WAT      O73252   2.705   7.644   3.974
24337WAT     H173253   2.619   7.624   3.928
24337WAT     H273254   2.707   7.598   4.063
24338WAT      O73255   5.635   4.079   6.459
24338WAT     H173256   5.555   4.080   6.399
24338WAT     H273257   5.606   4.064   6.553
24339WAT      O73258   0.066   4.968   8.649
24339WAT     H173259   0.043   4.979   8.553
24339WAT     H273260   0.145   4.907   8.658
24340WAT      O73261   2.525   7.228   9.014
24340WAT     H173262   2.458   7.176   8.960
24340WAT     H273263   2.480   7.306   9.057
24341WAT      O73264   9.884   5.780   7.081
24341WAT     H173265   9.852   5.843   7.152
24341WAT     H273266   9.831   5.695   7.086
24342WAT      O73267   8.246   7.087   6.678
24342WAT     H173268   8.254   7.033   6.762
24342WAT     H273269   8.161   7.139   6.681
24343WAT      O73270   7.612   6.568   5.563
24343WAT     H173271   7.547   6.573   5.639
24343WAT     H273272   7.638   6.473   5.547
24344WAT      O73273   8.059   3.042   5.053
24344WAT     H173274   8.059   3.102   5.134
24344WAT     H273275   8.140   2.984   5.055
24345WAT      O73276   1.508   0.839   4.436
24345WAT     H173277   1.542   0.841   4.341
24345WAT     H273278   1.469   0.749   4.455
24346WAT      O73279   7.988   8.772   9.029
24346WAT     H173280   7.901   8.730   9.056
24346WAT     H273281   7.988   8.869   9.055
24347WAT      O73282   0.965   3.338   7.741
24347WAT     H173283   1.049   3.284   7.754
24347WAT     H273284   0.889   3.276   7.720
24348WAT      O73285   3.142   8.169   0.095
24348WAT     H173286   3.081   8.239   0.132
24348WAT     H273287   3.094   8.118   0.022
24349WAT      O73288   0.429   1.267   2.446
24349WAT     H173289   0.413   1.365   2.439
24349WAT     H273290   0.404   1.235   2.537
24350WAT      O73291   6.710   0.914   7.723
24350WAT     H173292   6.711   0.942   7.627
24350WAT     H273293   6.781   0.963   7.773
24351WAT      O73294   9.580   8.397   5.845
24351WAT     H173295   9.676   8.417   5.825
24351WAT     H273296   9.573   8.347   5.932
24352WAT      O73297   2.260   3.571   9.341
24352WAT     H173298   2.329   3.620   9.394
24352WAT     H273299   2.235   3.487   9.389
24353WAT      O73300   9.702   9.379   8.229
24353WAT     H173301   9.795   9.342   8.236
24353WAT     H273302   9.683   9.436   8.309
24354WAT      O73303   5.248   4.909   5.609
24354WAT     H173304   5.335   4.937   5.569
24354WAT     H273305   5.250   4.811   5.628
24355WAT      O73306   3.162   5.275   0.174
24355WAT     H173307   3.094   5.305   0.107
24355WAT     H273308   3.163   5.338   0.251
24356WAT      O73309   7.173   0.696   4.870
24356WAT     H173310   7.248   0.749   4.830
24356WAT     H273311   7.177   0.602   4.838
24357WAT      O73312   2.633   3.976   1.725
24357WAT     H173313   2.637   4.068   1.764
24357WAT     H273314   2.715   3.961   1.668
24358WAT      O73315   2.149   4.210   0.385
24358WAT     H173316   2.156   4.111   0.370
24358WAT     H273317   2.206   4.235   0.463
24359WAT      O73318   4.240   2.225   8.508
24359WAT     H173319   4.205   2.133   8.524
24359WAT     H273320   4.328   2.236   8.554
24360WAT      O73321   6.201   0.901   7.696
24360WAT     H173322   6.275   0.838   7.674
24360WAT     H273323   6.183   0.898   7.794
24361WAT      O73324   3.217   3.534   0.173
24361WAT     H173325   3.136   3.544   0.230
24361WAT     H273326   3.204   3.583   0.087
24362WAT      O73327   5.352   5.964   7.443
24362WAT     H173328   5.380   5.869   7.436
24362WAT     H273329   5.432   6.021   7.465
24363WAT      O73330   0.192   0.161   7.593
24363WAT     H173331   0.286   0.194   7.594
24363WAT     H273332   0.129   0.238   7.601
24364WAT      O73333   4.945   9.584   6.905
24364WAT     H173334   4.988   9.659   6.956
24364WAT     H273335   5.003   9.557   6.829
24365WAT      O73336   3.694   3.628   6.686
24365WAT     H173337   3.750   3.662   6.611
24365WAT     H273338   3.601   3.611   6.653
24366WAT      O73339   6.653   0.063   4.014
24366WAT     H173340   6.643   0.115   4.099
24366WAT     H273341   6.740   0.086   3.970
24367WAT      O73342   1.506   3.670   1.520
24367WAT     H173343   1.547   3.756   1.488
24367WAT     H273344   1.476   3.681   1.615
24368WAT      O73345   0.473   4.110   0.263
24368WAT     H173346   0.509   4.200   0.288
24368WAT     H273347   0.400   4.084   0.326
24369WAT      O73348   8.870   1.536   1.279
24369WAT     H173349   8.874   1.630   1.244
24369WAT     H273350   8.784   1.523   1.328
24370WAT      O73351   1.334   7.825   4.503
24370WAT     H173352   1.289   7.908   4.536
24370WAT     H273353   1.314   7.749   4.564
24371WAT      O73354   4.165   7.346   0.920
24371WAT     H173355   4.078   7.329   0.875
24371WAT     H273356   4.225   7.397   0.857
24372WAT      O73357   7.099   8.795   9.593
24372WAT     H173358   7.182   8.843   9.567
24372WAT     H273359   7.121   8.724   9.660
24373WAT      O73360   5.606   8.236   3.556
24373WAT     H173361   5.702   8.212   3.548
24373WAT     H273362   5.553   8.189   3.485
24374WAT      O73363   0.900   1.375   3.387
24374WAT     H173364   0.887   1.317   3.307
24374WAT     H273365   0.977   1.437   3.371
24375WAT      O73366   3.653   2.400   0.659
24375WAT     H173367   3.699   2.444   0.582
24375WAT     H273368   3.657   2.300   0.648
24376WAT      O73369   7.091   6.269   6.953
24376WAT     H173370   7.101   6.309   6.862
24376WAT     H273371   7.070   6.172   6.944
24377WAT      O73372   4.633   8.587   0.146
24377WAT     H173373   4.566   8.515   0.164
24377WAT     H273374   4.674   8.572   0.057
24378WAT      O73375   8.923   3.172   1.439
24378WAT     H173376   8.960   3.097   1.494
24378WAT     H273377   8.862   3.135   1.369
24379WAT      O73378   9.478   2.807   0.645
24379WAT     H173379   9.488   2.887   0.586
24379WAT     H273380   9.431   2.735   0.595
24380WAT      O73381   5.027   8.754   5.149
24380WAT     H173382   4.932   8.780   5.133
24380WAT     H273383   5.081   8.835   5.173
24381WAT      O73384   1.024   6.815   3.059
24381WAT     H173385   1.014   6.794   2.962
24381WAT     H273386   0.937   6.800   3.105
24382WAT      O73387   5.426   9.604   2.159
24382WAT     H173388   5.400   9.699   2.142
24382WAT     H273389   5.350   9.544   2.133
24383WAT      O73390   5.626   8.255   8.484
24383WAT     H173391   5.706   8.298   8.526
24383WAT     H273392   5.545   8.311   8.501
24384WAT      O73393   2.390   6.291   0.669
24384WAT     H173394   2.296   6.317   0.648
24384WAT     H273395   2.448   6.307   0.589
24385WAT      O73396   3.959   5.130   3.712
24385WAT     H173397   3.901   5.120   3.631
24385WAT     H273398   3.911   5.094   3.792
24386WAT      O73399   7.660   1.516   3.163
24386WAT     H173400   7.649   1.555   3.072
24386WAT     H273401   7.749   1.470   3.169
24387WAT      O73402   3.817   6.307   2.190
24387WAT     H173403   3.726   6.266   2.187
24387WAT     H273404   3.885   6.236   2.209
24388WAT      O73405   9.011   7.184   7.488
24388WAT     H173406   9.059   7.097   7.476
24388WAT     H273407   9.012   7.209   7.585
24389WAT      O73408   8.837   2.886   2.058
24389WAT     H173409   8.865   2.925   2.146
24389WAT     H273410   8.900   2.915   1.987
24390WAT      O73411   7.001   9.253   0.223
24390WAT     H173412   6.911   9.210   0.224
24390WAT     H273413   7.054   9.219   0.146
24391WAT      O73414   8.753   6.056   9.672
24391WAT     H173415   8.747   6.151   9.640
24391WAT     H273416   8.759   5.996   9.592
24392WAT      O73417   2.250   6.534   2.398
24392WAT     H173418   2.241   6.594   2.319
24392WAT     H273419   2.292   6.584   2.473
24393WAT      O73420   8.659   9.299   7.430
24393WAT     H173421   8.745   9.266   7.391
24393WAT     H273422   8.613   9.223   7.476
24394WAT      O73423   0.747   3.910   3.834
24394WAT     H173424   0.738   3.934   3.930
24394WAT     H273425   0.658   3.884   3.797
24395WAT      O73426   5.046   3.221   4.102
24395WAT     H173427   5.026   3.123   4.097
24395WAT     H273428   5.090   3.241   4.190
24396WAT      O73429   8.272   2.766   9.073
24396WAT     H173430   8.287   2.743   9.169
24396WAT     H273431   8.354   2.809   9.035
24397WAT      O73432   0.990   1.220   5.271
24397WAT     H173433   1.012   1.124   5.252
24397WAT     H273434   0.933   1.225   5.353
24398WAT      O73435   0.042   2.180   9.701
24398WAT     H173436   0.084   2.161   9.789
24398WAT     H273437  -0.027   2.252   9.711
24399WAT      O73438   0.851   5.408   5.381
24399WAT     H173439   0.861   5.339   5.453
24399WAT     H273440   0.915   5.387   5.307
24400WAT      O73441   8.321   3.892   2.828
24400WAT     H173442   8.420   3.886   2.837
24400WAT     H273443   8.283   3.939   2.908
24401WAT      O73444   6.936   4.300   8.437
24401WAT     H173445   7.022   4.351   8.430
24401WAT     H273446   6.956   4.206   8.463
24402WAT      O73447   4.491   8.741   9.078
24402WAT     H173448   4.425   8.762   9.007
24402WAT     H273449   4.492   8.814   9.146
24403WAT      O73450   0.768   2.187   4.735
24403WAT     H173451   0.789   2.249   4.660
24403WAT     H273452   0.854   2.158   4.779
24404WAT      O73453   2.131   6.942   8.400
24404WAT     H173454   2.215   6.941   8.345
24404WAT     H273455   2.055   6.974   8.343
24405WAT      O73456   3.967   7.702   5.530
24405WAT     H173457   3.993   7.774   5.594
24405WAT     H273458   3.871   7.678   5.545
24406WAT      O73459   2.184   3.381   8.954
24406WAT     H173460   2.248   3.388   9.030
24406WAT     H273461   2.164   3.473   8.919
24407WAT      O73462   0.377   2.611   5.694
24407WAT     H173463   0.337   2.701   5.672
24407WAT     H273464   0.332   2.573   5.775
24408WAT      O73465   4.519   6.960   7.633
24408WAT     H173466   4.498   6.875   7.681
24408WAT     H273467   4.607   6.952   7.587
24409WAT      O73468   6.215   9.085   0.185
24409WAT     H173469   6.154   9.010   0.160
24409WAT     H273470   6.249   9.071   0.278
24410WAT      O73471   3.555   4.242   0.821
24410WAT     H173472   3.654   4.254   0.821
24410WAT     H273473   3.514   4.298   0.893
24411WAT      O73474   5.675   3.646   2.340
24411WAT     H173475   5.632   3.722   2.388
24411WAT     H273476   5.605   3.582   2.309
24412WAT      O73477   0.712   6.507   6.326
24412WAT     H173478   0.729   6.576   6.255
24412WAT     H273479   0.655   6.434   6.288
24413WAT      O73480   7.076   2.905   5.989
24413WAT     H173481   7.058   2.991   5.940
24413WAT     H273482   7.169   2.875   5.969
24414WAT      O73483   2.837   5.597   2.495
24414WAT     H173484   2.834   5.517   2.555
24414WAT     H273485   2.791   5.576   2.409
24415WAT      O73486   5.821   0.034   7.103
24415WAT     H173487   5.896   0.085   7.060
24415WAT     H273488   5.778   0.091   7.173
24416WAT      O73489   0.896   5.265   6.197
24416WAT     H173490   0.982   5.279   6.149
24416WAT     H273491   0.821   5.301   6.141
24417WAT      O73492   1.647   1.062   9.247
24417WAT     H173493   1.594   1.023   9.323
24417WAT     H273494   1.625   1.158   9.237
24418WAT      O73495   6.350   2.451   7.657
24418WAT     H173496   6.310   2.457   7.748
24418WAT     H273497   6.449   2.450   7.663
24419WAT      O73498   1.153   2.703   2.341
24419WAT     H173499   1.079   2.752   2.386
24419WAT     H273500   1.201   2.646   2.407
24420WAT      O73501   3.927   9.691   8.718
24420WAT     H173502   3.954   9.596   8.702
24420WAT     H273503   3.881   9.726   8.637
24421WAT      O73504   2.148   6.664   7.033
24421WAT     H173505   2.173   6.755   7.002
24421WAT     H273506   2.191   6.595   6.975
24422WAT      O73507   5.755   4.708   4.881
24422WAT     H173508   5.782   4.775   4.812
24422WAT     H273509   5.820   4.710   4.957
24423WAT      O73510   4.652   8.488   3.178
24423WAT     H173511   4.553   8.504   3.180
24423WAT     H273512   4.696   8.562   3.126
24424WAT      O73513   6.424   5.407   5.847
24424WAT     H173514   6.456   5.314   5.828
24424WAT     H273515   6.356   5.404   5.920
24425WAT      O73516   0.348   0.490   3.972
24425WAT     H173517   0.299   0.529   3.894
24425WAT     H273518   0.431   0.444   3.940
24426WAT      O73519   5.592   8.582   6.807
24426WAT     H173520   5.596   8.608   6.710
24426WAT     H273521   5.656   8.507   6.823
24427WAT      O73522   2.380   3.988   4.726
24427WAT     H173523   2.302   4.041   4.760
24427WAT     H273524   2.464   4.022   4.767
24428WAT      O73525   4.560   4.025   1.668
24428WAT     H173526   4.502   4.073   1.602
24428WAT     H273527   4.587   4.088   1.740
24429WAT      O73528   9.377   9.104   7.942
24429WAT     H173529   9.437   9.176   7.977
24429WAT     H273530   9.369   9.031   8.010
24430WAT      O73531   8.206   9.038   6.886
24430WAT     H173532   8.177   9.099   6.812
24430WAT     H273533   8.131   8.976   6.910
24431WAT      O73534   6.760   4.747   5.648
24431WAT     H173535   6.746   4.653   5.616
24431WAT     H273536   6.835   4.788   5.597
24432WAT      O73537   0.308   7.266   7.525
24432WAT     H173538   0.267   7.192   7.473
24432WAT     H273539   0.257   7.279   7.610
24433WAT      O73540   4.176   3.912   0.946
24433WAT     H173541   4.102   3.926   1.012
24433WAT     H273542   4.220   4.000   0.926
24434WAT      O73543   8.391   5.453   1.242
24434WAT     H173544   8.340   5.442   1.327
24434WAT     H273545   8.359   5.387   1.175
24435WAT      O73546   5.314   4.556   0.215
24435WAT     H173547   5.392   4.615   0.195
24435WAT     H273548   5.338   4.461   0.200
24436WAT      O73549   7.087   3.755   4.649
24436WAT     H173550   7.075   3.657   4.634
24436WAT     H273551   7.079   3.803   4.562
24437WAT      O73552   5.983   7.921   3.048
24437WAT     H173553   6.026   7.872   3.123
24437WAT     H273554   5.990   7.867   2.964
24438WAT      O73555   8.286   8.743   3.214
24438WAT     H173556   8.267   8.804   3.137
24438WAT     H273557   8.200   8.710   3.252
24439WAT      O73558   6.663   3.326   8.186
24439WAT     H173559   6.574   3.353   8.224
24439WAT     H273560   6.692   3.240   8.227
24440WAT      O73561   7.498   2.452   7.995
24440WAT     H173562   7.410   2.497   8.012
24440WAT     H273563   7.570   2.521   7.996
24441WAT      O73564   9.254   0.799   6.776
24441WAT     H173565   9.188   0.741   6.728
24441WAT     H273566   9.215   0.891   6.789
24442WAT      O73567   8.999   4.411   6.382
24442WAT     H173568   8.980   4.378   6.475
24442WAT     H273569   9.063   4.349   6.337
24443WAT      O73570   6.893   2.762   2.862
24443WAT     H173571   6.853   2.799   2.778
24443WAT     H273572   6.984   2.726   2.842
24444WAT      O73573   3.428   3.803   8.587
24444WAT     H173574   3.395   3.812   8.493
24444WAT     H273575   3.399   3.715   8.625
24445WAT      O73576   1.258   2.313   8.509
24445WAT     H173577   1.336   2.256   8.536
24445WAT     H273578   1.174   2.273   8.546
24446WAT      O73579   6.706   5.972   8.651
24446WAT     H173580   6.633   5.984   8.583
24446WAT     H273581   6.768   5.900   8.620
24447WAT      O73582   2.856   0.685   7.180
24447WAT     H173583   2.783   0.662   7.115
24447WAT     H273584   2.933   0.724   7.130
24448WAT      O73585   7.000   4.362   2.725
24448WAT     H173586   7.052   4.418   2.790
24448WAT     H273587   7.037   4.270   2.723
24449WAT      O73588   9.752   1.609   2.096
24449WAT     H173589   9.721   1.703   2.083
24449WAT     H273590   9.847   1.601   2.064
24450WAT      O73591   1.199   0.437   3.654
24450WAT     H173592   1.126   0.471   3.714
24450WAT     H273593   1.159   0.400   3.570
24451WAT      O73594   4.267   8.345   2.054
24451WAT     H173595   4.341   8.339   1.988
24451WAT     H273596   4.187   8.388   2.012
24452WAT      O73597   5.587   5.859   5.007
24452WAT     H173598   5.516   5.922   4.974
24452WAT     H273599   5.597   5.869   5.106
24453WAT      O73600   1.695   7.850   0.144
24453WAT     H173601   1.647   7.841   0.231
24453WAT     H273602   1.752   7.769   0.129
24454WAT      O73603   3.229   8.306   6.030
24454WAT     H173604   3.259   8.222   5.984
24454WAT     H273605   3.195   8.371   5.962
24455WAT      O73606   9.882   2.448   4.236
24455WAT     H173607   9.913   2.542   4.222
24455WAT     H273608   9.870   2.403   4.147
24456WAT      O73609   2.547   1.499   2.196
24456WAT     H173610   2.522   1.454   2.282
24456WAT     H273611   2.646   1.508   2.191
24457WAT      O73612   5.718   2.556   6.292
24457WAT     H173613   5.701   2.467   6.335
24457WAT     H273614   5.731   2.625   6.363
24458WAT      O73615   9.614   6.303   4.056
24458WAT     H173616   9.561   6.381   4.088
24458WAT     H273617   9.621   6.235   4.130
24459WAT      O73618   7.417   0.506   1.598
24459WAT     H173619   7.490   0.484   1.663
24459WAT     H273620   7.392   0.423   1.548
24460WAT      O73621   0.711   5.972   1.596
24460WAT     H173622   0.774   5.954   1.520
24460WAT     H273623   0.696   6.071   1.603
24461WAT      O73624   0.130   4.945   4.569
24461WAT     H173625   0.170   5.019   4.624
24461WAT     H273626   0.087   4.984   4.488
24462WAT      O73627   9.104   8.491   2.937
24462WAT     H173628   9.063   8.556   3.001
24462WAT     H273629   9.169   8.539   2.878
24463WAT      O73630   6.116   0.425   6.991
24463WAT     H173631   6.153   0.457   7.079
24463WAT     H273632   6.189   0.426   6.923
24464WAT      O73633   2.405   6.358   5.028
24464WAT     H173634   2.461   6.290   4.980
24464WAT     H273635   2.464   6.416   5.085
24465WAT      O73636   2.043   8.566   5.372
24465WAT     H173637   2.018   8.559   5.469
24465WAT     H273638   2.091   8.483   5.343
24466WAT      O73639   6.178   9.791   9.456
24466WAT     H173640   6.139   9.730   9.524
24466WAT     H273641   6.269   9.760   9.431
24467WAT      O73642   2.799   8.708   6.214
24467WAT     H173643   2.888   8.667   6.235
24467WAT     H273644   2.790   8.795   6.263
24468WAT      O73645   4.400   2.301   7.048
24468WAT     H173646   4.301   2.315   7.058
24468WAT     H273647   4.429   2.328   6.956
24469WAT      O73648   5.318   4.743   0.552
24469WAT     H173649   5.264   4.778   0.628
24469WAT     H273650   5.260   4.689   0.491
24470WAT      O73651   2.613   5.151   6.204
24470WAT     H173652   2.521   5.187   6.212
24470WAT     H273653   2.671   5.216   6.154
24471WAT      O73654   3.753   4.167   8.591
24471WAT     H173655   3.733   4.085   8.645
24471WAT     H273656   3.672   4.191   8.536
24472WAT      O73657   0.747   4.356   0.606
24472WAT     H173658   0.733   4.454   0.593
24472WAT     H273659   0.841   4.332   0.582
24473WAT      O73660   0.114   6.971   8.484
24473WAT     H173661   0.072   7.018   8.406
24473WAT     H273662   0.208   6.945   8.461
24474WAT      O73663   7.815   9.265   0.229
24474WAT     H173664   7.832   9.233   0.322
24474WAT     H273665   7.749   9.341   0.231
24475WAT      O73666   1.716   4.804   4.994
24475WAT     H173667   1.674   4.805   5.085
24475WAT     H273668   1.662   4.861   4.932
24476WAT      O73669   4.343   6.561   3.302
24476WAT     H173670   4.246   6.575   3.324
24476WAT     H273671   4.389   6.650   3.297
24477WAT      O73672   6.293   2.875   1.906
24477WAT     H173673   6.336   2.932   1.836
24477WAT     H273674   6.363   2.837   1.966
24478WAT      O73675   3.904   4.659   7.508
24478WAT     H173676   3.878   4.727   7.440
24478WAT     H273677   3.823   4.608   7.537
24479WAT      O73678   0.466   0.335   0.033
24479WAT     H173679   0.366   0.338   0.022
24479WAT     H273680   0.495   0.241   0.050
24480WAT      O73681   0.153   0.980   2.873
24480WAT     H173682   0.114   0.984   2.781
24480WAT     H273683   0.101   1.040   2.934
24481WAT      O73684   3.792   5.619   4.177
24481WAT     H173685   3.711   5.576   4.137
24481WAT     H273686   3.780   5.719   4.175
24482WAT      O73687   7.127   4.037   0.593
24482WAT     H173688   7.082   4.062   0.679
24482WAT     H273689   7.137   3.937   0.589
24483WAT      O73690   0.077   5.938   4.837
24483WAT     H173691   0.134   5.858   4.853
24483WAT     H273692   0.037   5.969   4.924
24484WAT      O73693   7.055   9.771   0.661
24484WAT     H173694   6.984   9.812   0.718
24484WAT     H273695   7.017   9.690   0.615
24485WAT      O73696   5.189   3.589   1.264
24485WAT     H173697   5.133   3.507   1.252
24485WAT     H273698   5.142   3.653   1.325
24486WAT      O73699   1.802   7.751   7.859
24486WAT     H173700   1.872   7.690   7.821
24486WAT     H273701   1.841   7.803   7.935
24487WAT      O73702   9.188   8.966   9.088
24487WAT     H173703   9.221   8.911   9.165
24487WAT     H273704   9.088   8.962   9.086
24488WAT      O73705   9.165   1.779   9.416
24488WAT     H173706   9.203   1.688   9.397
24488WAT     H273707   9.097   1.802   9.345
24489WAT      O73708   0.973   1.432   6.454
24489WAT     H173709   1.067   1.404   6.435
24489WAT     H273710   0.968   1.532   6.451
24490WAT      O73711   2.992   5.274   1.262
24490WAT     H173712   3.059   5.249   1.192
24490WAT     H273713   2.922   5.202   1.269
24491WAT      O73714   5.782   4.615   8.529
24491WAT     H173715   5.853   4.685   8.533
24491WAT     H273716   5.693   4.658   8.514
24492WAT      O73717   0.002   3.100   1.840
24492WAT     H173718   0.071   3.049   1.788
24492WAT     H273719  -0.063   3.036   1.881
24493WAT      O73720   7.952   1.531   9.040
24493WAT     H173721   8.019   1.596   9.005
24493WAT     H273722   7.991   1.439   9.041
24494WAT      O73723   2.557   2.983   4.080
24494WAT     H173724   2.540   2.894   4.038
24494WAT     H273725   2.628   2.974   4.150
24495WAT      O73726   3.712   8.072   3.368
24495WAT     H173727   3.728   8.015   3.449
24495WAT     H273728   3.767   8.038   3.292
24496WAT      O73729   2.270   9.452   9.620
24496WAT     H173730   2.237   9.545   9.606
24496WAT     H273731   2.266   9.429   9.717
24497WAT      O73732   6.174   3.114   0.950
24497WAT     H173733   6.233   3.128   0.870
24497WAT     H273734   6.203   3.031   0.998
24498WAT      O73735   3.540   2.203   7.611
24498WAT     H173736   3.591   2.170   7.690
24498WAT     H273737   3.505   2.126   7.559
24499WAT      O73738   8.052   7.682   4.328
24499WAT     H173739   8.076   7.591   4.294
24499WAT     H273740   8.134   7.740   4.327
24500WAT      O73741   8.493   8.748   4.681
24500WAT     H173742   8.433   8.821   4.649
24500WAT     H273743   8.499   8.677   4.610
24501WAT      O73744   2.576   2.869   7.728
24501WAT     H173745   2.644   2.910   7.667
24501WAT     H273746   2.494   2.925   7.727
24502WAT      O73747   8.575   0.353   9.287
24502WAT     H173748   8.498   0.345   9.225
24502WAT     H273749   8.625   0.438   9.268
24503WAT      O73750   6.151   8.726   6.342
24503WAT     H173751   6.169   8.814   6.298
24503WAT     H273752   6.207   8.656   6.299
24504WAT      O73753   8.291   5.490   6.270
24504WAT     H173754   8.239   5.410   6.240
24504WAT     H273755   8.228   5.560   6.304
24505WAT      O73756   5.652   3.309   1.081
24505WAT     H173757   5.633   3.330   1.177
24505WAT     H273758   5.740   3.350   1.055
24506WAT      O73759   6.097   3.386   8.914
24506WAT     H173760   6.072   3.289   8.917
24506WAT     H273761   6.170   3.400   8.847
24507WAT      O73762   5.827   9.352   7.919
24507WAT     H173763   5.758   9.396   7.862
24507WAT     H273764   5.888   9.297   7.862
24508WAT      O73765   8.130   1.435   4.025
24508WAT     H173766   8.133   1.389   3.936
24508WAT     H273767   8.195   1.511   4.026
24509WAT      O73768   5.307   7.347   2.377
24509WAT     H173769   5.390   7.400   2.356
24509WAT     H273770   5.272   7.306   2.293
24510WAT      O73771   8.129   1.125   5.976
24510WAT     H173772   8.164   1.050   6.033
24510WAT     H273773   8.205   1.183   5.946
24511WAT      O73774   8.484   3.192   5.087
24511WAT     H173775   8.540   3.275   5.089
24511WAT     H273776   8.540   3.115   5.058
24512WAT      O73777   1.261   3.060   6.314
24512WAT     H173778   1.220   3.054   6.405
24512WAT     H273779   1.317   2.979   6.297
24513WAT      O73780   8.630   6.671   2.643
24513WAT     H173781   8.619   6.730   2.563
24513WAT     H273782   8.595   6.718   2.724
24514WAT      O73783   3.452   5.438   1.768
24514WAT     H173784   3.386   5.368   1.794
24514WAT     H273785   3.500   5.409   1.685
24515WAT      O73786   1.200   5.268   5.478
24515WAT     H173787   1.161   5.232   5.393
24515WAT     H273788   1.287   5.314   5.457
24516WAT      O73789   8.591   4.575   0.612
24516WAT     H173790   8.558   4.502   0.672
24516WAT     H273791   8.678   4.610   0.646
24517WAT      O73792   3.093   3.876   0.163
24517WAT     H173793   3.148   3.926   0.230
24517WAT     H273794   3.132   3.889   0.071
24518WAT      O73795   9.373   1.436   9.675
24518WAT     H173796   9.308   1.447   9.750
24518WAT     H273797   9.443   1.507   9.682
24519WAT      O73798   3.418   4.108   9.690
24519WAT     H173799   3.379   4.056   9.614
24519WAT     H273800   3.517   4.092   9.693
24520WAT      O73801   1.350   7.248   0.562
24520WAT     H173802   1.273   7.184   0.558
24520WAT     H273803   1.435   7.201   0.537
24521WAT      O73804   4.498   9.080   2.004
24521WAT     H173805   4.582   9.045   2.046
24521WAT     H273806   4.515   9.105   1.909
24522WAT      O73807   1.881   5.556   5.204
24522WAT     H173808   1.795   5.589   5.167
24522WAT     H273809   1.933   5.509   5.132
24523WAT      O73810   6.077   4.395   1.538
24523WAT     H173811   6.004   4.433   1.481
24523WAT     H273812   6.088   4.298   1.519
24524WAT      O73813   1.795   4.484   8.170
24524WAT     H173814   1.717   4.455   8.226
24524WAT     H273815   1.829   4.407   8.118
24525WAT      O73816   0.417   6.833   3.772
24525WAT     H173817   0.353   6.888   3.719
24525WAT     H273818   0.367   6.784   3.844
24526WAT      O73819   7.149   9.524   0.789
24526WAT     H173820   7.137   9.620   0.765
24526WAT     H273821   7.081   9.469   0.739
24527WAT      O73822   3.299   7.684   1.676
24527WAT     H173823   3.200   7.676   1.663
24527WAT     H273824   3.346   7.615   1.622
24528WAT      O73825   3.758   6.449   4.587
24528WAT     H173826   3.826   6.408   4.526
24528WAT     H273827   3.783   6.431   4.682
24529WAT      O73828   4.584   2.191   5.716
24529WAT     H173829   4.601   2.093   5.712
24529WAT     H273830   4.540   2.214   5.802
24530WAT      O73831   7.841   1.559   8.341
24530WAT     H173832   7.844   1.516   8.431
24530WAT     H273833   7.771   1.630   8.341
24531WAT      O73834   8.927   5.848   4.410
24531WAT     H173835   8.856   5.836   4.479
24531WAT     H273836   9.005   5.790   4.432
24532WAT      O73837   0.188   0.756   0.472
24532WAT     H173838   0.156   0.779   0.564
24532WAT     H273839   0.259   0.686   0.479
24533WAT      O73840   3.187   1.326   1.484
24533WAT     H173841   3.253   1.391   1.522
24533WAT     H273842   3.141   1.278   1.559
24534WAT      O73843   1.961   7.214   8.745
24534WAT     H173844   2.025   7.284   8.713
24534WAT     H273845   1.914   7.175   8.666
24535WAT      O73846   0.690   3.680   1.691
24535WAT     H173847   0.690   3.776   1.660
24535WAT     H273848   0.721   3.676   1.786
24536WAT      O73849   0.548   0.443   5.638
24536WAT     H173850   0.574   0.346   5.635
24536WAT     H273851   0.455   0.453   5.603
24537WAT      O73852   9.287   1.290   0.855
24537WAT     H173853   9.192   1.268   0.833
24537WAT     H273854   9.347   1.257   0.781
24538WAT      O73855   1.727   9.530   0.865
24538WAT     H173856   1.750   9.445   0.819
24538WAT     H273857   1.743   9.521   0.963
24539WAT      O73858   2.014   9.242   1.649
24539WAT     H173859   2.094   9.216   1.702
24539WAT     H273860   1.979   9.330   1.682
24540WAT      O73861   5.127   0.609   3.246
24540WAT     H173862   5.222   0.584   3.226
24540WAT     H273863   5.066   0.548   3.196
24541WAT      O73864   2.998   9.399   6.449
24541WAT     H173865   3.069   9.449   6.499
24541WAT     H273866   3.002   9.424   6.352
24542WAT      O73867   9.201   3.464   1.434
24542WAT     H173868   9.280   3.415   1.471
24542WAT     H273869   9.201   3.458   1.334
24543WAT      O73870   0.365   1.640   1.802
24543WAT     H173871   0.436   1.685   1.856
24543WAT     H273872   0.371   1.541   1.816
24544WAT      O73873   8.488   5.198   8.061
24544WAT     H173874   8.453   5.129   8.123
24544WAT     H273875   8.535   5.269   8.113
24545WAT      O73876   7.268   3.936   9.824
24545WAT     H173877   7.182   3.903   9.786
24545WAT     H273878   7.290   4.026   9.786
24546WAT      O73879   0.877   8.465   2.143
24546WAT     H173880   0.805   8.398   2.162
24546WAT     H273881   0.836   8.553   2.120
24547WAT      O73882   3.209   0.809   8.066
24547WAT     H173883   3.307   0.796   8.075
24547WAT     H273884   3.171   0.840   8.154
24548WAT      O73885   4.382   2.018   1.601
24548WAT     H173886   4.481   2.019   1.608
24548WAT     H273887   4.355   1.964   1.521
24549WAT      O73888   4.253   4.442   5.368
24549WAT     H173889   4.178   4.378   5.355
24549WAT     H273890   4.225   4.514   5.432
24550WAT      O73891   5.600   0.246   4.709
24550WAT     H173892   5.683   0.276   4.662
24550WAT     H273893   5.609   0.264   4.807
24551WAT      O73894   7.987   9.239   7.705
24551WAT     H173895   7.914   9.174   7.682
24551WAT     H273896   8.057   9.192   7.758
24552WAT      O73897   9.177   5.427   7.829
24552WAT     H173898   9.144   5.513   7.867
24552WAT     H273899   9.201   5.365   7.904
24553WAT      O73900   7.451   4.947   4.305
24553WAT     H173901   7.359   4.913   4.326
24553WAT     H273902   7.518   4.878   4.333
24554WAT      O73903   1.242   3.918   7.957
24554WAT     H173904   1.287   3.842   8.005
24554WAT     H273905   1.212   3.888   7.867
24555WAT      O73906   4.393   6.164   0.977
24555WAT     H173907   4.482   6.118   0.972
24555WAT     H273908   4.333   6.128   0.905
24556WAT      O73909   5.764   9.529   4.344
24556WAT     H173910   5.853   9.558   4.379
24556WAT     H273911   5.737   9.443   4.388
24557WAT      O73912   2.655   8.751   9.231
24557WAT     H173913   2.599   8.669   9.220
24557WAT     H273914   2.660   8.801   9.144
24558WAT      O73915   1.507   0.502   7.581
24558WAT     H173916   1.558   0.445   7.517
24558WAT     H273917   1.419   0.528   7.541
24559WAT      O73918   7.942   2.956   4.400
24559WAT     H173919   7.958   2.950   4.498
24559WAT     H273920   7.895   3.042   4.379
24560WAT      O73921   9.602   2.364   8.751
24560WAT     H173922   9.543   2.363   8.670
24560WAT     H273923   9.675   2.431   8.738
24561WAT      O73924   4.231   0.677   1.968
24561WAT     H173925   4.321   0.707   1.936
24561WAT     H273926   4.172   0.659   1.889
24562WAT      O73927   1.122   8.487   7.973
24562WAT     H173928   1.112   8.494   7.874
24562WAT     H273929   1.205   8.534   8.002
24563WAT      O73930   6.811   2.364   3.315
24563WAT     H173931   6.729   2.342   3.263
24563WAT     H273932   6.799   2.452   3.361
24564WAT      O73933   3.138   3.930   1.715
24564WAT     H173934   3.183   3.983   1.787
24564WAT     H273935   3.207   3.892   1.654
24565WAT      O73936   2.586   6.015   3.213
24565WAT     H173937   2.515   5.955   3.177
24565WAT     H273938   2.658   6.026   3.145
24566WAT      O73939   8.409   7.629   8.204
24566WAT     H173940   8.409   7.616   8.105
24566WAT     H273941   8.401   7.727   8.224
24567WAT      O73942   6.565   7.115   3.881
24567WAT     H173943   6.521   7.126   3.970
24567WAT     H273944   6.644   7.176   3.875
24568WAT      O73945   1.469   3.110   0.885
24568WAT     H173946   1.450   3.184   0.949
24568WAT     H273947   1.387   3.093   0.829
24569WAT      O73948   9.345   9.230   0.605
24569WAT     H173949   9.411   9.261   0.673
24569WAT     H273950   9.332   9.302   0.536
24570WAT      O73951   6.504   4.094   1.830
24570WAT     H173952   6.463   4.021   1.884
24570WAT     H273953   6.433   4.136   1.773
24571WAT      O73954   7.148   0.179   9.649
24571WAT     H173955   7.074   0.201   9.586
24571WAT     H273956   7.116   0.186   9.743
24572WAT      O73957   0.913   6.935   7.242
24572WAT     H173958   0.956   6.891   7.320
24572WAT     H273959   0.864   6.867   7.188
24573WAT      O73960   7.357   4.404   7.445
24573WAT     H173961   7.312   4.493   7.456
24573WAT     H273962   7.313   4.353   7.372
24574WAT      O73963   6.012   5.935   2.933
24574WAT     H173964   6.106   5.934   2.968
24574WAT     H273965   5.949   5.907   3.007
24575WAT      O73966   1.279   1.815   3.224
24575WAT     H173967   1.373   1.784   3.210
24575WAT     H273968   1.253   1.877   3.150
24576WAT      O73969   5.984   1.293   2.820
24576WAT     H173970   5.926   1.348   2.760
24576WAT     H273971   6.032   1.224   2.766
24577WAT      O73972   2.605   6.860   8.650
24577WAT     H173973   2.611   6.803   8.731
24577WAT     H273974   2.684   6.923   8.647
24578WAT      O73975   9.541   6.286   7.370
24578WAT     H173976   9.622   6.333   7.404
24578WAT     H273977   9.566   6.227   7.292
24579WAT      O73978   0.294   2.199   6.895
24579WAT     H173979   0.371   2.191   6.957
24579WAT     H273980   0.210   2.171   6.942
24580WAT      O73981   3.191   4.810   6.423
24580WAT     H173982   3.222   4.818   6.518
24580WAT     H273983   3.104   4.858   6.413
24581WAT      O73984   4.155   1.976   4.307
24581WAT     H173985   4.131   2.035   4.231
24581WAT     H273986   4.208   2.028   4.375
24582WAT      O73987   4.001   1.012   2.204
24582WAT     H173988   4.021   0.918   2.176
24582WAT     H273989   4.011   1.020   2.303
24583WAT      O73990   5.887   7.233   3.678
24583WAT     H173991   5.790   7.251   3.665
24583WAT     H273992   5.936   7.320   3.690
24584WAT      O73993   8.670   5.654   7.145
24584WAT     H173994   8.650   5.599   7.227
24584WAT     H273995   8.756   5.703   7.159
24585WAT      O73996   7.388   4.062   0.569
24585WAT     H173997   7.293   4.037   0.583
24585WAT     H273998   7.410   4.055   0.471
24586WAT      O73999   9.805   2.177   6.954
24586WAT     H174000   9.831   2.240   7.027
24586WAT     H274001   9.739   2.111   6.989
24587WAT      O74002   7.735   3.562   2.560
24587WAT     H174003   7.713   3.467   2.536
24587WAT     H274004   7.705   3.580   2.654
24588WAT      O74005   0.316   1.703   7.949
24588WAT     H174006   0.244   1.643   7.914
24588WAT     H274007   0.283   1.797   7.952
24589WAT      O74008   1.920   8.202   8.118
24589WAT     H174009   1.987   8.246   8.177
24589WAT     H274010   1.859   8.272   8.080
24590WAT      O74011   7.421   8.753   3.195
24590WAT     H174012   7.364   8.738   3.276
24590WAT     H274013   7.497   8.813   3.219
24591WAT      O74014   3.052   5.374   8.765
24591WAT     H174015   3.138   5.328   8.744
24591WAT     H274016   3.066   5.473   8.768
24592WAT      O74017   4.703   7.176   7.777
24592WAT     H174018   4.618   7.124   7.766
24592WAT     H274019   4.716   7.200   7.873
24593WAT      O74020   6.021   9.845   3.176
24593WAT     H174021   6.073   9.793   3.243
24593WAT     H274022   5.925   9.816   3.178
24594WAT      O74023   3.188   8.770   3.961
24594WAT     H174024   3.224   8.849   4.010
24594WAT     H274025   3.214   8.686   4.010
24595WAT      O74026   5.902   9.342   7.228
24595WAT     H174027   5.870   9.436   7.211
24595WAT     H274028   5.824   9.286   7.257
24596WAT      O74029   8.487   0.339   5.168
24596WAT     H174030   8.510   0.288   5.250
24596WAT     H274031   8.491   0.279   5.088
24597WAT      O74032   2.699   5.522   1.543
24597WAT     H174033   2.756   5.603   1.527
24597WAT     H274034   2.733   5.472   1.623
24598WAT      O74035   7.266   8.005   5.706
24598WAT     H174036   7.311   7.930   5.656
24598WAT     H274037   7.243   8.078   5.643
24599WAT      O74038   3.993   2.909   3.176
24599WAT     H174039   3.993   2.880   3.080
24599WAT     H274040   3.928   2.852   3.227
24600WAT      O74041   9.399   7.520   4.907
24600WAT     H174042   9.455   7.484   4.832
24600WAT     H274043   9.317   7.463   4.918
24601WAT      O74044   4.920   6.345   8.337
24601WAT     H174045   4.996   6.366   8.275
24601WAT     H274046   4.942   6.262   8.389
24602WAT      O74047   2.003   5.904   8.381
24602WAT     H174048   1.936   5.873   8.313
24602WAT     H274049   1.985   5.858   8.468
24603WAT      O74050   1.707   0.323   1.597
24603WAT     H174051   1.616   0.336   1.558
24603WAT     H274052   1.713   0.371   1.684
24604WAT      O74053   9.613   5.561   0.850
24604WAT     H174054   9.563   5.517   0.925
24604WAT     H274055   9.686   5.501   0.818
24605WAT      O74056   7.156   4.478   5.613
24605WAT     H174057   7.164   4.559   5.671
24605WAT     H274058   7.089   4.495   5.541
24606WAT      O74059   3.040   4.757   0.888
24606WAT     H174060   2.973   4.759   0.962
24606WAT     H274061   3.130   4.731   0.924
24607WAT      O74062   2.667   2.041   5.554
24607WAT     H174063   2.737   2.034   5.624
24607WAT     H274064   2.589   2.092   5.590
24608WAT      O74065   5.965   2.145   2.010
24608WAT     H174066   5.911   2.199   2.075
24608WAT     H274067   5.903   2.096   1.949
24609WAT      O74068   2.522   2.061   4.723
24609WAT     H174069   2.428   2.094   4.728
24609WAT     H274070   2.526   1.968   4.760
24610WAT      O74071   4.928   5.104   8.404
24610WAT     H174072   4.920   5.151   8.316
24610WAT     H274073   4.963   5.168   8.473
24611WAT      O74074   4.777   2.668   1.580
24611WAT     H174075   4.678   2.666   1.566
24611WAT     H274076   4.809   2.762   1.575
24612WAT      O74077   2.223   0.391   4.149
24612WAT     H174078   2.296   0.362   4.211
24612WAT     H274079   2.211   0.490   4.156
24613WAT      O74080   4.010   7.199   4.122
24613WAT     H174081   3.948   7.277   4.115
24613WAT     H274082   3.960   7.119   4.156
24614WAT      O74083   6.819   7.691   5.143
24614WAT     H174084   6.811   7.621   5.215
24614WAT     H274085   6.911   7.729   5.144
24615WAT      O74086   8.449   6.726   8.276
24615WAT     H174087   8.427   6.821   8.299
24615WAT     H274088   8.440   6.713   8.177
24616WAT      O74089   0.531   6.802   7.937
24616WAT     H174090   0.623   6.791   7.900
24616WAT     H274091   0.507   6.899   7.939
24617WAT      O74092   6.608   8.035   7.600
24617WAT     H174093   6.661   7.956   7.571
24617WAT     H274094   6.660   8.119   7.582
24618WAT      O74095   8.965   6.454   3.104
24618WAT     H174096   8.926   6.524   3.164
24618WAT     H274097   9.055   6.428   3.137
24619WAT      O74098   8.374   3.369   1.865
24619WAT     H174099   8.351   3.459   1.904
24619WAT     H274100   8.349   3.367   1.769
24620WAT      O74101   4.238   1.639   8.218
24620WAT     H174102   4.187   1.641   8.132
24620WAT     H274103   4.223   1.724   8.268
24621WAT      O74104   5.286   4.387   6.396
24621WAT     H174105   5.376   4.382   6.438
24621WAT     H274106   5.261   4.483   6.382
24622WAT      O74107   4.252   5.203   4.462
24622WAT     H174108   4.331   5.239   4.414
24622WAT     H274109   4.271   5.110   4.493
24623WAT      O74110   7.131   2.691   4.779
24623WAT     H174111   7.189   2.612   4.801
24623WAT     H274112   7.076   2.670   4.698
24624WAT      O74113   3.575   2.361   9.301
24624WAT     H174114   3.543   2.448   9.264
24624WAT     H274115   3.509   2.327   9.368
24625WAT      O74116   0.600   7.998   5.198
24625WAT     H174117   0.651   8.079   5.227
24625WAT     H274118   0.588   7.936   5.275
24626WAT      O74119   2.278   3.993   3.710
24626WAT     H174120   2.282   3.894   3.697
24626WAT     H274121   2.364   4.024   3.751
24627WAT      O74122   4.727   7.898   7.811
24627WAT     H174123   4.663   7.975   7.816
24627WAT     H274124   4.819   7.930   7.832
24628WAT      O74125   8.719   4.499   7.149
24628WAT     H174126   8.768   4.584   7.167
24628WAT     H274127   8.758   4.426   7.205
24629WAT      O74128   2.894   6.751   5.339
24629WAT     H174129   2.991   6.770   5.357
24629WAT     H274130   2.885   6.661   5.296
24630WAT      O74131   3.930   4.734   1.071
24630WAT     H174132   3.845   4.702   1.030
24630WAT     H274133   3.915   4.824   1.112
24631WAT      O74134   8.166   0.147   5.148
24631WAT     H174135   8.091   0.082   5.155
24631WAT     H274136   8.253   0.100   5.161
24632WAT      O74137   6.310   2.109   5.778
24632WAT     H174138   6.230   2.056   5.806
24632WAT     H274139   6.393   2.061   5.806
24633WAT      O74140   1.792   6.394   7.772
24633WAT     H174141   1.811   6.360   7.864
24633WAT     H274142   1.695   6.382   7.751
24634WAT      O74143   5.142   9.484   5.412
24634WAT     H174144   5.161   9.538   5.494
24634WAT     H274145   5.056   9.435   5.424
24635WAT      O74146   0.940   1.618   7.078
24635WAT     H174147   0.888   1.562   7.014
24635WAT     H274148   1.036   1.622   7.050
24636WAT      O74149   8.296   3.337   7.132
24636WAT     H174150   8.287   3.381   7.221
24636WAT     H274151   8.206   3.326   7.091
24637WAT      O74152   6.599   4.919   2.317
24637WAT     H174153   6.533   4.988   2.285
24637WAT     H274154   6.595   4.839   2.258
24638WAT      O74155   6.201   6.092   7.568
24638WAT     H174156   6.174   6.161   7.500
24638WAT     H274157   6.120   6.062   7.617
24639WAT      O74158   3.961   4.243   9.776
24639WAT     H174159   3.992   4.151   9.801
24639WAT     H274160   3.946   4.297   9.858
24640WAT      O74161   8.358   6.091   6.062
24640WAT     H174162   8.352   6.179   6.013
24640WAT     H274163   8.268   6.047   6.062
24641WAT      O74164   7.888   0.018   4.993
24641WAT     H174165   7.921  -0.075   4.975
24641WAT     H274166   7.959   0.084   4.969
24642WAT      O74167   2.223   5.945   4.641
24642WAT     H174168   2.150   5.883   4.613
24642WAT     H274169   2.271   5.906   4.720
24643WAT      O74170   1.231   5.655   7.858
24643WAT     H174171   1.168   5.648   7.935
24643WAT     H274172   1.180   5.672   7.774
24644WAT      O74173   8.412   0.705   6.322
24644WAT     H174174   8.422   0.642   6.245
24644WAT     H274175   8.414   0.654   6.407
24645WAT      O74176   4.042   4.050   2.071
24645WAT     H174177   4.063   4.147   2.086
24645WAT     H274178   3.970   4.021   2.134
24646WAT      O74179   1.272   6.160   9.599
24646WAT     H174180   1.310   6.252   9.603
24646WAT     H274181   1.183   6.163   9.554
24647WAT      O74182   4.083   0.606   4.265
24647WAT     H174183   4.012   0.668   4.231
24647WAT     H274184   4.040   0.538   4.325
24648WAT      O74185   8.596   1.588   4.281
24648WAT     H174186   8.691   1.566   4.303
24648WAT     H274187   8.535   1.526   4.330
24649WAT      O74188   2.505   1.580   5.674
24649WAT     H174189   2.581   1.639   5.645
24649WAT     H274190   2.478   1.520   5.599
24650WAT      O74191   9.464   3.865   8.571
24650WAT     H174192   9.424   3.897   8.657
24650WAT     H274193   9.563   3.869   8.577
24651WAT      O74194   9.388   9.822   8.291
24651WAT     H174195   9.305   9.868   8.324
24651WAT     H274196   9.412   9.747   8.352
24652WAT      O74197   2.373   3.575   8.567
24652WAT     H174198   2.330   3.543   8.483
24652WAT     H274199   2.347   3.670   8.583
24653WAT      O74200   4.827   1.795   9.332
24653WAT     H174201   4.827   1.716   9.271
24653WAT     H274202   4.900   1.858   9.305
24654WAT      O74203   6.041   7.087   1.414
24654WAT     H174204   6.063   7.001   1.368
24654WAT     H274205   5.942   7.094   1.427
24655WAT      O74206   7.544   9.565   8.268
24655WAT     H174207   7.618   9.524   8.320
24655WAT     H274208   7.470   9.591   8.329
24656WAT      O74209   5.554   0.518   2.937
24656WAT     H174210   5.620   0.575   2.889
24656WAT     H274211   5.535   0.555   3.027
24657WAT      O74212   3.263   4.689   1.028
24657WAT     H174213   3.348   4.646   0.999
24657WAT     H274214   3.225   4.637   1.105
24658WAT      O74215   6.022   7.035   9.595
24658WAT     H174216   6.072   7.121   9.583
24658WAT     H274217   5.932   7.054   9.634
24659WAT      O74218   3.622   1.571   9.100
24659WAT     H174219   3.558   1.538   9.170
24659WAT     H274220   3.582   1.649   9.052
24660WAT      O74221   1.326   8.084   0.499
24660WAT     H174222   1.271   8.097   0.416
24660WAT     H274223   1.413   8.131   0.488
24661WAT      O74224   1.203   8.164   4.856
24661WAT     H174225   1.166   8.075   4.828
24661WAT     H274226   1.128   8.228   4.874
24662WAT      O74227   0.907   3.672   8.690
24662WAT     H174228   0.897   3.614   8.771
24662WAT     H274229   1.004   3.682   8.668
24663WAT      O74230   1.625   8.596   4.054
24663WAT     H174231   1.610   8.502   4.023
24663WAT     H274232   1.588   8.607   4.146
24664WAT      O74233   3.033   8.617   8.441
24664WAT     H174234   3.034   8.655   8.349
24664WAT     H274235   2.942   8.581   8.461
24665WAT      O74236   2.288   3.437   5.252
24665WAT     H174237   2.373   3.448   5.303
24665WAT     H274238   2.287   3.498   5.173
24666WAT      O74239   5.488   1.485   2.779
24666WAT     H174240   5.445   1.498   2.869
24666WAT     H274241   5.434   1.419   2.726
24667WAT      O74242   1.186   2.717   8.068
24667WAT     H174243   1.144   2.756   7.987
24667WAT     H274244   1.182   2.783   8.143
24668WAT      O74245   4.919   0.878   8.373
24668WAT     H174246   4.998   0.904   8.430
24668WAT     H274247   4.842   0.937   8.394
24669WAT      O74248   1.145   3.574   6.804
24669WAT     H174249   1.065   3.560   6.863
24669WAT     H274250   1.225   3.531   6.846
24670WAT      O74251   1.065   4.647   8.891
24670WAT     H174252   1.000   4.608   8.825
24670WAT     H274253   1.100   4.573   8.950
24671WAT      O74254   7.999   1.818   2.155
24671WAT     H174255   8.051   1.749   2.104
24671WAT     H274256   7.924   1.773   2.204
24672WAT      O74257   4.683   7.304   0.022
24672WAT     H174258   4.603   7.349   0.061
24672WAT     H274259   4.713   7.231   0.083
24673WAT      O74260   5.417   9.601   7.910
24673WAT     H174261   5.405   9.552   7.996
24673WAT     H274262   5.438   9.697   7.930
24674WAT      O74263   5.348   3.314   4.910
24674WAT     H174264   5.385   3.359   4.829
24674WAT     H274265   5.280   3.245   4.883
24675WAT      O74266   8.040   4.041   0.244
24675WAT     H174267   8.125   3.987   0.242
24675WAT     H274268   8.053   4.123   0.299
24676WAT      O74269   8.004   4.717   9.868
24676WAT     H174270   8.002   4.661   9.785
24676WAT     H274271   8.097   4.752   9.882
24677WAT      O74272   1.917   7.031   4.006
24677WAT     H174273   1.909   7.128   4.030
24677WAT     H274274   2.012   7.002   4.020
24678WAT      O74275   3.235   4.467   5.068
24678WAT     H174276   3.331   4.439   5.073
24678WAT     H274277   3.221   4.522   4.985
24679WAT      O74278   9.831   2.646   7.350
24679WAT     H174279   9.824   2.549   7.324
24679WAT     H274280   9.863   2.653   7.444
24680WAT      O74281   4.147   6.049   1.491
24680WAT     H174282   4.088   6.111   1.440
24680WAT     H274283   4.203   5.995   1.428
24681WAT      O74284   7.072   4.148   8.771
24681WAT     H174285   7.004   4.125   8.702
24681WAT     H274286   7.046   4.234   8.817
24682WAT      O74287   2.176   4.974   9.739
24682WAT     H174288   2.093   4.970   9.795
24682WAT     H274289   2.191   5.068   9.709
24683WAT      O74290   7.420   1.372   3.218
24683WAT     H174291   7.446   1.280   3.248
24683WAT     H274292   7.501   1.418   3.180
24684WAT      O74293   8.109   5.085   0.122
24684WAT     H174294   8.139   5.157   0.059
24684WAT     H274295   8.042   5.026   0.076
24685WAT      O74296   3.946   8.627   9.860
24685WAT     H174297   4.026   8.677   9.894
24685WAT     H274298   3.880   8.615   9.934
24686WAT      O74299   8.352   8.356   2.486
24686WAT     H174300   8.317   8.405   2.565
24686WAT     H274301   8.300   8.383   2.405
24687WAT      O74302   5.441   5.603   5.647
24687WAT     H174303   5.360   5.648   5.683
24687WAT     H274304   5.500   5.670   5.602
24688WAT      O74305   1.264   2.216   1.169
24688WAT     H174306   1.243   2.188   1.075
24688WAT     H274307   1.183   2.201   1.227
24689WAT      O74308   7.125   6.713   6.142
24689WAT     H174309   7.156   6.734   6.049
24689WAT     H274310   7.085   6.621   6.144
24690WAT      O74311   2.019   1.945   3.074
24690WAT     H174312   2.052   1.989   2.990
24690WAT     H274313   2.087   1.879   3.106
24691WAT      O74314   6.031   5.741   4.651
24691WAT     H174315   5.934   5.765   4.661
24691WAT     H274316   6.087   5.816   4.685
24692WAT      O74317   5.366   8.829   9.691
24692WAT     H174318   5.381   8.733   9.668
24692WAT     H274319   5.309   8.835   9.773
24693WAT      O74320   4.581   2.868   6.543
24693WAT     H174321   4.594   2.883   6.445
24693WAT     H274322   4.633   2.788   6.572
24694WAT      O74323   6.615   6.029   6.081
24694WAT     H174324   6.641   5.957   6.016
24694WAT     H274325   6.580   5.987   6.164
24695WAT      O74326   2.281   3.845   8.601
24695WAT     H174327   2.233   3.926   8.566
24695WAT     H274328   2.313   3.863   8.694
24696WAT      O74329   6.039   7.796   6.747
24696WAT     H174330   6.050   7.893   6.771
24696WAT     H274331   6.004   7.789   6.654
24697WAT      O74332   9.510   1.786   9.244
24697WAT     H174333   9.468   1.819   9.159
24697WAT     H274334   9.608   1.808   9.242
24698WAT      O74335   6.709   2.164   6.711
24698WAT     H174336   6.672   2.255   6.691
24698WAT     H274337   6.690   2.103   6.634
24699WAT      O74338   0.217   4.500   6.273
24699WAT     H174339   0.164   4.416   6.262
24699WAT     H274340   0.312   4.484   6.248
24700WAT      O74341   4.813   1.536   9.211
24700WAT     H174342   4.908   1.506   9.199
24700WAT     H274343   4.752   1.463   9.179
24701WAT      O74344   1.459   8.322   8.831
24701WAT     H174345   1.446   8.313   8.930
24701WAT     H274346   1.394   8.263   8.784
24702WAT      O74347   3.331   7.953   1.700
24702WAT     H174348   3.312   7.981   1.794
24702WAT     H274349   3.330   7.854   1.694
24703WAT      O74350   3.786   4.222   5.231
24703WAT     H174351   3.801   4.152   5.161
24703WAT     H274352   3.717   4.191   5.296
24704WAT      O74353   5.329   0.772   6.012
24704WAT     H174354   5.266   0.695   6.022
24704WAT     H274355   5.293   0.852   6.060
24705WAT      O74356   4.878   2.569   0.644
24705WAT     H174357   4.912   2.548   0.552
24705WAT     H274358   4.803   2.507   0.667
24706WAT      O74359   4.606   7.542   2.436
24706WAT     H174360   4.642   7.491   2.358
24706WAT     H274361   4.529   7.598   2.406
24707WAT      O74362   0.215   2.019   6.404
24707WAT     H174363   0.233   2.085   6.477
24707WAT     H274364   0.292   2.019   6.340
24708WAT      O74365   5.598   0.200   6.206
24708WAT     H174366   5.566   0.143   6.130
24708WAT     H274367   5.676   0.155   6.250
24709WAT      O74368   1.943   9.821   5.577
24709WAT     H174369   1.983   9.814   5.668
24709WAT     H274370   1.873   9.892   5.576
24710WAT      O74371   4.523   9.675   1.668
24710WAT     H174372   4.438   9.634   1.637
24710WAT     H274373   4.598   9.610   1.653
24711WAT      O74374   6.986   4.787   9.597
24711WAT     H174375   7.027   4.819   9.512
24711WAT     H274376   7.043   4.815   9.674
24712WAT      O74377   7.352   4.297   6.292
24712WAT     H174378   7.321   4.203   6.306
24712WAT     H274379   7.444   4.296   6.254
24713WAT      O74380   2.637   2.072   7.807
24713WAT     H174381   2.665   2.080   7.712
24713WAT     H274382   2.539   2.091   7.815
24714WAT      O74383   1.887   1.711   0.895
24714WAT     H174384   1.801   1.763   0.891
24714WAT     H274385   1.938   1.726   0.810
24715WAT      O74386   2.697   1.910   8.757
24715WAT     H174387   2.606   1.896   8.795
24715WAT     H274388   2.739   1.821   8.740
24716WAT      O74389   2.487   5.178   4.348
24716WAT     H174390   2.412   5.124   4.309
24716WAT     H274391   2.560   5.185   4.281
24717WAT      O74392   0.027   0.679   1.811
24717WAT     H174393  -0.036   0.607   1.841
24717WAT     H274394   0.029   0.682   1.711
24718WAT      O74395   3.633   6.134   9.648
24718WAT     H174396   3.593   6.187   9.722
24718WAT     H274397   3.730   6.155   9.640
24719WAT      O74398   9.814   7.820   2.233
24719WAT     H174399   9.907   7.806   2.199
24719WAT     H274400   9.765   7.733   2.233
24720WAT      O74401   8.165   2.334   2.788
24720WAT     H174402   8.261   2.333   2.762
24720WAT     H274403   8.140   2.244   2.825
24721WAT      O74404   7.466   3.556   2.286
24721WAT     H174405   7.518   3.638   2.311
24721WAT     H274406   7.412   3.575   2.204
24722WAT      O74407   4.377   7.541   6.725
24722WAT     H174408   4.350   7.471   6.790
24722WAT     H274409   4.295   7.580   6.682
24723WAT      O74410   8.548   7.452   3.177
24723WAT     H174411   8.596   7.439   3.090
24723WAT     H274412   8.478   7.381   3.188
24724WAT      O74413   6.760   0.421   7.029
24724WAT     H174414   6.808   0.491   6.978
24724WAT     H274415   6.752   0.449   7.125
24725WAT      O74416   2.817   6.447   8.902
24725WAT     H174417   2.832   6.415   8.809
24725WAT     H274418   2.816   6.370   8.965
24726WAT      O74419   3.261   5.626   0.344
24726WAT     H174420   3.216   5.553   0.395
24726WAT     H274421   3.193   5.673   0.288
24727WAT      O74422   6.168   4.217   4.190
24727WAT     H174423   6.160   4.276   4.110
24727WAT     H274424   6.258   4.173   4.191
24728WAT      O74425   7.440   5.989   2.827
24728WAT     H174426   7.458   6.070   2.884
24728WAT     H274427   7.385   6.015   2.748
24729WAT      O74428   9.016   7.291   9.431
24729WAT     H174429   9.058   7.258   9.347
24729WAT     H274430   8.942   7.354   9.410
24730WAT      O74431   7.423   6.875   9.180
24730WAT     H174432   7.351   6.944   9.170
24730WAT     H274433   7.408   6.822   9.263
24731WAT      O74434   7.451   4.440   6.591
24731WAT     H174435   7.373   4.380   6.606
24731WAT     H274436   7.473   4.488   6.676
24732WAT      O74437   5.703   9.240   2.624
24732WAT     H174438   5.793   9.280   2.638
24732WAT     H274439   5.655   9.290   2.552
24733WAT      O74440   3.173   8.403   4.521
24733WAT     H174441   3.142   8.469   4.589
24733WAT     H274442   3.271   8.384   4.535
24734WAT      O74443   2.545   1.746   4.592
24734WAT     H174444   2.617   1.683   4.623
24734WAT     H274445   2.470   1.745   4.657
24735WAT      O74446   9.178   6.464   1.166
24735WAT     H174447   9.237   6.448   1.087
24735WAT     H274448   9.188   6.559   1.196
24736WAT      O74449   8.153   2.356   4.087
24736WAT     H174450   8.175   2.285   4.154
24736WAT     H274451   8.064   2.397   4.109
24737WAT      O74452   2.407   9.782   6.136
24737WAT     H174453   2.388   9.690   6.169
24737WAT     H274454   2.503   9.804   6.155
24738WAT      O74455   6.365   5.976   9.142
24738WAT     H174456   6.370   5.952   9.045
24738WAT     H274457   6.275   6.016   9.161
24739WAT      O74458   9.450   0.819   3.221
24739WAT     H174459   9.485   0.909   3.195
24739WAT     H274460   9.418   0.771   3.140
24740WAT      O74461   2.639   1.243   2.811
24740WAT     H174462   2.663   1.320   2.752
24740WAT     H274463   2.714   1.224   2.874
24741WAT      O74464   9.075   8.322   2.216
24741WAT     H174465   9.055   8.413   2.178
24741WAT     H274466   9.011   8.303   2.291
24742WAT      O74467   5.852   5.596   3.905
24742WAT     H174468   5.824   5.559   3.816
24742WAT     H274469   5.836   5.528   3.976
24743WAT      O74470   5.187   8.687   6.733
24743WAT     H174471   5.237   8.769   6.707
24743WAT     H274472   5.233   8.643   6.811
24744WAT      O74473   3.799   3.182   6.997
24744WAT     H174474   3.813   3.210   7.092
24744WAT     H274475   3.760   3.258   6.945
24745WAT      O74476   0.615   5.179   5.093
24745WAT     H174477   0.539   5.243   5.088
24745WAT     H274478   0.601   5.105   5.026
24746WAT      O74479   3.676   3.235   3.693
24746WAT     H174480   3.723   3.238   3.781
24746WAT     H274481   3.691   3.320   3.644
24747WAT      O74482   8.807   0.966   5.884
24747WAT     H174483   8.820   1.061   5.910
24747WAT     H274484   8.749   0.960   5.803
24748WAT      O74485   5.530   5.355   5.715
24748WAT     H174486   5.514   5.294   5.637
24748WAT     H274487   5.502   5.448   5.690
24749WAT      O74488   6.090   5.690   8.264
24749WAT     H174489   6.134   5.779   8.256
24749WAT     H274490   6.156   5.618   8.239
24750WAT      O74491   4.460   4.796   8.868
24750WAT     H174492   4.404   4.879   8.863
24750WAT     H274493   4.554   4.820   8.891
24751WAT      O74494   3.787   0.484   3.494
24751WAT     H174495   3.871   0.481   3.439
24751WAT     H274496   3.811   0.482   3.591
24752WAT      O74497   2.471   2.595   8.097
24752WAT     H174498   2.519   2.510   8.121
24752WAT     H274499   2.476   2.609   7.998
24753WAT      O74500   3.724   7.009   6.657
24753WAT     H174501   3.684   7.057   6.735
24753WAT     H274502   3.663   7.018   6.578
24754WAT      O74503   7.042   5.898   0.268
24754WAT     H174504   6.963   5.871   0.322
24754WAT     H274505   7.082   5.982   0.306
24755WAT      O74506   6.450   1.231   5.311
24755WAT     H174507   6.409   1.248   5.222
24755WAT     H274508   6.476   1.318   5.353
24756WAT      O74509   7.637   1.428   7.810
24756WAT     H174510   7.656   1.471   7.722
24756WAT     H274511   7.717   1.376   7.839
24757WAT      O74512   0.248   3.837   6.566
24757WAT     H174513   0.171   3.791   6.612
24757WAT     H274514   0.239   3.936   6.575
24758WAT      O74515   9.376   1.211   2.131
24758WAT     H174516   9.318   1.285   2.098
24758WAT     H274517   9.463   1.249   2.164
24759WAT      O74518   0.905   7.037   9.215
24759WAT     H174519   0.841   7.093   9.268
24759WAT     H274520   0.918   6.949   9.261
24760WAT      O74521   8.377   2.711   4.925
24760WAT     H174522   8.443   2.638   4.944
24760WAT     H274523   8.409   2.796   4.967
24761WAT      O74524   6.079   5.102   2.572
24761WAT     H174525   6.069   5.010   2.535
24761WAT     H274526   6.054   5.101   2.669
24762WAT      O74527   9.240   2.393   8.827
24762WAT     H174528   9.310   2.416   8.894
24762WAT     H274529   9.153   2.379   8.874
24763WAT      O74530   3.597   0.560   5.853
24763WAT     H174531   3.535   0.485   5.876
24763WAT     H274532   3.546   0.646   5.853
24764WAT      O74533   5.423   2.348   5.842
24764WAT     H174534   5.374   2.354   5.755
24764WAT     H274535   5.508   2.400   5.837
24765WAT      O74536   2.582   8.226   0.599
24765WAT     H174537   2.632   8.177   0.671
24765WAT     H274538   2.611   8.321   0.598
24766WAT      O74539   5.594   6.317   0.607
24766WAT     H174540   5.642   6.278   0.685
24766WAT     H274541   5.659   6.335   0.533
24767WAT      O74542   5.994   3.424   9.807
24767WAT     H174543   5.968   3.520   9.811
24767WAT     H274544   6.032   3.396   9.895
24768WAT      O74545   7.144   0.595   6.681
24768WAT     H174546   7.119   0.671   6.740
24768WAT     H274547   7.240   0.601   6.657
24769WAT      O74548   0.614   0.188   3.881
24769WAT     H174549   0.687   0.208   3.946
24769WAT     H274550   0.529   0.170   3.930
24770WAT      O74551   1.558   7.652   2.282
24770WAT     H174552   1.640   7.693   2.243
24770WAT     H274553   1.582   7.599   2.363
24771WAT      O74554   4.787   3.773   1.723
24771WAT     H174555   4.799   3.686   1.770
24771WAT     H274556   4.876   3.820   1.717
24772WAT      O74557   5.291   5.034   2.606
24772WAT     H174558   5.289   4.958   2.672
24772WAT     H274559   5.347   5.009   2.528
24773WAT      O74560   6.280   2.919   1.103
24773WAT     H174561   6.241   2.873   1.183
24773WAT     H274562   6.367   2.961   1.127
24774WAT      O74563   2.996   9.012   7.720
24774WAT     H174564   2.959   8.969   7.638
24774WAT     H274565   3.096   9.016   7.713
24775WAT      O74566   8.701   7.369   0.820
24775WAT     H174567   8.732   7.420   0.901
24775WAT     H274568   8.778   7.356   0.758
24776WAT      O74569   4.610   1.563   7.438
24776WAT     H174570   4.704   1.543   7.413
24776WAT     H274571   4.590   1.525   7.528
24777WAT      O74572   9.424   6.363   2.212
24777WAT     H174573   9.350   6.331   2.153
24777WAT     H274574   9.423   6.310   2.297
24778WAT      O74575   0.168   2.471   9.474
24778WAT     H174576   0.190   2.374   9.482
24778WAT     H274577   0.220   2.510   9.398
24779WAT      O74578   7.224   9.191   7.965
24779WAT     H174579   7.259   9.283   7.943
24779WAT     H274580   7.288   9.122   7.930
24780WAT      O74581   3.369   7.183   7.975
24780WAT     H174582   3.379   7.216   8.069
24780WAT     H274583   3.398   7.088   7.969
24781WAT      O74584   3.245   8.757   0.954
24781WAT     H174585   3.230   8.845   1.000
24781WAT     H274586   3.213   8.683   1.012
24782WAT      O74587   6.270   2.359   4.406
24782WAT     H174588   6.207   2.333   4.332
24782WAT     H274589   6.228   2.337   4.494
24783WAT      O74590   0.493   7.887   8.163
24783WAT     H174591   0.572   7.921   8.112
24783WAT     H274592   0.418   7.953   8.157
24784WAT      O74593   7.276   3.825   8.574
24784WAT     H174594   7.314   3.741   8.537
24784WAT     H274595   7.349   3.893   8.582
24785WAT      O74596   6.835   1.492   2.569
24785WAT     H174597   6.791   1.476   2.481
24785WAT     H274598   6.842   1.591   2.586
24786WAT      O74599   2.173   8.366   7.676
24786WAT     H174600   2.193   8.268   7.686
24786WAT     H274601   2.229   8.404   7.603
24787WAT      O74602   9.363   8.534   3.215
24787WAT     H174603   9.310   8.618   3.207
24787WAT     H274604   9.300   8.456   3.225
24788WAT      O74605   5.005   9.484   4.586
24788WAT     H174606   5.095   9.452   4.558
24788WAT     H274607   4.968   9.424   4.657
24789WAT      O74608   4.563   7.801   6.709
24789WAT     H174609   4.474   7.845   6.705
24789WAT     H274610   4.586   7.779   6.804
24790WAT      O74611   0.545   7.833   9.892
24790WAT     H174612   0.636   7.798   9.868
24790WAT     H274613   0.476   7.765   9.868
24791WAT      O74614   0.166   1.417   4.681
24791WAT     H174615   0.148   1.361   4.599
24791WAT     H274616   0.171   1.357   4.761
24792WAT      O74617   9.058   1.003   0.395
24792WAT     H174618   9.086   1.096   0.372
24792WAT     H274619   8.960   1.001   0.415
24793WAT      O74620   2.477   7.802   3.537
24793WAT     H174621   2.506   7.710   3.561
24793WAT     H274622   2.391   7.823   3.584
24794WAT      O74623   2.968   2.777   7.581
24794WAT     H174624   2.951   2.695   7.527
24794WAT     H274625   3.024   2.754   7.661
24795WAT      O74626   4.625   0.944   6.230
24795WAT     H174627   4.551   0.888   6.191
24795WAT     H274628   4.658   0.902   6.314
24796WAT      O74629   8.827   2.052   9.146
24796WAT     H174630   8.909   2.096   9.183
24796WAT     H274631   8.792   2.107   9.070
24797WAT      O74632   6.398   0.116   1.885
24797WAT     H174633   6.337   0.093   1.961
24797WAT     H274634   6.458   0.191   1.913
24798WAT      O74635   5.720   7.136   7.211
24798WAT     H174636   5.689   7.226   7.242
24798WAT     H274637   5.800   7.146   7.151
24799WAT      O74638   4.426   2.873   7.212
24799WAT     H174639   4.339   2.895   7.169
24799WAT     H274640   4.450   2.944   7.279
24800WAT      O74641   8.076   4.062   7.666
24800WAT     H174642   8.041   4.135   7.725
24800WAT     H274643   8.018   4.054   7.586
24801WAT      O74644   8.613   8.160   4.871
24801WAT     H174645   8.650   8.168   4.963
24801WAT     H274646   8.619   8.248   4.825
24802WAT      O74647   0.581   6.924   4.727
24802WAT     H174648   0.565   7.018   4.699
24802WAT     H274649   0.632   6.876   4.656
24803WAT      O74650   8.913   1.600   6.736
24803WAT     H174651   8.862   1.516   6.720
24803WAT     H274652   8.934   1.644   6.649
24804WAT      O74653   8.289   5.350   7.934
24804WAT     H174654   8.318   5.395   7.850
24804WAT     H274655   8.369   5.312   7.980
24805WAT      O74656   3.987   6.494   5.991
24805WAT     H174657   3.953   6.576   5.946
24805WAT     H274658   4.060   6.519   6.055
24806WAT      O74659   5.525   0.009   7.050
24806WAT     H174660   5.489   0.091   7.004
24806WAT     H274661   5.625   0.008   7.043
24807WAT      O74662   4.584   3.590   6.065
24807WAT     H174663   4.530   3.651   6.009
24807WAT     H274664   4.555   3.495   6.050
24808WAT      O74665   1.524   0.225   1.877
24808WAT     H174666   1.550   0.176   1.960
24808WAT     H274667   1.457   0.172   1.826
24809WAT      O74668   6.316   3.441   5.222
24809WAT     H174669   6.274   3.400   5.303
24809WAT     H274670   6.363   3.526   5.249
24810WAT      O74671   5.517   7.322   0.617
24810WAT     H174672   5.452   7.283   0.681
24810WAT     H274673   5.574   7.249   0.579
24811WAT      O74674   1.068   7.576   2.352
24811WAT     H174675   0.992   7.589   2.416
24811WAT     H274676   1.145   7.633   2.380
24812WAT      O74677   0.450   0.718   3.105
24812WAT     H174678   0.456   0.717   3.205
24812WAT     H274679   0.486   0.804   3.070
24813WAT      O74680   4.450   9.680   3.248
24813WAT     H174681   4.433   9.583   3.229
24813WAT     H274682   4.374   9.735   3.216
24814WAT      O74683   6.871   6.463   4.755
24814WAT     H174684   6.917   6.377   4.733
24814WAT     H274685   6.773   6.453   4.738
24815WAT      O74686   9.670   3.048   9.668
24815WAT     H174687   9.764   3.048   9.701
24815WAT     H274688   9.634   2.955   9.671
24816WAT      O74689   6.034   0.011   5.885
24816WAT     H174690   6.071   0.102   5.903
24816WAT     H274691   5.950   0.019   5.831
24817WAT      O74692   8.588   2.547   0.362
24817WAT     H174693   8.674   2.581   0.398
24817WAT     H274694   8.526   2.624   0.345
24818WAT      O74695   9.624   4.403   4.581
24818WAT     H174696   9.713   4.358   4.579
24818WAT     H274697   9.585   4.397   4.673
24819WAT      O74698   2.425   2.597   2.131
24819WAT     H174699   2.486   2.593   2.210
24819WAT     H274700   2.472   2.639   2.054
24820WAT      O74701   0.888   5.280   3.398
24820WAT     H174702   0.954   5.308   3.468
24820WAT     H274703   0.878   5.180   3.401
24821WAT      O74704   6.709   8.428   4.438
24821WAT     H174705   6.744   8.507   4.387
24821WAT     H274706   6.616   8.447   4.469
24822WAT      O74707   7.223   6.719   3.787
24822WAT     H174708   7.160   6.650   3.824
24822WAT     H274709   7.307   6.719   3.842
24823WAT      O74710   8.421   6.368   6.595
24823WAT     H174711   8.477   6.443   6.630
24823WAT     H274712   8.325   6.384   6.619
24824WAT      O74713   2.125   3.617   3.391
24824WAT     H174714   2.039   3.566   3.389
24824WAT     H274715   2.118   3.696   3.330
24825WAT      O74716   2.228   4.353   3.307
24825WAT     H174717   2.256   4.281   3.370
24825WAT     H274718   2.303   4.418   3.295
24826WAT      O74719   1.392   1.765   3.568
24826WAT     H174720   1.308   1.812   3.544
24826WAT     H274721   1.371   1.685   3.625
24827WAT      O74722   2.270   0.664   9.309
24827WAT     H174723   2.241   0.675   9.404
24827WAT     H274724   2.365   0.692   9.300
24828WAT      O74725   6.578   8.407   9.587
24828WAT     H174726   6.492   8.356   9.581
24828WAT     H274727   6.568   8.494   9.540
24829WAT      O74728   1.207   1.148   6.181
24829WAT     H174729   1.239   1.058   6.209
24829WAT     H274730   1.245   1.218   6.242
24830WAT      O74731   5.418   8.470   5.133
24830WAT     H174732   5.453   8.563   5.123
24830WAT     H274733   5.335   8.459   5.079
24831WAT      O74734   2.930   4.710   4.406
24831WAT     H174735   2.976   4.704   4.317
24831WAT     H274736   2.840   4.752   4.394
24832WAT      O74737   7.242   4.434   6.948
24832WAT     H174738   7.155   4.464   6.988
24832WAT     H274739   7.316   4.491   6.982
24833WAT      O74740   7.580   3.581   1.716
24833WAT     H174741   7.679   3.600   1.721
24833WAT     H274742   7.534   3.659   1.674
24834WAT      O74743   4.153   8.773   4.296
24834WAT     H174744   4.066   8.807   4.262
24834WAT     H274745   4.218   8.849   4.302
24835WAT      O74746   4.951   9.710   5.932
24835WAT     H174747   4.904   9.623   5.946
24835WAT     H274748   4.925   9.749   5.844
24836WAT      O74749   7.054   2.238   6.665
24836WAT     H174750   6.974   2.205   6.716
24836WAT     H274751   7.134   2.185   6.691
24837WAT      O74752   9.066   3.855   9.432
24837WAT     H174753   9.027   3.763   9.420
24837WAT     H274754   9.152   3.861   9.383
24838WAT      O74755   9.179   8.012   8.953
24838WAT     H174756   9.157   7.958   8.871
24838WAT     H274757   9.230   8.094   8.925
24839WAT      O74758   8.798   1.337   4.138
24839WAT     H174759   8.800   1.260   4.075
24839WAT     H274760   8.748   1.311   4.221
24840WAT      O74761   1.504   8.947   8.125
24840WAT     H174762   1.475   8.943   8.220
24840WAT     H274763   1.566   9.025   8.113
24841WAT      O74764   9.083   1.794   2.230
24841WAT     H174765   9.063   1.744   2.314
24841WAT     H274766   9.025   1.760   2.156
24842WAT      O74767   6.593   4.162   6.964
24842WAT     H174768   6.597   4.197   6.870
24842WAT     H274769   6.502   4.181   7.002
24843WAT      O74770   2.952   3.730   2.588
24843WAT     H174771   2.971   3.647   2.640
24843WAT     H274772   2.854   3.748   2.589
24844WAT      O74773   2.145   6.173   2.727
24844WAT     H174774   2.093   6.101   2.773
24844WAT     H274775   2.168   6.245   2.792
24845WAT      O74776   9.799   4.848   5.525
24845WAT     H174777   9.711   4.842   5.573
24845WAT     H274778   9.797   4.923   5.459
24846WAT      O74779   8.815   1.010   3.527
24846WAT     H174780   8.912   1.008   3.550
24846WAT     H274781   8.798   1.083   3.462
24847WAT      O74782   2.885   8.735   0.961
24847WAT     H174783   2.889   8.814   0.899
24847WAT     H274784   2.948   8.664   0.930
24848WAT      O74785   3.055   4.895   7.625
24848WAT     H174786   3.132   4.958   7.635
24848WAT     H274787   3.044   4.842   7.709
24849WAT      O74788   2.868   1.365   5.945
24849WAT     H174789   2.881   1.266   5.953
24849WAT     H274790   2.774   1.384   5.917
24850WAT      O74791   7.506   8.341   7.331
24850WAT     H174792   7.424   8.292   7.360
24850WAT     H274793   7.546   8.390   7.409
24851WAT      O74794   2.727   3.371   0.347
24851WAT     H174795   2.769   3.437   0.409
24851WAT     H274796   2.791   3.350   0.273
24852WAT      O74797   1.140   1.077   2.759
24852WAT     H174798   1.187   1.035   2.837
24852WAT     H274799   1.042   1.081   2.779
24853WAT      O74800   5.947   1.083   9.525
24853WAT     H174801   5.897   1.132   9.453
24853WAT     H274802   5.964   1.145   9.602
24854WAT      O74803   4.357   2.711   7.442
24854WAT     H174804   4.380   2.761   7.359
24854WAT     H274805   4.296   2.635   7.420
24855WAT      O74806   8.152   4.648   1.379
24855WAT     H174807   8.182   4.653   1.284
24855WAT     H274808   8.090   4.570   1.391
24856WAT      O74809   8.660   2.042   1.742
24856WAT     H174810   8.598   2.085   1.677
24856WAT     H274811   8.683   2.106   1.815
24857WAT      O74812   3.720   8.845   3.043
24857WAT     H174813   3.809   8.802   3.028
24857WAT     H274814   3.724   8.900   3.126
24858WAT      O74815   1.963   0.486   0.301
24858WAT     H174816   1.921   0.395   0.292
24858WAT     H274817   2.060   0.475   0.322
24859WAT      O74818   3.566   2.982   7.808
24859WAT     H174819   3.520   2.963   7.895
24859WAT     H274820   3.661   3.008   7.826
24860WAT      O74821   5.725   2.308   6.428
24860WAT     H174822   5.807   2.309   6.371
24860WAT     H274823   5.719   2.220   6.476
24861WAT      O74824   4.117   4.667   2.863
24861WAT     H174825   4.197   4.662   2.923
24861WAT     H274826   4.034   4.660   2.917
24862WAT      O74827   7.479   9.779   9.627
24862WAT     H174828   7.482   9.742   9.534
24862WAT     H274829   7.558   9.745   9.679
24863WAT      O74830   6.173   9.637   8.218
24863WAT     H174831   6.074   9.648   8.219
24863WAT     H274832   6.200   9.567   8.284
24864WAT      O74833   5.499   6.767   9.617
24864WAT     H174834   5.400   6.754   9.615
24864WAT     H274835   5.541   6.698   9.675
24865WAT      O74836   8.613   6.338   7.803
24865WAT     H174837   8.691   6.305   7.857
24865WAT     H274838   8.555   6.261   7.777
24866WAT      O74839   1.775   7.345   3.931
24866WAT     H174840   1.684   7.332   3.891
24866WAT     H274841   1.844   7.317   3.864
24867WAT      O74842   2.622   0.789   8.804
24867WAT     H174843   2.527   0.814   8.823
24867WAT     H274844   2.671   0.868   8.767
24868WAT      O74845   2.756   1.395   7.070
24868WAT     H174846   2.831   1.330   7.058
24868WAT     H274847   2.676   1.348   7.106
24869WAT      O74848   4.057   3.717   4.025
24869WAT     H174849   4.020   3.641   3.972
24869WAT     H274850   4.002   3.799   4.007
24870WAT      O74851   4.708   3.451   6.347
24870WAT     H174852   4.620   3.478   6.307
24870WAT     H274853   4.774   3.436   6.274
24871WAT      O74854   4.495   1.861   1.189
24871WAT     H174855   4.562   1.899   1.253
24871WAT     H274856   4.515   1.893   1.096
24872WAT      O74857   6.586   2.159   9.846
24872WAT     H174858   6.529   2.219   9.903
24872WAT     H274859   6.664   2.126   9.900
24873WAT      O74860   8.958   0.527   6.232
24873WAT     H174861   8.914   0.463   6.295
24873WAT     H274862   8.954   0.490   6.139
24874WAT      O74863   2.316   8.214   4.888
24874WAT     H174864   2.383   8.158   4.838
24874WAT     H274865   2.364   8.278   4.947
24875WAT      O74866   5.680   0.677   5.049
24875WAT     H174867   5.686   0.710   4.954
24875WAT     H274868   5.763   0.702   5.098
24876WAT      O74869   7.731   9.027   5.728
24876WAT     H174870   7.632   9.043   5.730
24876WAT     H274871   7.775   9.099   5.674
24877WAT      O74872   4.191   2.699   4.936
24877WAT     H174873   4.123   2.699   4.863
24877WAT     H274874   4.279   2.667   4.900
24878WAT      O74875   5.246   2.494   7.103
24878WAT     H174876   5.190   2.493   7.020
24878WAT     H274877   5.203   2.436   7.173
24879WAT      O74878   5.933   6.208   9.648
24879WAT     H174879   6.001   6.281   9.642
24879WAT     H274880   5.967   6.126   9.601
24880WAT      O74881   7.930   9.026   2.071
24880WAT     H174882   7.948   9.069   2.160
24880WAT     H274883   7.836   9.044   2.043
24881WAT      O74884   4.523   6.706   9.515
24881WAT     H174885   4.585   6.779   9.545
24881WAT     H274886   4.433   6.745   9.496
24882WAT      O74887   5.868   6.796   1.703
24882WAT     H174888   5.918   6.775   1.619
24882WAT     H274889   5.792   6.732   1.713
24883WAT      O74890   3.677   6.842   3.214
24883WAT     H174891   3.666   6.778   3.290
24883WAT     H274892   3.632   6.804   3.133
24884WAT      O74893   7.464   0.492   7.319
24884WAT     H174894   7.523   0.568   7.291
24884WAT     H274895   7.514   0.433   7.382
24885WAT      O74896   6.038   8.328   3.530
24885WAT     H174897   6.008   8.359   3.440
24885WAT     H274898   6.136   8.310   3.528
24886WAT      O74899   3.650   7.505   1.331
24886WAT     H174900   3.680   7.417   1.369
24886WAT     H274901   3.673   7.508   1.233
24887WAT      O74902   2.038   5.986   4.882
24887WAT     H174903   2.016   6.031   4.795
24887WAT     H274904   1.960   5.993   4.943
24888WAT      O74905   4.233   2.796   2.022
24888WAT     H174906   4.318   2.796   2.076
24888WAT     H274907   4.182   2.712   2.041
24889WAT      O74908   0.362   7.782   9.582
24889WAT     H174909   0.357   7.759   9.679
24889WAT     H274910   0.457   7.805   9.558
24890WAT      O74911   5.960   8.687   3.888
24890WAT     H174912   5.991   8.757   3.952
24890WAT     H274913   5.924   8.731   3.805
24891WAT      O74914   6.431   6.811   8.699
24891WAT     H174915   6.358   6.863   8.654
24891WAT     H274916   6.414   6.713   8.687
24892WAT      O74917   4.714   8.987   7.628
24892WAT     H174918   4.629   8.982   7.680
24892WAT     H274919   4.770   9.062   7.663
24893WAT      O74920   5.624   4.224   7.179
24893WAT     H174921   5.591   4.262   7.266
24893WAT     H274922   5.546   4.203   7.120
24894WAT      O74923   7.011   4.644   4.782
24894WAT     H174924   7.107   4.670   4.776
24894WAT     H274925   6.958   4.698   4.717
24895WAT      O74926   5.879   2.514   1.025
24895WAT     H174927   5.788   2.476   1.040
24895WAT     H274928   5.873   2.614   1.021
24896WAT      O74929   9.672   9.550   4.325
24896WAT     H174930   9.766   9.540   4.291
24896WAT     H274931   9.640   9.643   4.309
24897WAT      O74932   7.270   3.561   4.483
24897WAT     H174933   7.208   3.496   4.527
24897WAT     H274934   7.353   3.513   4.454
24898WAT      O74935   5.478   0.495   5.571
24898WAT     H174936   5.384   0.465   5.559
24898WAT     H274937   5.503   0.556   5.496
24899WAT      O74938   6.733   1.892   0.970
24899WAT     H174939   6.673   1.939   1.034
24899WAT     H274940   6.689   1.808   0.938
24900WAT      O74941   7.451   5.811   6.215
24900WAT     H174942   7.389   5.811   6.137
24900WAT     H274943   7.542   5.842   6.185
24901WAT      O74944   2.379   8.416   2.910
24901WAT     H174945   2.354   8.373   2.824
24901WAT     H274946   2.331   8.503   2.919
24902WAT      O74947   0.279   4.225   7.857
24902WAT     H174948   0.296   4.270   7.945
24902WAT     H274949   0.215   4.149   7.871
24903WAT      O74950   3.191   0.906   3.669
24903WAT     H174951   3.272   0.885   3.615
24903WAT     H274952   3.201   0.997   3.710
24904WAT      O74953   7.051   3.074   8.456
24904WAT     H174954   7.116   3.042   8.387
24904WAT     H274955   7.101   3.113   8.534
24905WAT      O74956   7.203   1.226   9.491
24905WAT     H174957   7.127   1.276   9.450
24905WAT     H274958   7.289   1.272   9.470
24906WAT      O74959   7.944   7.571   4.896
24906WAT     H174960   7.870   7.562   4.829
24906WAT     H274961   8.013   7.635   4.861
24907WAT      O74962   9.884   7.016   1.989
24907WAT     H174963   9.882   7.079   1.911
24907WAT     H274964   9.933   7.059   2.065
24908WAT      O74965   9.744   7.021   9.659
24908WAT     H174966   9.784   7.078   9.588
24908WAT     H274967   9.807   7.017   9.737
24909WAT      O74968   4.968   0.191   8.645
24909WAT     H174969   5.010   0.203   8.555
24909WAT     H274970   4.900   0.118   8.641
24910WAT      O74971   6.816   8.398   7.036
24910WAT     H174972   6.852   8.317   6.989
24910WAT     H274973   6.735   8.430   6.988
24911WAT      O74974   5.409   3.724   2.050
24911WAT     H174975   5.393   3.719   2.149
24911WAT     H274976   5.490   3.780   2.033
24912WAT      O74977   1.726   0.834   6.847
24912WAT     H174978   1.685   0.909   6.899
24912WAT     H274979   1.788   0.871   6.778
24913WAT      O74980   7.753   0.501   0.662
24913WAT     H174981   7.757   0.412   0.707
24913WAT     H274982   7.737   0.489   0.564
24914WAT      O74983   4.438   7.491   7.503
24914WAT     H174984   4.344   7.519   7.519
24914WAT     H274985   4.443   7.437   7.419
24915WAT      O74986   1.410   9.095   3.044
24915WAT     H174987   1.417   9.194   3.056
24915WAT     H274988   1.488   9.051   3.089
24916WAT      O74989   2.346   8.668   8.418
24916WAT     H174990   2.323   8.596   8.353
24916WAT     H274991   2.414   8.634   8.483
24917WAT      O74992   5.313   0.093   3.352
24917WAT     H174993   5.345   0.187   3.340
24917WAT     H274994   5.253   0.089   3.432
24918WAT      O74995   2.730   7.550   2.587
24918WAT     H174996   2.738   7.649   2.581
24918WAT     H274997   2.712   7.523   2.682
24919WAT      O74998   9.131   9.240   8.130
24919WAT     H174999   9.149   9.333   8.097
24919WAT     H275000   9.214   9.185   8.122
24920WAT      O75001   2.967   4.892   1.816
24920WAT     H175002   2.883   4.939   1.788
24920WAT     H275003   3.021   4.871   1.735
24921WAT      O75004   5.981   7.058   5.445
24921WAT     H175005   5.926   7.030   5.524
24921WAT     H275006   5.948   7.012   5.363
24922WAT      O75007   5.287   6.498   7.488
24922WAT     H175008   5.243   6.488   7.398
24922WAT     H275009   5.302   6.596   7.506
24923WAT      O75010   5.884   7.602   5.675
24923WAT     H175011   5.836   7.654   5.605
24923WAT     H275012   5.923   7.664   5.743
24924WAT      O75013   8.497   1.451   3.081
24924WAT     H175014   8.433   1.464   3.156
24924WAT     H275015   8.448   1.453   2.994
24925WAT      O75016   3.050   5.067   0.815
24925WAT     H175017   2.975   5.077   0.749
24925WAT     H275018   3.067   4.970   0.832
24926WAT      O75019   6.289   8.059   2.770
24926WAT     H175020   6.203   8.079   2.725
24926WAT     H275021   6.308   7.961   2.766
24927WAT      O75022   6.846   8.734   9.547
24927WAT     H175023   6.828   8.643   9.583
24927WAT     H275024   6.944   8.751   9.547
24928WAT      O75025   2.029   2.888   3.814
24928WAT     H175026   1.989   2.814   3.868
24928WAT     H275027   1.994   2.976   3.846
24929WAT      O75028   9.191   5.321   2.069
24929WAT     H175029   9.223   5.415   2.076
24929WAT     H275030   9.268   5.258   2.083
24930WAT      O75031   2.370   0.908   4.663
24930WAT     H175032   2.272   0.886   4.655
24930WAT     H275033   2.392   0.984   4.603
24931WAT      O75034   2.867   7.342   7.159
24931WAT     H175035   2.898   7.426   7.115
24931WAT     H275036   2.946   7.281   7.172
24932WAT      O75037   9.393   8.602   2.178
24932WAT     H175038   9.437   8.658   2.107
24932WAT     H275039   9.295   8.594   2.158
24933WAT      O75040   6.795   1.087   5.630
24933WAT     H175041   6.734   1.087   5.550
24933WAT     H275042   6.890   1.082   5.599
24934WAT      O75043   4.665   8.354   5.503
24934WAT     H175044   4.734   8.285   5.482
24934WAT     H275045   4.592   8.350   5.435
24935WAT      O75046   5.436   3.557   1.302
24935WAT     H175047   5.337   3.559   1.289
24935WAT     H275048   5.482   3.569   1.214
24936WAT      O75049   2.436   4.884   4.476
24936WAT     H175050   2.393   4.797   4.501
24936WAT     H275051   2.372   4.938   4.422
24937WAT      O75052   2.629   8.204   7.953
24937WAT     H175053   2.615   8.192   7.855
24937WAT     H275054   2.550   8.251   7.993
24938WAT      O75055   4.016   8.955   7.829
24938WAT     H175056   4.101   8.920   7.789
24938WAT     H275057   4.010   8.927   7.925
24939WAT      O75058   5.123   2.207   8.957
24939WAT     H175059   5.209   2.168   8.925
24939WAT     H275060   5.086   2.150   9.030
24940WAT      O75061   8.223   8.261   7.093
24940WAT     H175062   8.177   8.190   7.145
24940WAT     H275063   8.154   8.324   7.055
24941WAT      O75064   9.358   4.140   8.278
24941WAT     H175065   9.410   4.218   8.243
24941WAT     H275066   9.418   4.062   8.291
24942WAT      O75067   6.357   3.171   9.032
24942WAT     H175068   6.355   3.186   9.131
24942WAT     H275069   6.267   3.142   9.001
24943WAT      O75070   1.429   8.745   7.309
24943WAT     H175071   1.466   8.715   7.221
24943WAT     H275072   1.337   8.706   7.321
24944WAT      O75073   0.715   5.151   7.222
24944WAT     H175074   0.724   5.052   7.208
24944WAT     H275075   0.709   5.197   7.134
24945WAT      O75076   1.558   9.402   5.779
24945WAT     H175077   1.494   9.354   5.720
24945WAT     H275078   1.507   9.459   5.844
24946WAT      O75079   5.409   2.694   3.049
24946WAT     H175080   5.464   2.737   3.120
24946WAT     H275081   5.314   2.684   3.080
24947WAT      O75082   6.147   3.768   6.214
24947WAT     H175083   6.203   3.715   6.151
24947WAT     H275084   6.084   3.708   6.263
24948WAT      O75085   1.703   3.752   6.566
24948WAT     H175086   1.654   3.679   6.614
24948WAT     H275087   1.637   3.815   6.525
24949WAT      O75088   1.517   7.145   3.327
24949WAT     H175089   1.462   7.158   3.410
24949WAT     H275090   1.496   7.056   3.286
24950WAT      O75091   8.651   8.489   1.597
24950WAT     H175092   8.587   8.533   1.534
24950WAT     H275093   8.742   8.529   1.585
24951WAT      O75094   2.670   7.511   1.751
24951WAT     H175095   2.721   7.458   1.819
24951WAT     H275096   2.691   7.477   1.660
24952WAT      O75097   5.875   6.977   5.708
24952WAT     H175098   5.905   7.064   5.746
24952WAT     H275099   5.954   6.924   5.678
24953WAT      O75100   4.760   3.401   9.803
24953WAT     H175101   4.815   3.334   9.854
24953WAT     H275102   4.796   3.492   9.818
24954WAT      O75103   5.458   0.014   7.996
24954WAT     H175104   5.472   0.028   8.094
24954WAT     H275105   5.371   0.056   7.968
24955WAT      O75106   1.230   3.017   9.801
24955WAT     H175107   1.178   3.093   9.761
24955WAT     H275108   1.297   3.054   9.865
24956WAT      O75109   5.477   1.186   2.233
24956WAT     H175110   5.484   1.277   2.274
24956WAT     H275111   5.549   1.127   2.267
24957WAT      O75112   8.495   3.885   4.572
24957WAT     H175113   8.526   3.843   4.657
24957WAT     H275114   8.466   3.979   4.590
24958WAT      O75115   8.444   4.730   9.419
24958WAT     H175116   8.512   4.662   9.448
24958WAT     H275117   8.425   4.718   9.321
24959WAT      O75118   8.562   8.389   4.129
24959WAT     H175119   8.624   8.390   4.051
24959WAT     H275120   8.612   8.414   4.212
24960WAT      O75121   0.804   3.132   8.396
24960WAT     H175122   0.738   3.086   8.457
24960WAT     H275123   0.831   3.070   8.323
24961WAT      O75124   5.835   0.973   8.877
24961WAT     H175125   5.762   0.959   8.811
24961WAT     H275126   5.796   0.988   8.968
24962WAT      O75127   6.426   5.020   9.480
24962WAT     H175128   6.429   5.091   9.551
24962WAT     H275129   6.519   4.999   9.450
24963WAT      O75130   5.960   0.721   1.505
24963WAT     H175131   5.888   0.750   1.443
24963WAT     H275132   6.033   0.789   1.506
24964WAT      O75133   0.553   0.646   6.865
24964WAT     H175134   0.559   0.635   6.964
24964WAT     H275135   0.599   0.731   6.839
24965WAT      O75136   1.253   8.282   6.554
24965WAT     H175137   1.303   8.251   6.635
24965WAT     H275138   1.165   8.233   6.549
24966WAT      O75139   1.361   2.695   3.715
24966WAT     H175140   1.303   2.633   3.767
24966WAT     H275141   1.451   2.701   3.759
24967WAT      O75142   0.810   6.536   3.878
24967WAT     H175143   0.769   6.627   3.874
24967WAT     H275144   0.909   6.544   3.871
24968WAT      O75145   3.736   8.729   7.151
24968WAT     H175146   3.817   8.690   7.194
24968WAT     H275147   3.656   8.672   7.170
24969WAT      O75148   6.740   9.203   3.612
24969WAT     H175149   6.646   9.173   3.630
24969WAT     H275150   6.745   9.302   3.616
24970WAT      O75151   1.041   9.812   2.915
24970WAT     H175152   1.077   9.833   2.824
24970WAT     H275153   1.115   9.818   2.982
24971WAT      O75154   0.390   4.813   8.990
24971WAT     H175155   0.347   4.880   9.051
24971WAT     H275156   0.478   4.848   8.958
24972WAT      O75157   0.536   8.964   6.796
24972WAT     H175158   0.517   8.870   6.823
24972WAT     H275159   0.635   8.977   6.786
24973WAT      O75160   0.113   5.683   8.358
24973WAT     H175161   0.182   5.626   8.403
24973WAT     H275162   0.039   5.702   8.422
24974WAT      O75163   2.965   9.816   7.018
24974WAT     H175164   3.022   9.892   6.988
24974WAT     H275165   2.868   9.843   7.014
24975WAT      O75166   7.405   0.704   8.890
24975WAT     H175167   7.469   0.696   8.966
24975WAT     H275168   7.443   0.656   8.810
24976WAT      O75169   1.774   3.279   2.384
24976WAT     H175170   1.785   3.374   2.357
24976WAT     H275171   1.772   3.272   2.484
24977WAT      O75172   1.257   4.391   8.723
24977WAT     H175173   1.301   4.480   8.709
24977WAT     H275174   1.327   4.321   8.738
24978WAT      O75175   0.694   3.961   5.666
24978WAT     H175176   0.623   4.006   5.611
24978WAT     H275177   0.744   3.896   5.608
24979WAT      O75178   7.734   0.131   8.909
24979WAT     H175179   7.665   0.187   8.863
24979WAT     H275180   7.688   0.065   8.969
24980WAT      O75181   4.402   5.269   7.063
24980WAT     H175182   4.420   5.211   6.983
24980WAT     H275183   4.369   5.358   7.033
24981WAT      O75184   3.786   9.172   7.325
24981WAT     H175185   3.852   9.190   7.398
24981WAT     H275186   3.729   9.094   7.350
24982WAT      O75187   7.358   8.735   7.444
24982WAT     H175188   7.287   8.784   7.494
24982WAT     H275189   7.380   8.651   7.494
24983WAT      O75190   0.246   7.586   8.539
24983WAT     H175191   0.217   7.535   8.457
24983WAT     H275192   0.315   7.533   8.588
24984WAT      O75193   2.220   2.795   9.698
24984WAT     H175194   2.239   2.749   9.611
24984WAT     H275195   2.243   2.892   9.690
24985WAT      O75196   0.820   2.110   4.255
24985WAT     H175197   0.745   2.175   4.244
24985WAT     H275198   0.863   2.093   4.166
24986WAT      O75199   0.500   6.061   6.326
24986WAT     H175200   0.494   6.092   6.421
24986WAT     H275201   0.413   6.079   6.280
24987WAT      O75202   1.133   9.140   9.820
24987WAT     H175203   1.087   9.076   9.881
24987WAT     H275204   1.151   9.096   9.732
24988WAT      O75205   9.735   6.218   2.644
24988WAT     H175206   9.744   6.260   2.554
24988WAT     H275207   9.822   6.225   2.693
24989WAT      O75208   5.468   4.177   4.578
24989WAT     H175209   5.561   4.160   4.545
24989WAT     H275210   5.429   4.254   4.528
24990WAT      O75211   8.054   0.379   8.089
24990WAT     H175212   8.104   0.419   8.166
24990WAT     H275213   8.118   0.364   8.013
24991WAT      O75214   3.229   0.214   9.466
24991WAT     H175215   3.168   0.227   9.545
24991WAT     H275216   3.179   0.236   9.382
24992WAT      O75217   7.751   6.894   3.281
24992WAT     H175218   7.765   6.948   3.364
24992WAT     H275219   7.838   6.854   3.252
24993WAT      O75220   0.758   7.286   7.325
24993WAT     H175221   0.811   7.322   7.248
24993WAT     H275222   0.811   7.215   7.371
24994WAT      O75223   8.024   3.273   1.160
24994WAT     H175224   8.110   3.321   1.175
24994WAT     H275225   7.950   3.339   1.152
24995WAT      O75226   0.796   5.798   0.155
24995WAT     H175227   0.728   5.747   0.208
24995WAT     H275228   0.782   5.896   0.168
24996WAT      O75229   7.012   9.538   9.742
24996WAT     H175230   6.972   9.446   9.746
24996WAT     H275231   7.111   9.532   9.731
24997WAT      O75232   1.673   1.279   2.106
24997WAT     H175233   1.704   1.210   2.171
24997WAT     H275234   1.744   1.348   2.093
24998WAT      O75235   1.060   5.938   9.192
24998WAT     H175236   1.050   5.872   9.267
24998WAT     H275237   1.043   5.893   9.105
24999WAT      O75238   6.168   4.030   2.415
24999WAT     H175239   6.157   4.026   2.514
24999WAT     H275240   6.266   4.034   2.393
25000WAT      O75241   3.138   9.806   4.543
25000WAT     H175242   3.230   9.784   4.513
25000WAT     H275243   3.135   9.809   4.643
25001WAT      O75244   4.614   7.773   9.250
25001WAT     H175245   4.641   7.693   9.304
25001WAT     H275246   4.515   7.784   9.255
25002WAT      O75247   7.988   0.908   1.182
25002WAT     H175248   8.044   0.886   1.102
25002WAT     H275249   7.899   0.943   1.152
25003WAT      O75250   3.980   2.044   3.215
25003WAT     H175251   4.019   2.047   3.307
25003WAT     H275252   3.887   2.007   3.219
25004WAT      O75253   2.624   0.523   3.892
25004WAT     H175254   2.626   0.465   3.974
25004WAT     H275255   2.600   0.616   3.919
25005WAT      O75256   5.828   6.912   0.302
25005WAT     H175257   5.880   6.830   0.278
25005WAT     H275258   5.746   6.886   0.354
25006WAT      O75259   6.353   1.869   1.632
25006WAT     H175260   6.278   1.930   1.607
25006WAT     H275261   6.438   1.903   1.590
25007WAT      O75262   6.553   6.363   7.425
25007WAT     H175263   6.619   6.297   7.463
25007WAT     H275264   6.603   6.436   7.378
25008WAT      O75265   7.381   0.307   7.109
25008WAT     H175266   7.282   0.305   7.094
25008WAT     H275267   7.405   0.386   7.166
25009WAT      O75268   6.046   5.757   7.510
25009WAT     H175269   5.953   5.733   7.483
25009WAT     H275270   6.108   5.745   7.433
25010WAT      O75271   4.731   6.854   3.274
25010WAT     H175272   4.787   6.777   3.304
25010WAT     H275273   4.735   6.926   3.343
25011WAT      O75274   5.035   4.794   3.090
25011WAT     H175275   4.982   4.815   3.173
25011WAT     H275276   5.132   4.807   3.109
25012WAT      O75277   1.577   1.804   3.954
25012WAT     H175278   1.490   1.852   3.938
25012WAT     H275279   1.568   1.709   3.923
25013WAT      O75280   7.123   8.215   4.510
25013WAT     H175281   7.198   8.150   4.513
25013WAT     H275282   7.147   8.297   4.562
25014WAT      O75283   4.945   7.552   4.223
25014WAT     H175284   4.881   7.536   4.297
25014WAT     H275285   4.900   7.538   4.135
25015WAT      O75286   8.139   4.617   7.666
25015WAT     H175287   8.074   4.666   7.608
25015WAT     H275288   8.094   4.592   7.752
25016WAT      O75289   2.688   0.409   0.048
25016WAT     H175290   2.613   0.357   0.089
25016WAT     H275291   2.743   0.347  -0.009
25017WAT      O75292   7.459   4.950   5.929
25017WAT     H175293   7.368   4.909   5.934
25017WAT     H275294   7.527   4.888   5.969
25018WAT      O75295   4.369   6.112   2.212
25018WAT     H175296   4.414   6.200   2.228
25018WAT     H275297   4.287   6.105   2.268
25019WAT      O75298   2.106   4.724   1.284
25019WAT     H175299   2.064   4.658   1.221
25019WAT     H275300   2.034   4.775   1.331
25020WAT      O75301   6.932   3.118   9.228
25020WAT     H175302   6.839   3.095   9.256
25020WAT     H275303   6.930   3.165   9.140
25021WAT      O75304   7.625   9.704   8.038
25021WAT     H175305   7.722   9.714   8.058
25021WAT     H275306   7.577   9.670   8.119
25022WAT      O75307   9.594   8.443   6.303
25022WAT     H175308   9.628   8.533   6.331
25022WAT     H275309   9.547   8.401   6.381
25023WAT      O75310   8.226   0.865   6.344
25023WAT     H175311   8.254   0.958   6.368
25023WAT     H275312   8.306   0.811   6.319
25024WAT      O75313   8.246   2.668   0.982
25024WAT     H175314   8.218   2.661   1.078
25024WAT     H275315   8.337   2.628   0.970
25025WAT      O75316   1.916   5.651   5.682
25025WAT     H175317   1.907   5.616   5.589
25025WAT     H275318   1.901   5.750   5.682
25026WAT      O75319   6.809   1.227   9.397
25026WAT     H175320   6.880   1.267   9.340
25026WAT     H275321   6.727   1.284   9.392
25027WAT      O75322   5.525   6.691   6.242
25027WAT     H175323   5.465   6.771   6.239
25027WAT     H275324   5.511   6.635   6.160
25028WAT      O75325   2.994   6.144   5.190
25028WAT     H175326   2.964   6.070   5.131
25028WAT     H275327   3.088   6.168   5.169
25029WAT      O75328   8.493   1.440   5.314
25029WAT     H175329   8.444   1.354   5.327
25029WAT     H275330   8.433   1.505   5.267
25030WAT      O75331   6.114   2.940   4.893
25030WAT     H175332   6.061   2.866   4.935
25030WAT     H275333   6.210   2.929   4.916
25031WAT      O75334   6.736   2.991   0.678
25031WAT     H175335   6.721   3.030   0.768
25031WAT     H275336   6.698   3.052   0.608
25032WAT      O75337   7.922   3.033   9.032
25032WAT     H175338   7.827   3.046   9.059
25032WAT     H275339   7.981   3.093   9.085
25033WAT      O75340   6.921   8.944   5.559
25033WAT     H175341   6.922   8.895   5.472
25033WAT     H275342   6.927   9.042   5.543
25034WAT      O75343   5.399   7.959   9.591
25034WAT     H175344   5.473   8.005   9.640
25034WAT     H275345   5.436   7.907   9.514
25035WAT      O75346   1.594   8.345   3.180
25035WAT     H175347   1.576   8.269   3.242
25035WAT     H275348   1.510   8.397   3.164
25036WAT      O75349   0.879   1.936   9.213
25036WAT     H175350   0.799   1.916   9.270
25036WAT     H275351   0.881   2.033   9.190
25037WAT      O75352   4.551   0.005   7.596
25037WAT     H175353   4.543  -0.048   7.512
25037WAT     H275354   4.640   0.052   7.597
25038WAT      O75355   0.106   3.518   4.027
25038WAT     H175356   0.030   3.493   3.966
25038WAT     H275357   0.154   3.597   3.988
25039WAT      O75358   7.969   6.981   0.801
25039WAT     H175359   8.033   6.962   0.726
25039WAT     H275360   8.008   6.948   0.887
25040WAT      O75361   9.627   0.240   8.121
25040WAT     H175362   9.530   0.218   8.132
25040WAT     H275363   9.662   0.198   8.038
25041WAT      O75364   2.861   8.247   5.744
25041WAT     H175365   2.947   8.206   5.775
25041WAT     H275366   2.787   8.180   5.754
25042WAT      O75367   0.966   7.014   2.313
25042WAT     H175368   1.065   7.027   2.305
25042WAT     H275369   0.927   7.092   2.362
25043WAT      O75370   5.476   3.487   2.238
25043WAT     H175371   5.380   3.512   2.251
25043WAT     H275372   5.485   3.431   2.155
25044WAT      O75373   6.178   1.244   3.258
25044WAT     H175374   6.278   1.244   3.263
25044WAT     H275375   6.150   1.278   3.169
25045WAT      O75376   6.997   5.755   6.981
25045WAT     H175377   6.983   5.851   6.958
25045WAT     H275378   6.997   5.700   6.898
25046WAT      O75379   6.740   1.754   8.418
25046WAT     H175380   6.717   1.851   8.428
25046WAT     H275381   6.656   1.701   8.404
25047WAT      O75382   4.429   9.146   6.636
25047WAT     H175383   4.527   9.124   6.632
25047WAT     H275384   4.411   9.204   6.715
25048WAT      O75385   8.962   8.111   1.394
25048WAT     H175386   8.966   8.011   1.391
25048WAT     H275387   9.048   8.148   1.359
25049WAT      O75388   2.706   5.586   7.976
25049WAT     H175389   2.703   5.512   8.044
25049WAT     H275390   2.640   5.566   7.903
25050WAT      O75391   3.567   3.383   6.576
25050WAT     H175392   3.510   3.328   6.637
25050WAT     H275393   3.510   3.451   6.529
25051WAT      O75394   2.639   4.559   9.470
25051WAT     H175395   2.597   4.508   9.545
25051WAT     H275396   2.603   4.525   9.383
25052WAT      O75397   8.784   7.978   4.460
25052WAT     H175398   8.822   8.063   4.495
25052WAT     H275399   8.844   7.940   4.390
25053WAT      O75400   4.777   9.652   4.982
25053WAT     H175401   4.760   9.706   4.899
25053WAT     H275402   4.870   9.669   5.014
25054WAT      O75403   3.958   7.841   8.612
25054WAT     H175404   4.003   7.860   8.700
25054WAT     H275405   3.866   7.880   8.613
25055WAT      O75406   1.922   5.390   1.154
25055WAT     H175407   1.890   5.302   1.191
25055WAT     H275408   1.862   5.418   1.079
25056WAT      O75409   1.078   9.153   7.195
25056WAT     H175410   1.060   9.249   7.175
25056WAT     H275411   1.143   9.146   7.270
25057WAT      O75412   6.328   3.188   3.849
25057WAT     H175413   6.398   3.143   3.904
25057WAT     H275414   6.302   3.274   3.891
25058WAT      O75415   1.831   7.542   6.706
25058WAT     H175416   1.792   7.614   6.763
25058WAT     H275417   1.844   7.576   6.613
25059WAT      O75418   1.363   6.342   5.894
25059WAT     H175419   1.444   6.380   5.850
25059WAT     H275420   1.372   6.243   5.901
25060WAT      O75421   0.228   8.977   2.741
25060WAT     H175422   0.227   8.877   2.748
25060WAT     H275423   0.323   9.009   2.739
25061WAT      O75424   8.643   8.739   4.214
25061WAT     H175425   8.625   8.808   4.284
25061WAT     H275426   8.564   8.679   4.204
25062WAT      O75427   1.093   6.417   8.584
25062WAT     H175428   1.138   6.448   8.668
25062WAT     H275429   0.996   6.398   8.602
25063WAT      O75430   1.397   2.256   1.611
25063WAT     H175431   1.413   2.216   1.521
25063WAT     H275432   1.309   2.303   1.611
25064WAT      O75433   6.942   6.467   4.123
25064WAT     H175434   6.961   6.522   4.204
25064WAT     H275435   6.846   6.438   4.125
25065WAT      O75436   7.816   0.216   8.071
25065WAT     H175437   7.888   0.284   8.062
25065WAT     H275438   7.729   0.256   8.046
25066WAT      O75439   0.994   8.470   6.646
25066WAT     H175440   0.940   8.506   6.570
25066WAT     H275441   1.046   8.391   6.615
25067WAT      O75442   3.218   1.926   9.174
25067WAT     H175443   3.232   1.978   9.258
25067WAT     H275444   3.306   1.906   9.132
25068WAT      O75445   3.691   0.356   7.079
25068WAT     H175446   3.746   0.384   7.000
25068WAT     H275447   3.604   0.407   7.078
25069WAT      O75448   9.238   7.839   1.478
25069WAT     H175449   9.280   7.848   1.388
25069WAT     H275450   9.171   7.765   1.476
25070WAT      O75451   3.729   7.101   3.167
25070WAT     H175452   3.829   7.094   3.165
25070WAT     H275453   3.690   7.016   3.202
25071WAT      O75454   5.670   3.399   3.436
25071WAT     H175455   5.655   3.332   3.508
25071WAT     H275456   5.629   3.487   3.463
25072WAT      O75457   6.645   4.281   4.371
25072WAT     H175458   6.628   4.377   4.353
25072WAT     H275459   6.629   4.262   4.468
25073WAT      O75460   3.580   9.130   0.935
25073WAT     H175461   3.565   9.044   0.886
25073WAT     H275462   3.591   9.112   1.033
25074WAT      O75463   6.262   8.432   6.788
25074WAT     H175464   6.343   8.378   6.765
25074WAT     H275465   6.290   8.526   6.810
25075WAT      O75466   7.005   3.815   5.592
25075WAT     H175467   6.965   3.764   5.516
25075WAT     H275468   6.997   3.761   5.676
25076WAT      O75469   1.439   4.617   6.567
25076WAT     H175470   1.533   4.628   6.536
25076WAT     H275471   1.382   4.690   6.528
25077WAT      O75472   8.624   4.512   9.511
25077WAT     H175473   8.625   4.521   9.611
25077WAT     H275474   8.716   4.528   9.475
25078WAT      O75475   5.020   5.543   0.170
25078WAT     H175476   5.114   5.577   0.168
25078WAT     H275477   4.959   5.612   0.131
25079WAT      O75478   5.720   6.093   6.148
25079WAT     H175479   5.724   6.111   6.050
25079WAT     H275480   5.629   6.118   6.183
25080WAT      O75481   9.298   6.594   2.289
25080WAT     H175482   9.343   6.517   2.245
25080WAT     H275483   9.299   6.673   2.228
25081WAT      O75484   8.154   2.723   6.619
25081WAT     H175485   8.110   2.773   6.693
25081WAT     H275486   8.237   2.771   6.591
25082WAT      O75487   0.554   8.427   2.511
25082WAT     H175488   0.647   8.391   2.519
25082WAT     H275489   0.515   8.398   2.424
25083WAT      O75490   3.777   0.551   8.905
25083WAT     H175491   3.803   0.591   8.993
25083WAT     H275492   3.703   0.604   8.864
25084WAT      O75493   9.051   4.129   2.566
25084WAT     H175494   9.111   4.052   2.591
25084WAT     H275495   9.013   4.113   2.475
25085WAT      O75496   0.288   3.785   8.720
25085WAT     H175497   0.377   3.809   8.681
25085WAT     H275498   0.272   3.687   8.708
25086WAT      O75499   4.137   5.745   6.468
25086WAT     H175500   4.157   5.843   6.475
25086WAT     H275501   4.088   5.727   6.383
25087WAT      O75502   0.421   1.415   6.047
25087WAT     H175503   0.425   1.515   6.051
25087WAT     H275504   0.457   1.384   5.959
25088WAT      O75505   1.755   1.842   1.585
25088WAT     H175506   1.818   1.809   1.515
25088WAT     H275507   1.666   1.862   1.543
25089WAT      O75508   8.746   5.579   7.838
25089WAT     H175509   8.756   5.507   7.906
25089WAT     H275510   8.764   5.542   7.747
25090WAT      O75511   9.540   2.790   3.972
25090WAT     H175512   9.562   2.840   3.889
25090WAT     H275513   9.563   2.693   3.960
25091WAT      O75514   8.719   7.596   4.282
25091WAT     H175515   8.809   7.626   4.314
25091WAT     H275516   8.668   7.557   4.359
25092WAT      O75517   5.950   0.144   8.369
25092WAT     H175518   5.967   0.179   8.461
25092WAT     H275519   5.945   0.044   8.372
25093WAT      O75520   0.218   7.103   3.926
25093WAT     H175521   0.292   7.163   3.894
25093WAT     H275522   0.168   7.067   3.848
25094WAT      O75523   5.912   1.144   5.895
25094WAT     H175524   5.879   1.201   5.971
25094WAT     H275525   5.899   1.047   5.918
25095WAT      O75526   7.836   5.319   0.392
25095WAT     H175527   7.762   5.385   0.402
25095WAT     H275528   7.919   5.356   0.432
25096WAT      O75529   7.627   4.549   1.228
25096WAT     H175530   7.655   4.519   1.319
25096WAT     H275531   7.650   4.646   1.216
25097WAT      O75532   9.046   0.551   9.657
25097WAT     H175533   9.123   0.595   9.704
25097WAT     H275534   8.962   0.569   9.708
25098WAT      O75535   4.106   8.971   6.681
25098WAT     H175536   4.088   8.976   6.583
25098WAT     H275537   4.087   9.059   6.723
25099WAT      O75538   7.627   3.552   5.455
25099WAT     H175539   7.725   3.546   5.434
25099WAT     H275540   7.574   3.521   5.376
25100WAT      O75541   5.484   5.668   6.466
25100WAT     H175542   5.433   5.750   6.439
25100WAT     H275543   5.582   5.686   6.459
25101WAT      O75544   7.529   2.014   7.919
25101WAT     H175545   7.460   1.942   7.923
25101WAT     H275546   7.537   2.058   8.008
25102WAT      O75547   0.157   4.760   5.536
25102WAT     H175548   0.209   4.737   5.454
25102WAT     H275549   0.063   4.783   5.510
25103WAT      O75550   2.475   0.075   4.906
25103WAT     H175551   2.553   0.096   4.847
25103WAT     H275552   2.434  -0.012   4.878
25104WAT      O75553   5.351   8.658   8.780
25104WAT     H175554   5.399   8.609   8.708
25104WAT     H275555   5.339   8.753   8.753
25105WAT      O75556   6.342   5.946   5.439
25105WAT     H175557   6.360   6.037   5.402
25105WAT     H275558   6.244   5.931   5.445
25106WAT      O75559   9.356   4.149   2.026
25106WAT     H175560   9.405   4.062   2.036
25106WAT     H275561   9.259   4.134   2.044
25107WAT      O75562   4.673   9.586   0.094
25107WAT     H175563   4.730   9.518   0.141
25107WAT     H275564   4.663   9.666   0.153
25108WAT      O75565   3.991   6.618   8.361
25108WAT     H175566   3.986   6.671   8.276
25108WAT     H275567   4.025   6.526   8.341
25109WAT      O75568   5.435   4.780   4.545
25109WAT     H175569   5.401   4.862   4.592
25109WAT     H275570   5.362   4.743   4.487
25110WAT      O75571   0.543   5.617   0.935
25110WAT     H175572   0.624   5.605   0.993
25110WAT     H275573   0.503   5.707   0.952
25111WAT      O75574   0.053   4.229   9.779
25111WAT     H175575   0.122   4.225   9.707
25111WAT     H275576   0.094   4.260   9.864
25112WAT      O75577   2.545   5.785   9.720
25112WAT     H175578   2.483   5.765   9.795
25112WAT     H275579   2.640   5.773   9.750
25113WAT      O75580   3.129   3.125   5.517
25113WAT     H175581   3.131   3.045   5.457
25113WAT     H275582   3.174   3.202   5.470
25114WAT      O75583   8.162   6.025   0.055
25114WAT     H175584   8.158   6.038   0.154
25114WAT     H275585   8.116   5.939   0.031
25115WAT      O75586   9.750   5.141   9.827
25115WAT     H175587   9.782   5.219   9.773
25115WAT     H275588   9.762   5.057   9.775
25116WAT      O75589   5.875   1.910   9.688
25116WAT     H175590   5.799   1.972   9.706
25116WAT     H275591   5.882   1.844   9.762
25117WAT      O75592   2.175   9.665   2.914
25117WAT     H175593   2.224   9.688   2.998
25117WAT     H275594   2.239   9.664   2.837
25118WAT      O75595   6.051   6.753   2.419
25118WAT     H175596   6.085   6.684   2.483
25118WAT     H275597   6.095   6.741   2.331
25119WAT      O75598   7.542   7.682   7.696
25119WAT     H175599   7.482   7.676   7.776
25119WAT     H275600   7.636   7.695   7.727
25120WAT      O75601   0.677   9.643   5.803
25120WAT     H175602   0.677   9.663   5.705
25120WAT     H275603   0.593   9.679   5.844
25121WAT      O75604   5.201   3.831   0.833
25121WAT     H175605   5.200   3.738   0.871
25121WAT     H275606   5.108   3.866   0.828
25122WAT      O75607   1.582   8.775   0.744
25122WAT     H175608   1.560   8.849   0.681
25122WAT     H275609   1.588   8.689   0.694
25123WAT      O75610   2.909   2.534   1.441
25123WAT     H175611   2.929   2.494   1.351
25123WAT     H275612   2.962   2.487   1.511
25124WAT      O75613   6.728   2.174   3.802
25124WAT     H175614   6.789   2.109   3.757
25124WAT     H275615   6.634   2.160   3.769
25125WAT      O75616   4.952   0.326   1.412
25125WAT     H175617   4.896   0.286   1.484
25125WAT     H275618   5.048   0.301   1.425
25126WAT      O75619   8.295   5.343   5.336
25126WAT     H175620   8.349   5.375   5.258
25126WAT     H275621   8.326   5.389   5.419
25127WAT      O75622   8.349   3.766   9.326
25127WAT     H175623   8.325   3.689   9.386
25127WAT     H275624   8.366   3.732   9.234
25128WAT      O75625   9.112   7.541   7.644
25128WAT     H175626   9.100   7.444   7.621
25128WAT     H275627   9.079   7.558   7.736
25129WAT      O75628   9.555   1.632   2.951
25129WAT     H175629   9.515   1.552   2.907
25129WAT     H275630   9.553   1.709   2.888
25130WAT      O75631   3.643   6.111   6.511
25130WAT     H175632   3.668   6.061   6.594
25130WAT     H275633   3.545   6.130   6.512
25131WAT      O75634   0.228   0.379   0.429
25131WAT     H175635   0.183   0.390   0.340
25131WAT     H275636   0.164   0.404   0.502
25132WAT      O75637   0.983   1.536   4.436
25132WAT     H175638   0.895   1.560   4.394
25132WAT     H275639   1.002   1.599   4.511
25133WAT      O75640   1.367   2.447   5.037
25133WAT     H175641   1.457   2.487   5.055
25133WAT     H275642   1.377   2.350   5.012
25134WAT      O75643   7.308   5.135   7.876
25134WAT     H175644   7.242   5.198   7.917
25134WAT     H275645   7.386   5.123   7.938
25135WAT      O75646   2.801   9.800   8.514
25135WAT     H175647   2.716   9.820   8.564
25135WAT     H275648   2.827   9.705   8.530
25136WAT      O75649   8.163   7.696   3.649
25136WAT     H175650   8.225   7.766   3.684
25136WAT     H275651   8.171   7.691   3.549
25137WAT      O75652   0.850   0.237   1.808
25137WAT     H175653   0.850   0.337   1.805
25137WAT     H275654   0.760   0.205   1.840
25138WAT      O75655   7.172   4.784   9.053
25138WAT     H175656   7.250   4.735   9.015
25138WAT     H275657   7.201   4.840   9.131
25139WAT      O75658   3.565   0.773   0.946
25139WAT     H175659   3.605   0.771   1.038
25139WAT     H275660   3.473   0.734   0.949
25140WAT      O75661   0.918   3.586   4.276
25140WAT     H175662   0.994   3.533   4.314
25140WAT     H275663   0.923   3.680   4.309
25141WAT      O75664   1.978   6.200   9.723
25141WAT     H175665   2.046   6.127   9.718
25141WAT     H275666   1.968   6.242   9.633
25142WAT      O75667   6.257   7.556   7.757
25142WAT     H175668   6.291   7.647   7.733
25142WAT     H275669   6.235   7.553   7.854
25143WAT      O75670   0.920   3.556   9.846
25143WAT     H175671   0.955   3.638   9.803
25143WAT     H275672   0.994   3.507   9.892
25144WAT      O75673   8.278   2.415   8.119
25144WAT     H175674   8.180   2.416   8.101
25144WAT     H275675   8.325   2.473   8.052
25145WAT      O75676   7.759   8.639   7.931
25145WAT     H175677   7.763   8.541   7.948
25145WAT     H275678   7.838   8.668   7.878
25146WAT      O75679   9.476   4.441   5.979
25146WAT     H175680   9.413   4.463   6.054
25146WAT     H275681   9.449   4.355   5.937
25147WAT      O75682   9.642   1.311   4.517
25147WAT     H175683   9.639   1.398   4.566
25147WAT     H275684   9.631   1.235   4.581
25148WAT      O75685   0.929   6.529   1.142
25148WAT     H175686   0.973   6.548   1.230
25148WAT     H275687   0.946   6.434   1.117
25149WAT      O75688   1.356   7.371   9.822
25149WAT     H175689   1.447   7.412   9.815
25149WAT     H275690   1.287   7.442   9.808
25150WAT      O75691   0.716   3.029   5.563
25150WAT     H175692   0.648   2.975   5.612
25150WAT     H275693   0.749   2.978   5.484
25151WAT      O75694   1.201   1.419   3.925
25151WAT     H175695   1.154   1.348   3.873
25151WAT     H275696   1.146   1.444   4.004
25152WAT      O75697   2.810   7.675   7.607
25152WAT     H175698   2.731   7.670   7.668
25152WAT     H275699   2.843   7.769   7.602
25153WAT      O75700   2.927   8.948   2.348
25153WAT     H175701   2.902   9.034   2.302
25153WAT     H275702   2.895   8.950   2.443
25154WAT      O75703   7.870   1.952   5.153
25154WAT     H175704   7.930   2.028   5.176
25154WAT     H275705   7.913   1.895   5.082
25155WAT      O75706   7.402   6.243   9.463
25155WAT     H175707   7.302   6.244   9.461
25155WAT     H275708   7.437   6.269   9.373
25156WAT      O75709   5.763   5.318   8.144
25156WAT     H175710   5.762   5.418   8.139
25156WAT     H275711   5.817   5.281   8.068
25157WAT      O75712   8.351   8.967   9.710
25157WAT     H175713   8.258   8.939   9.733
25157WAT     H275714   8.348   9.054   9.661
25158WAT      O75715   1.586   2.746   6.031
25158WAT     H175716   1.558   2.652   6.010
25158WAT     H275717   1.578   2.802   5.949
25159WAT      O75718   9.177   8.824   0.741
25159WAT     H175719   9.187   8.772   0.826
25159WAT     H275720   9.079   8.835   0.720
25160WAT      O75721   2.781   4.580   4.739
25160WAT     H175722   2.860   4.546   4.687
25160WAT     H275723   2.798   4.571   4.837
25161WAT      O75724   4.117   3.020   9.756
25161WAT     H175725   4.106   3.014   9.855
25161WAT     H275726   4.198   3.075   9.736
25162WAT      O75727   0.045   4.104   6.831
25162WAT     H175728   0.080   4.013   6.853
25162WAT     H275729   0.036   4.158   6.915
25163WAT      O75730   9.318   8.343   2.396
25163WAT     H175731   9.409   8.333   2.355
25163WAT     H275732   9.253   8.372   2.326
25164WAT      O75733   4.535   2.377   3.314
25164WAT     H175734   4.554   2.473   3.295
25164WAT     H275735   4.620   2.330   3.338
25165WAT      O75736   9.673   1.099   5.206
25165WAT     H175737   9.585   1.093   5.252
25165WAT     H275738   9.716   1.009   5.203
25166WAT      O75739   3.475   1.390   9.235
25166WAT     H175740   3.469   1.338   9.149
25166WAT     H275741   3.525   1.336   9.303
25167WAT      O75742   2.367   0.332   5.828
25167WAT     H175743   2.291   0.272   5.803
25167WAT     H275744   2.332   0.422   5.852
25168WAT      O75745   8.023   6.151   1.528
25168WAT     H175746   7.994   6.212   1.454
25168WAT     H275747   8.065   6.069   1.489
25169WAT      O75748   0.816   9.196   4.714
25169WAT     H175749   0.810   9.284   4.760
25169WAT     H275750   0.873   9.134   4.767
25170WAT      O75751   6.673   8.636   5.687
25170WAT     H175752   6.667   8.734   5.706
25170WAT     H275753   6.760   8.600   5.720
25171WAT      O75754   7.233   6.104   2.598
25171WAT     H175755   7.244   6.062   2.508
25171WAT     H275756   7.282   6.191   2.602
25172WAT      O75757   9.708   9.239   0.116
25172WAT     H175758   9.641   9.176   0.074
25172WAT     H275759   9.675   9.266   0.206
25173WAT      O75760   3.648   7.442   9.197
25173WAT     H175761   3.598   7.476   9.277
25173WAT     H275762   3.667   7.518   9.135
25174WAT      O75763   6.393   1.374   4.039
25174WAT     H175764   6.354   1.405   3.952
25174WAT     H275765   6.481   1.419   4.054
25175WAT      O75766   2.496   0.808   0.557
25175WAT     H175767   2.407   0.770   0.581
25175WAT     H275768   2.544   0.838   0.639
25176WAT      O75769   1.794   3.790   0.419
25176WAT     H175770   1.763   3.755   0.331
25176WAT     H275771   1.828   3.715   0.476
25177WAT      O75772   3.981   5.458   3.912
25177WAT     H175773   3.896   5.459   3.965
25177WAT     H275774   4.048   5.399   3.958
25178WAT      O75775   3.479   0.580   9.758
25178WAT     H175776   3.463   0.523   9.839
25178WAT     H275777   3.558   0.640   9.775
25179WAT      O75778   4.504   8.553   4.226
25179WAT     H175779   4.506   8.631   4.165
25179WAT     H275780   4.409   8.529   4.247
25180WAT      O75781   5.116   1.288   6.935
25180WAT     H175782   5.190   1.276   7.001
25180WAT     H275783   5.129   1.225   6.859
25181WAT      O75784   1.394   3.703   6.495
25181WAT     H175785   1.335   3.640   6.546
25181WAT     H275786   1.407   3.669   6.402
25182WAT      O75787   8.648   4.683   4.895
25182WAT     H175788   8.726   4.673   4.956
25182WAT     H275789   8.569   4.634   4.933
25183WAT      O75790   7.190   8.328   1.425
25183WAT     H175791   7.277   8.375   1.444
25183WAT     H275792   7.202   8.230   1.437
25184WAT      O75793   1.076   8.769   1.577
25184WAT     H175794   1.113   8.794   1.666
25184WAT     H275795   0.976   8.774   1.580
25185WAT      O75796   8.421   6.822   1.103
25185WAT     H175797   8.435   6.865   1.014
25185WAT     H275798   8.381   6.732   1.091
25186WAT      O75799   2.831   3.482   4.394
25186WAT     H175800   2.776   3.516   4.469
25186WAT     H275801   2.835   3.551   4.321
25187WAT      O75802   9.114   6.142   9.790
25187WAT     H175803   9.026   6.183   9.815
25187WAT     H275804   9.185   6.213   9.790
25188WAT      O75805   4.721   6.935   8.059
25188WAT     H175806   4.783   6.879   8.115
25188WAT     H275807   4.634   6.887   8.049
25189WAT      O75808   2.887   3.351   9.664
25189WAT     H175809   2.823   3.378   9.736
25189WAT     H275810   2.857   3.264   9.624
25190WAT      O75811   8.747   7.164   7.660
25190WAT     H175812   8.785   7.083   7.616
25190WAT     H275813   8.771   7.163   7.757
25191WAT      O75814   1.870   1.285   4.996
25191WAT     H175815   1.809   1.315   4.923
25191WAT     H275816   1.841   1.196   5.030
25192WAT      O75817   1.095   0.033   3.486
25192WAT     H175818   1.054   0.113   3.531
25192WAT     H275819   1.129  -0.030   3.556
25193WAT      O75820   5.921   0.616   3.161
25193WAT     H175821   6.021   0.611   3.172
25193WAT     H275822   5.879   0.631   3.250
25194WAT      O75823   7.556   8.094   4.747
25194WAT     H175824   7.638   8.145   4.723
25194WAT     H275825   7.561   8.002   4.709
25195WAT      O75826   3.070   5.706   1.632
25195WAT     H175827   3.023   5.622   1.659
25195WAT     H275828   3.168   5.688   1.622
25196WAT      O75829   6.777   5.699   3.961
25196WAT     H175830   6.789   5.728   4.056
25196WAT     H275831   6.819   5.609   3.949
25197WAT      O75832   1.032   8.889   7.805
25197WAT     H175833   0.981   8.808   7.775
25197WAT     H275834   0.971   8.948   7.859
25198WAT      O75835   4.919   6.499   3.083
25198WAT     H175836   4.870   6.426   3.130
25198WAT     H275837   4.855   6.554   3.030
25199WAT      O75838   3.156   3.292   9.238
25199WAT     H175839   3.232   3.275   9.176
25199WAT     H275840   3.189   3.336   9.321
25200WAT      O75841   8.079   0.738   8.891
25200WAT     H175842   8.135   0.780   8.962
25200WAT     H275843   8.135   0.671   8.840
25201WAT      O75844   5.354   4.668   6.441
25201WAT     H175845   5.336   4.631   6.532
25201WAT     H275846   5.410   4.751   6.450
25202WAT      O75847   7.544   8.444   5.867
25202WAT     H175848   7.636   8.455   5.830
25202WAT     H275849   7.477   8.447   5.793
25203WAT      O75850   2.547   4.940   1.061
25203WAT     H175851   2.502   4.862   1.103
25203WAT     H275852   2.483   5.016   1.051
25204WAT      O75853   6.510   5.633   4.940
25204WAT     H175854   6.605   5.641   4.969
25204WAT     H275855   6.457   5.708   4.979
25205WAT      O75856   0.772   3.196   3.956
25205WAT     H175857   0.866   3.205   3.989
25205WAT     H275858   0.763   3.110   3.906
25206WAT      O75859   8.804   0.867   4.369
25206WAT     H175860   8.888   0.920   4.360
25206WAT     H275861   8.752   0.874   4.284
25207WAT      O75862   1.746   2.908   7.531
25207WAT     H175863   1.669   2.862   7.575
25207WAT     H275864   1.793   2.965   7.598
25208WAT      O75865   2.551   4.831   6.218
25208WAT     H175866   2.452   4.814   6.213
25208WAT     H275867   2.576   4.899   6.149
25209WAT      O75868   5.667   1.882   7.308
25209WAT     H175869   5.630   1.943   7.378
25209WAT     H275870   5.745   1.833   7.345
25210WAT      O75871   5.243   5.912   5.587
25210WAT     H175872   5.206   5.882   5.499
25210WAT     H275873   5.230   6.011   5.597
25211WAT      O75874   2.489   5.193   3.821
25211WAT     H175875   2.451   5.121   3.880
25211WAT     H275876   2.438   5.195   3.735
25212WAT      O75877   2.238   9.494   5.472
25212WAT     H175878   2.240   9.423   5.403
25212WAT     H275879   2.221   9.453   5.562
25213WAT      O75880   1.521   6.469   9.177
25213WAT     H175881   1.579   6.479   9.096
25213WAT     H275882   1.578   6.444   9.255
25214WAT      O75883   9.294   3.171   4.036
25214WAT     H175884   9.339   3.188   3.948
25214WAT     H275885   9.213   3.114   4.021
25215WAT      O75886   4.784   5.148   7.916
25215WAT     H175887   4.710   5.091   7.952
25215WAT     H275888   4.748   5.207   7.843
25216WAT      O75889   3.659   2.993   8.931
25216WAT     H175890   3.749   2.953   8.945
25216WAT     H275891   3.665   3.092   8.941
25217WAT      O75892   4.364   6.661   6.854
25217WAT     H175893   4.323   6.638   6.942
25217WAT     H275894   4.407   6.579   6.815
25218WAT      O75895   3.786   0.151   1.449
25218WAT     H175896   3.778   0.109   1.358
25218WAT     H275897   3.695   0.160   1.489
25219WAT      O75898   0.667   7.905   4.906
25219WAT     H175899   0.687   7.956   4.989
25219WAT     H275900   0.657   7.808   4.927
25220WAT      O75901   5.794   3.634   1.905
25220WAT     H175902   5.719   3.620   1.840
25220WAT     H275903   5.853   3.708   1.872
25221WAT      O75904   9.574   3.564   8.558
25221WAT     H175905   9.610   3.491   8.499
25221WAT     H275906   9.493   3.531   8.606
25222WAT      O75907   7.729   3.932   8.885
25222WAT     H175908   7.771   3.844   8.905
25222WAT     H275909   7.630   3.926   8.901
25223WAT      O75910   1.276   7.846   0.703
25223WAT     H175911   1.270   7.866   0.801
25223WAT     H275912   1.280   7.932   0.652
25224WAT      O75913   6.883   5.290   4.463
25224WAT     H175914   6.793   5.258   4.434
25224WAT     H275915   6.905   5.249   4.552
25225WAT      O75916   0.133   2.557   3.876
25225WAT     H175917   0.088   2.646   3.884
25225WAT     H275918   0.064   2.485   3.871
25226WAT      O75919   5.053   8.310   6.868
25226WAT     H175920   5.152   8.317   6.860
25226WAT     H275921   5.027   8.306   6.964
25227WAT      O75922   8.277   9.271   2.963
25227WAT     H175923   8.288   9.201   3.033
25227WAT     H275924   8.197   9.250   2.907
25228WAT      O75925   2.457   0.345   2.462
25228WAT     H175926   2.422   0.287   2.536
25228WAT     H275927   2.435   0.440   2.481
25229WAT      O75928   0.816   5.204   0.761
25229WAT     H175929   0.785   5.250   0.844
25229WAT     H275930   0.736   5.171   0.709
25230WAT      O75931   4.163   0.474   7.937
25230WAT     H175932   4.221   0.434   8.007
25230WAT     H275933   4.102   0.542   7.978
25231WAT      O75934   5.782   2.036   1.814
25231WAT     H175935   5.695   1.987   1.807
25231WAT     H275936   5.856   1.978   1.779
25232WAT      O75937   9.569   1.271   3.972
25232WAT     H175938   9.654   1.219   3.968
25232WAT     H275939   9.572   1.335   4.048
25233WAT      O75940   2.605   8.024   6.684
25233WAT     H175941   2.645   7.995   6.597
25233WAT     H275942   2.506   8.034   6.675
25234WAT      O75943   9.589   5.160   7.350
25234WAT     H175944   9.622   5.209   7.431
25234WAT     H275945   9.506   5.205   7.316
25235WAT      O75946   0.093   1.512   8.478
25235WAT     H175947   0.055   1.420   8.471
25235WAT     H275948   0.026   1.579   8.445
25236WAT      O75949   3.218   4.196   1.452
25236WAT     H175950   3.207   4.290   1.485
25236WAT     H275951   3.312   4.183   1.422
25237WAT      O75952   9.460   3.933   3.808
25237WAT     H175953   9.435   4.007   3.870
25237WAT     H275954   9.431   3.845   3.846
25238WAT      O75955   1.540   1.184   3.769
25238WAT     H175956   1.548   1.085   3.779
25238WAT     H275957   1.532   1.227   3.859
25239WAT      O75958   3.361   0.458   8.143
25239WAT     H175959   3.276   0.437   8.095
25239WAT     H275960   3.387   0.553   8.126
25240WAT      O75961   8.007   6.731   2.925
25240WAT     H175962   8.021   6.642   2.969
25240WAT     H275963   8.072   6.742   2.850
25241WAT      O75964   6.843   8.305   1.692
25241WAT     H175965   6.885   8.343   1.610
25241WAT     H275966   6.745   8.324   1.692
25242WAT      O75967   9.713   5.990   6.109
25242WAT     H175968   9.753   5.911   6.156
25242WAT     H275969   9.717   5.976   6.010
25243WAT      O75970   6.305   0.031   7.840
25243WAT     H175971   6.302  -0.016   7.928
25243WAT     H275972   6.249   0.114   7.845
25244WAT      O75973   1.173   2.363   3.188
25244WAT     H175974   1.075   2.371   3.170
25244WAT     H275975   1.188   2.311   3.273
25245WAT      O75976   0.715   5.638   4.309
25245WAT     H175977   0.758   5.675   4.227
25245WAT     H275978   0.620   5.614   4.289
25246WAT      O75979   3.269   3.339   5.405
25246WAT     H175980   3.314   3.253   5.384
25246WAT     H275981   3.330   3.416   5.384
25247WAT      O75982   5.323   8.076   6.947
25247WAT     H175983   5.274   8.093   7.033
25247WAT     H275984   5.345   8.164   6.904
25248WAT      O75985   5.460   5.096   7.906
25248WAT     H175986   5.508   5.182   7.891
25248WAT     H275987   5.367   5.115   7.937
25249WAT      O75988   5.369   5.273   6.902
25249WAT     H175989   5.340   5.178   6.906
25249WAT     H275990   5.399   5.302   6.993
25250WAT      O75991   5.115   2.459   2.824
25250WAT     H175992   5.077   2.401   2.897
25250WAT     H275993   5.040   2.506   2.777
25251WAT      O75994   2.432   9.844   8.284
25251WAT     H175995   2.391   9.765   8.330
25251WAT     H275996   2.476   9.903   8.352
25252WAT      O75997   6.383   6.803   5.032
25252WAT     H175998   6.453   6.733   5.048
25252WAT     H275999   6.309   6.765   4.977
25253WAT      O76000   3.179   8.335   3.117
25253WAT     H176001   3.196   8.253   3.172
25253WAT     H276002   3.207   8.318   3.023
25254WAT      O76003   9.135   1.103   6.551
25254WAT     H176004   9.090   1.191   6.538
25254WAT     H276005   9.234   1.118   6.559
25255WAT      O76006   6.572   8.866   0.512
25255WAT     H176007   6.508   8.864   0.590
25255WAT     H276008   6.665   8.849   0.545
25256WAT      O76009   1.408   0.279   2.308
25256WAT     H176010   1.429   0.316   2.218
25256WAT     H276011   1.396   0.353   2.374
25257WAT      O76012   2.913   4.304   8.454
25257WAT     H176013   2.847   4.369   8.493
25257WAT     H276014   3.000   4.351   8.437
25258WAT      O76015   2.236   9.201   4.788
25258WAT     H176016   2.180   9.120   4.809
25258WAT     H276017   2.189   9.259   4.722
25259WAT      O76018   2.180   7.493   4.246
25259WAT     H176019   2.253   7.437   4.286
25259WAT     H276020   2.171   7.578   4.298
25260WAT      O76021   5.847   8.823   6.958
25260WAT     H176022   5.753   8.807   6.986
25260WAT     H276023   5.901   8.853   7.037
25261WAT      O76024   8.436   4.486   7.133
25261WAT     H176025   8.535   4.476   7.137
25261WAT     H276026   8.400   4.493   7.226
25262WAT      O76027   0.176   8.433   9.190
25262WAT     H176028   0.208   8.506   9.250
25262WAT     H276029   0.205   8.345   9.226
25263WAT      O76030   3.236   4.770   2.682
25263WAT     H176031   3.322   4.739   2.723
25263WAT     H276032   3.159   4.741   2.739
25264WAT      O76033   0.041   3.015   9.793
25264WAT     H176034   0.071   3.106   9.822
25264WAT     H276035   0.065   2.948   9.863
25265WAT      O76036   7.617   8.566   4.585
25265WAT     H176037   7.660   8.504   4.651
25265WAT     H276038   7.654   8.658   4.596
25266WAT      O76039   2.680   5.105   9.672
25266WAT     H176040   2.730   5.027   9.635
25266WAT     H276041   2.702   5.187   9.618
25267WAT      O76042   4.422   7.298   3.605
25267WAT     H176043   4.463   7.210   3.581
25267WAT     H276044   4.433   7.362   3.530
25268WAT      O76045   8.787   9.813   3.962
25268WAT     H176046   8.767   9.911   3.955
25268WAT     H276047   8.826   9.793   4.051
25269WAT      O76048   3.576   2.180   3.820
25269WAT     H176049   3.543   2.220   3.734
25269WAT     H276050   3.621   2.093   3.801
25270WAT      O76051   8.695   8.770   3.096
25270WAT     H176052   8.634   8.790   3.020
25270WAT     H276053   8.643   8.761   3.181
25271WAT      O76054   1.823   0.891   3.419
25271WAT     H176055   1.879   0.964   3.459
25271WAT     H276056   1.880   0.813   3.398
25272WAT      O76057   7.827   1.760   0.768
25272WAT     H176058   7.803   1.849   0.728
25272WAT     H276059   7.744   1.711   0.792
25273WAT      O76060   5.135   0.872   8.808
25273WAT     H176061   5.036   0.883   8.820
25273WAT     H276062   5.170   0.807   8.875
25274WAT      O76063   3.773   0.891   7.571
25274WAT     H176064   3.707   0.948   7.620
25274WAT     H276065   3.866   0.914   7.599
25275WAT      O76066   6.043   0.954   5.569
25275WAT     H176067   6.090   0.920   5.487
25275WAT     H276068   6.086   0.916   5.650
25276WAT      O76069   7.563   5.365   4.750
25276WAT     H176070   7.541   5.283   4.697
25276WAT     H276071   7.562   5.445   4.690
25277WAT      O76072   1.958   2.609   7.155
25277WAT     H176073   2.051   2.578   7.136
25277WAT     H276074   1.959   2.676   7.229
25278WAT      O76075   2.820   2.285   7.839
25278WAT     H176076   2.762   2.207   7.861
25278WAT     H276077   2.763   2.365   7.820
25279WAT      O76078   7.949   3.721   3.295
25279WAT     H176079   7.890   3.802   3.306
25279WAT     H276080   7.981   3.716   3.200
25280WAT      O76081   1.139   3.829   6.776
25280WAT     H176082   1.152   3.866   6.684
25280WAT     H276083   1.136   3.729   6.771
25281WAT      O76084   9.476   6.652   1.054
25281WAT     H176085   9.484   6.576   1.119
25281WAT     H276086   9.468   6.738   1.104
25282WAT      O76087   9.667   6.883   8.332
25282WAT     H176088   9.629   6.956   8.274
25282WAT     H276089   9.767   6.890   8.331
25283WAT      O76090   5.961   3.380   1.363
25283WAT     H176091   6.061   3.381   1.365
25283WAT     H276092   5.928   3.288   1.380
25284WAT      O76093   2.565   3.057   0.849
25284WAT     H176094   2.535   3.150   0.870
25284WAT     H276095   2.655   3.060   0.806
25285WAT      O76096   9.564   1.877   9.614
25285WAT     H176097   9.491   1.906   9.553
25285WAT     H276098   9.641   1.942   9.608
25286WAT      O76099   1.288   6.407   3.495
25286WAT     H176100   1.202   6.454   3.515
25286WAT     H276101   1.365   6.462   3.526
25287WAT      O76102   0.057   1.601   3.536
25287WAT     H176103  -0.031   1.567   3.569
25287WAT     H276104   0.042   1.657   3.454
25288WAT      O76105   1.753   8.607   6.765
25288WAT     H176106   1.836   8.631   6.816
25288WAT     H276107   1.779   8.578   6.673
25289WAT      O76108   1.328   9.004   2.282
25289WAT     H176109   1.326   8.911   2.317
25289WAT     H276110   1.379   9.006   2.196
25290WAT      O76111   3.699   6.381   3.269
25290WAT     H176112   3.715   6.284   3.249
25290WAT     H276113   3.756   6.438   3.209
25291WAT      O76114   9.444   9.482   7.309
25291WAT     H176115   9.526   9.443   7.268
25291WAT     H276116   9.400   9.545   7.245
25292WAT      O76117   4.929   9.372   9.718
25292WAT     H176118   4.937   9.471   9.730
25292WAT     H276119   5.020   9.332   9.707
25293WAT      O76120   8.003   1.365   9.888
25293WAT     H176121   7.988   1.463   9.905
25293WAT     H276122   7.944   1.312   9.949
25294WAT      O76123   5.480   5.093   6.264
25294WAT     H176124   5.438   5.126   6.349
25294WAT     H276125   5.413   5.094   6.191
25295WAT      O76126   0.609   0.957   2.976
25295WAT     H176127   0.682   0.932   3.040
25295WAT     H276128   0.615   1.054   2.954
25296WAT      O76129   0.458   8.324   4.329
25296WAT     H176130   0.429   8.419   4.340
25296WAT     H276131   0.379   8.264   4.338
25297WAT      O76132   9.258   5.277   1.539
25297WAT     H176133   9.223   5.279   1.446
25297WAT     H276134   9.205   5.339   1.597
25298WAT      O76135   3.254   0.598   3.560
25298WAT     H176136   3.283   0.692   3.541
25298WAT     H276137   3.271   0.577   3.656
25299WAT      O76138   2.277   4.023   5.774
25299WAT     H176139   2.328   4.109   5.769
25299WAT     H276140   2.185   4.037   5.737
25300WAT      O76141   5.982   2.669   8.841
25300WAT     H176142   6.031   2.588   8.810
25300WAT     H276143   6.039   2.721   8.904
25301WAT      O76144   1.018   5.608   3.863
25301WAT     H176145   0.945   5.572   3.922
25301WAT     H276146   0.980   5.630   3.773
25302WAT      O76147   0.509   8.442   3.560
25302WAT     H176148   0.451   8.434   3.479
25302WAT     H276149   0.601   8.410   3.537
25303WAT      O76150   9.870   1.984   1.939
25303WAT     H176151   9.836   2.077   1.955
25303WAT     H276152   9.801   1.918   1.969
25304WAT      O76153   6.860   6.179   5.436
25304WAT     H176154   6.871   6.197   5.338
25304WAT     H276155   6.842   6.081   5.450
25305WAT      O76156   4.197   2.710   6.150
25305WAT     H176157   4.271   2.729   6.215
25305WAT     H276158   4.206   2.771   6.071
25306WAT      O76159   0.710   4.069   1.920
25306WAT     H176160   0.748   4.143   1.865
25306WAT     H276161   0.687   4.103   2.011
25307WAT      O76162   9.495   0.625   8.232
25307WAT     H176163   9.508   0.724   8.221
25307WAT     H276164   9.583   0.579   8.216
25308WAT      O76165   2.241   7.708   5.452
25308WAT     H176166   2.304   7.782   5.426
25308WAT     H276167   2.170   7.700   5.383
25309WAT      O76168   1.104   9.177   2.559
25309WAT     H176169   1.082   9.274   2.550
25309WAT     H276170   1.201   9.163   2.538
25310WAT      O76171   7.421   8.639   6.991
25310WAT     H176172   7.425   8.627   6.892
25310WAT     H276173   7.396   8.552   7.034
25311WAT      O76174   8.323   1.628   3.954
25311WAT     H176175   8.416   1.593   3.947
25311WAT     H276176   8.320   1.704   4.019
25312WAT      O76177   1.414   1.065   4.519
25312WAT     H176178   1.447   1.075   4.613
25312WAT     H276179   1.443   0.976   4.483
25313WAT      O76180   4.913   5.351   0.694
25313WAT     H176181   4.847   5.276   0.694
25313WAT     H276182   4.982   5.334   0.623
25314WAT      O76183   8.871   9.357   3.967
25314WAT     H176184   8.789   9.409   3.943
25314WAT     H276185   8.936   9.362   3.892
25315WAT      O76186   4.242   4.694   4.803
25315WAT     H176187   4.147   4.662   4.797
25315WAT     H276188   4.273   4.720   4.712
25316WAT      O76189   2.272   8.520   1.677
25316WAT     H176190   2.344   8.577   1.717
25316WAT     H276191   2.300   8.488   1.587
25317WAT      O76192   1.939   5.838   6.913
25317WAT     H176193   2.019   5.781   6.896
25317WAT     H276194   1.885   5.846   6.829
25318WAT      O76195   8.646   4.868   9.816
25318WAT     H176196   8.612   4.924   9.741
25318WAT     H276197   8.603   4.897   9.901
25319WAT      O76198   1.597   7.199   3.628
25319WAT     H176199   1.566   7.273   3.569
25319WAT     H276200   1.694   7.213   3.651
25320WAT      O76201   5.141   6.272   0.255
25320WAT     H176202   5.080   6.282   0.334
25320WAT     H276203   5.182   6.181   0.255
25321WAT      O76204   0.372   0.414   2.082
25321WAT     H176205   0.303   0.373   2.141
25321WAT     H276206   0.461   0.371   2.099
25322WAT      O76207   2.679   9.363   2.052
25322WAT     H176208   2.600   9.423   2.047
25322WAT     H276209   2.734   9.388   2.132
25323WAT      O76210   1.055   9.422   5.379
25323WAT     H176211   1.031   9.434   5.475
25323WAT     H276212   1.047   9.326   5.353
25324WAT      O76213   7.065   5.746   7.985
25324WAT     H176214   6.992   5.694   7.941
25324WAT     H276215   7.029   5.793   8.066
25325WAT      O76216   0.255   0.524   3.107
25325WAT     H176217   0.343   0.568   3.122
25325WAT     H276218   0.253   0.481   3.017
25326WAT      O76219   3.425   9.147   6.289
25326WAT     H176220   3.495   9.083   6.321
25326WAT     H276221   3.369   9.176   6.367
25327WAT      O76222   6.511   0.123   8.280
25327WAT     H176223   6.415   0.109   8.301
25327WAT     H276224   6.557   0.162   8.359
25328WAT      O76225   7.981   3.255   6.732
25328WAT     H176226   7.902   3.195   6.731
25328WAT     H276227   7.958   3.341   6.778
25329WAT      O76228   1.485   9.835   9.104
25329WAT     H176229   1.532   9.831   9.191
25329WAT     H276230   1.413   9.904   9.108
25330WAT      O76231   9.024   7.047   7.194
25330WAT     H176232   8.979   7.117   7.140
25330WAT     H276233   9.089   7.089   7.257
25331WAT      O76234   5.297   6.132   4.134
25331WAT     H176235   5.224   6.151   4.069
25331WAT     H276236   5.377   6.098   4.086
25332WAT      O76237   1.979   8.987   4.404
25332WAT     H176238   1.949   9.032   4.489
25332WAT     H276239   1.900   8.947   4.358
25333WAT      O76240   7.122   2.614   8.423
25333WAT     H176241   7.084   2.678   8.490
25333WAT     H276242   7.181   2.663   8.359
25334WAT      O76243   6.595   0.110   9.332
25334WAT     H176244   6.546   0.024   9.325
25334WAT     H276245   6.540   0.177   9.383
25335WAT      O76246   5.027   7.279   9.868
25335WAT     H176247   4.966   7.355   9.886
25335WAT     H276248   4.994   7.227   9.789
25336WAT      O76249   4.054   0.462   8.948
25336WAT     H176250   4.072   0.429   9.040
25336WAT     H276251   3.958   0.487   8.939
25337WAT      O76252   1.337   0.477   8.171
25337WAT     H176253   1.243   0.497   8.195
25337WAT     H276254   1.398   0.545   8.213
25338WAT      O76255   5.135   7.771   8.961
25338WAT     H176256   5.131   7.790   9.059
25338WAT     H276257   5.043   7.781   8.922
25339WAT      O76258   0.363   3.385   0.162
25339WAT     H176259   0.427   3.316   0.128
25339WAT     H276260   0.305   3.417   0.087
25340WAT      O76261   6.675   2.899   5.748
25340WAT     H176262   6.711   2.852   5.668
25340WAT     H276263   6.684   2.840   5.828
25341WAT      O76264   2.226   6.561   1.555
25341WAT     H176265   2.128   6.577   1.563
25341WAT     H276266   2.243   6.464   1.539
25342WAT      O76267   8.340   1.733   3.007
25342WAT     H176268   8.360   1.678   3.087
25342WAT     H276269   8.259   1.789   3.025
25343WAT      O76270   4.197   5.758   5.629
25343WAT     H176271   4.165   5.748   5.723
25343WAT     H276272   4.291   5.725   5.622
25344WAT      O76273   4.644   4.018   0.722
25344WAT     H176274   4.667   4.031   0.819
25344WAT     H276275   4.559   4.067   0.702
25345WAT      O76276   8.899   6.933   3.186
25345WAT     H176277   8.855   6.889   3.265
25345WAT     H276278   8.942   6.864   3.129
25346WAT      O76279   2.960   9.374   1.966
25346WAT     H176280   2.885   9.427   2.004
25346WAT     H276281   2.924   9.294   1.917
25347WAT      O76282   3.938   7.728   1.180
25347WAT     H176283   3.861   7.758   1.123
25347WAT     H276284   4.019   7.718   1.123
25348WAT      O76285   1.811   8.394   2.933
25348WAT     H176286   1.840   8.458   2.863
25348WAT     H276287   1.856   8.415   3.020
25349WAT      O76288   4.279   5.324   2.277
25349WAT     H176289   4.269   5.233   2.237
25349WAT     H276290   4.235   5.391   2.217
25350WAT      O76291   6.512   0.878   6.029
25350WAT     H176292   6.561   0.887   5.942
25350WAT     H276293   6.579   0.865   6.102
25351WAT      O76294   5.365   4.179   0.616
25351WAT     H176295   5.444   4.207   0.561
25351WAT     H276296   5.390   4.181   0.713
25352WAT      O76297   5.205   2.810   2.448
25352WAT     H176298   5.106   2.800   2.447
25352WAT     H276299   5.245   2.732   2.497
25353WAT      O76300   8.676   8.548   1.260
25353WAT     H176301   8.729   8.464   1.270
25353WAT     H276302   8.738   8.626   1.260
25354WAT      O76303   5.223   4.575   1.570
25354WAT     H176304   5.145   4.514   1.573
25354WAT     H276305   5.205   4.650   1.506
25355WAT      O76306   3.941   8.147   7.609
25355WAT     H176307   3.989   8.155   7.521
25355WAT     H276308   3.943   8.236   7.656
25356WAT      O76309   0.181   7.870   7.374
25356WAT     H176310   0.246   7.918   7.433
25356WAT     H276311   0.106   7.834   7.429
25357WAT      O76312   4.536   8.144   3.960
25357WAT     H176313   4.530   8.044   3.956
25357WAT     H276314   4.562   8.172   4.052
25358WAT      O76315   9.514   6.922   9.747
25358WAT     H176316   9.448   6.996   9.737
25358WAT     H276317   9.606   6.958   9.731
25359WAT      O76318   0.846   8.633   5.379
25359WAT     H176319   0.913   8.655   5.308
25359WAT     H276320   0.852   8.702   5.452
25360WAT      O76321   3.838   5.545   9.890
25360WAT     H176322   3.857   5.485   9.813
25360WAT     H276323   3.812   5.635   9.857
25361WAT      O76324   6.614   2.421   3.129
25361WAT     H176325   6.559   2.469   3.197
25361WAT     H276326   6.554   2.363   3.073
25362WAT      O76327   8.397   0.651   0.388
25362WAT     H176328   8.304   0.653   0.424
25362WAT     H276329   8.439   0.562   0.410
25363WAT      O76330   9.742   4.672   8.487
25363WAT     H176331   9.680   4.734   8.438
25363WAT     H276332   9.821   4.651   8.429
25364WAT      O76333   3.901   8.662   8.365
25364WAT     H176334   3.815   8.704   8.337
25364WAT     H276335   3.917   8.681   8.462
25365WAT      O76336   4.363   1.434   3.118
25365WAT     H176337   4.378   1.457   3.022
25365WAT     H276338   4.419   1.355   3.142
25366WAT      O76339   4.691   6.629   0.738
25366WAT     H176340   4.627   6.559   0.706
25366WAT     H276341   4.740   6.595   0.818
25367WAT      O76342   6.916   3.648   1.512
25367WAT     H176343   6.929   3.734   1.562
25367WAT     H276344   6.969   3.575   1.557
25368WAT      O76345   7.547   8.884   2.010
25368WAT     H176346   7.577   8.975   2.039
25368WAT     H276347   7.619   8.842   1.954
25369WAT      O76348   0.029   3.973   1.035
25369WAT     H176349  -0.054   3.924   1.006
25369WAT     H276350   0.105   3.909   1.041
25370WAT      O76351   0.883   6.901   9.880
25370WAT     H176352   0.968   6.876   9.927
25370WAT     H276353   0.809   6.908   9.947
25371WAT      O76354   0.512   7.401   5.206
25371WAT     H176355   0.414   7.404   5.227
25371WAT     H276356   0.564   7.425   5.288
25372WAT      O76357   5.777   5.550   8.991
25372WAT     H176358   5.816   5.585   9.076
25372WAT     H276359   5.836   5.476   8.956
25373WAT      O76360   2.377   2.317   9.489
25373WAT     H176361   2.390   2.319   9.588
25373WAT     H276362   2.455   2.272   9.446
25374WAT      O76363   7.598   7.870   6.600
25374WAT     H176364   7.526   7.905   6.659
25374WAT     H276365   7.563   7.861   6.507
25375WAT      O76366   3.940   6.138   8.218
25375WAT     H176367   4.020   6.131   8.159
25375WAT     H276368   3.966   6.183   8.304
25376WAT      O76369   2.076   5.851   5.980
25376WAT     H176370   2.152   5.815   5.926
25376WAT     H276371   2.053   5.786   6.053
25377WAT      O76372   3.168   8.222   2.787
25377WAT     H176373   3.203   8.147   2.731
25377WAT     H276374   3.068   8.220   2.786
25378WAT      O76375   3.592   9.318   8.877
25378WAT     H176376   3.590   9.250   8.950
25378WAT     H276377   3.687   9.335   8.849
25379WAT      O76378   1.426   1.158   1.855
25379WAT     H176379   1.497   1.208   1.905
25379WAT     H276380   1.432   1.181   1.758
25380WAT      O76381   8.958   4.622   0.031
25380WAT     H176382   8.955   4.713   0.074
25380WAT     H276383   9.002   4.628  -0.058
25381WAT      O76384   8.947   9.547   8.612
25381WAT     H176385   8.920   9.453   8.588
25381WAT     H276386   8.866   9.606   8.609
25382WAT      O76387   6.300   6.224   4.772
25382WAT     H176388   6.348   6.278   4.704
25382WAT     H276389   6.203   6.249   4.772
25383WAT      O76390   6.127   0.842   2.826
25383WAT     H176391   6.163   0.749   2.835
25383WAT     H276392   6.049   0.854   2.888
25384WAT      O76393   8.595   4.535   3.950
25384WAT     H176394   8.534   4.613   3.962
25384WAT     H276395   8.651   4.549   3.868
25385WAT      O76396   0.227   5.163   4.687
25385WAT     H176397   0.276   5.221   4.751
25385WAT     H276398   0.173   5.221   4.625
25386WAT      O76399   9.165   3.336   2.036
25386WAT     H176400   9.242   3.282   2.069
25386WAT     H276401   9.108   3.364   2.114
25387WAT      O76402   0.565   0.207   8.670
25387WAT     H176403   0.558   0.171   8.763
25387WAT     H276404   0.565   0.131   8.605
25388WAT      O76405   5.043   7.162   8.073
25388WAT     H176406   5.007   7.244   8.030
25388WAT     H276407   5.128   7.185   8.121
25389WAT      O76408   1.785   8.455   0.475
25389WAT     H176409   1.871   8.405   0.470
25389WAT     H276410   1.729   8.433   0.394
25390WAT      O76411   2.581   2.526   4.199
25390WAT     H176412   2.551   2.504   4.292
25390WAT     H276413   2.678   2.502   4.189
25391WAT      O76414   2.385   5.375   8.659
25391WAT     H176415   2.332   5.292   8.676
25391WAT     H276416   2.333   5.437   8.601
25392WAT      O76417   9.367   5.437   5.824
25392WAT     H176418   9.272   5.467   5.825
25392WAT     H276419   9.369   5.337   5.817
25393WAT      O76420   0.085   2.194   8.973
25393WAT     H176421  -0.008   2.197   8.936
25393WAT     H276422   0.099   2.106   9.019
25394WAT      O76423   0.402   7.114   8.158
25394WAT     H176424   0.328   7.152   8.102
25394WAT     H276425   0.363   7.061   8.233
25395WAT      O76426   5.634   3.200   1.749
25395WAT     H176427   5.667   3.284   1.704
25395WAT     H276428   5.711   3.152   1.792
25396WAT      O76429   3.058   8.819   4.431
25396WAT     H176430   3.057   8.851   4.525
25396WAT     H276431   2.966   8.791   4.404
25397WAT      O76432   5.611   6.227   5.637
25397WAT     H176433   5.637   6.258   5.728
25397WAT     H276434   5.583   6.131   5.641
25398WAT      O76435   0.883   7.361   2.716
25398WAT     H176436   0.972   7.352   2.761
25398WAT     H276437   0.823   7.418   2.773
25399WAT      O76438   1.409   6.963   1.722
25399WAT     H176439   1.502   6.939   1.694
25399WAT     H276440   1.343   6.914   1.665
25400WAT      O76441   2.408   9.542   0.974
25400WAT     H176442   2.458   9.615   0.929
25400WAT     H276443   2.436   9.453   0.938
25401WAT      O76444   4.706   1.114   5.493
25401WAT     H176445   4.616   1.156   5.490
25401WAT     H276446   4.751   1.124   5.405
25402WAT      O76447   2.433   3.370   0.257
25402WAT     H176448   2.425   3.395   0.160
25402WAT     H276449   2.527   3.385   0.287
25403WAT      O76450   3.633   7.589   3.900
25403WAT     H176451   3.558   7.525   3.883
25403WAT     H276452   3.616   7.637   3.986
25404WAT      O76453   3.287   4.554   5.682
25404WAT     H176454   3.326   4.625   5.741
25404WAT     H276455   3.266   4.593   5.592
25405WAT      O76456   2.920   2.398   7.179
25405WAT     H176457   2.906   2.299   7.178
25405WAT     H276458   3.013   2.418   7.148
25406WAT      O76459   1.293   0.204   4.619
25406WAT     H176460   1.305   0.105   4.623
25406WAT     H276461   1.213   0.226   4.563
25407WAT      O76462   8.413   4.335   1.033
25407WAT     H176463   8.322   4.301   1.009
25407WAT     H276464   8.466   4.262   1.076
25408WAT      O76465   2.627   6.502   2.407
25408WAT     H176466   2.615   6.518   2.505
25408WAT     H276467   2.723   6.485   2.388
25409WAT      O76468   8.253   4.762   9.814
25409WAT     H176469   8.274   4.853   9.851
25409WAT     H276470   8.249   4.767   9.714
25410WAT      O76471   4.364   1.117   4.665
25410WAT     H176472   4.385   1.091   4.571
25410WAT     H276473   4.388   1.213   4.679
25411WAT      O76474   1.033   6.797   4.462
25411WAT     H176475   1.081   6.799   4.549
25411WAT     H276476   1.057   6.713   4.413
25412WAT      O76477   5.351   8.547   6.882
25412WAT     H176478   5.436   8.592   6.856
25412WAT     H276479   5.365   8.494   6.966
25413WAT      O76480   5.678   5.668   0.098
25413WAT     H176481   5.618   5.681   0.177
25413WAT     H276482   5.773   5.677   0.127
25414WAT      O76483   9.123   2.318   9.726
25414WAT     H176484   9.105   2.227   9.764
25414WAT     H276485   9.126   2.312   9.626
25415WAT      O76486   3.979   2.147   2.346
25415WAT     H176487   3.889   2.185   2.368
25415WAT     H276488   4.047   2.219   2.347
25416WAT      O76489   4.471   1.455   9.890
25416WAT     H176490   4.440   1.521   9.959
25416WAT     H276491   4.534   1.500   9.827
25417WAT      O76492   4.115   8.997   9.069
25417WAT     H176493   4.067   9.064   9.011
25417WAT     H276494   4.073   8.907   9.057
25418WAT      O76495   5.959   7.764   5.893
25418WAT     H176496   5.897   7.831   5.934
25418WAT     H276497   6.047   7.808   5.873
25419WAT      O76498   8.455   1.224   9.288
25419WAT     H176499   8.517   1.290   9.246
25419WAT     H276500   8.508   1.148   9.325
25420WAT      O76501   9.236   0.347   1.316
25420WAT     H176502   9.232   0.357   1.216
25420WAT     H276503   9.265   0.433   1.357
25421WAT      O76504   4.140   5.195   5.036
25421WAT     H176505   4.060   5.250   5.061
25421WAT     H276506   4.114   5.127   4.969
25422WAT      O76507   9.179   3.099   5.666
25422WAT     H176508   9.082   3.100   5.688
25422WAT     H276509   9.218   3.009   5.688
25423WAT      O76510   1.461   8.502   7.732
25423WAT     H176511   1.470   8.600   7.744
25423WAT     H276512   1.438   8.482   7.636
25424WAT      O76513   9.186   8.765   3.877
25424WAT     H176514   9.258   8.734   3.939
25424WAT     H276515   9.218   8.756   3.782
25425WAT      O76516   2.017   3.908   1.610
25425WAT     H176517   2.064   3.826   1.578
25425WAT     H276518   1.980   3.957   1.531
25426WAT      O76519   9.702   4.030   7.468
25426WAT     H176520   9.707   4.020   7.369
25426WAT     H276521   9.793   4.017   7.507
25427WAT      O76522   5.183   6.912   8.207
25427WAT     H176523   5.119   6.981   8.240
25427WAT     H276524   5.176   6.903   8.108
25428WAT      O76525   3.599   6.268   0.825
25428WAT     H176526   3.523   6.316   0.781
25428WAT     H276527   3.653   6.221   0.755
25429WAT      O76528   6.502   2.267   9.170
25429WAT     H176529   6.545   2.357   9.164
25429WAT     H276530   6.411   2.277   9.211
25430WAT      O76531   6.409   9.452   3.648
25430WAT     H176532   6.425   9.353   3.645
25430WAT     H276533   6.410   9.483   3.743
25431WAT      O76534   5.550   1.780   0.725
25431WAT     H176535   5.590   1.864   0.762
25431WAT     H276536   5.589   1.701   0.773
25432WAT      O76537   2.847   5.871   2.436
25432WAT     H176538   2.829   5.776   2.461
25432WAT     H276539   2.762   5.915   2.407
25433WAT      O76540   6.640   1.865   4.718
25433WAT     H176541   6.720   1.906   4.674
25433WAT     H276542   6.629   1.771   4.685
25434WAT      O76543   1.663   3.867   1.347
25434WAT     H176544   1.660   3.908   1.256
25434WAT     H276545   1.627   3.932   1.414
25435WAT      O76546   5.463   2.404   2.477
25435WAT     H176547   5.458   2.323   2.536
25435WAT     H276548   5.553   2.447   2.486
25436WAT      O76549   5.279   0.591   3.720
25436WAT     H176550   5.270   0.527   3.796
25436WAT     H276551   5.369   0.582   3.678
25437WAT      O76552   6.156   0.072   8.798
25437WAT     H176553   6.087   0.139   8.769
25437WAT     H276554   6.246   0.101   8.767
25438WAT      O76555   3.769   7.790   0.822
25438WAT     H176556   3.722   7.792   0.910
25438WAT     H276557   3.862   7.825   0.833
25439WAT      O76558   7.791   8.023   4.404
25439WAT     H176559   7.885   8.048   4.380
25439WAT     H276560   7.788   7.926   4.427
25440WAT      O76561   5.646   7.782   7.325
25440WAT     H176562   5.583   7.704   7.318
25440WAT     H276563   5.697   7.776   7.411
25441WAT      O76564   0.332   8.836   1.334
25441WAT     H176565   0.410   8.777   1.313
25441WAT     H276566   0.251   8.779   1.347
25442WAT      O76567   7.439   2.667   3.849
25442WAT     H176568   7.451   2.581   3.800
25442WAT     H276569   7.362   2.717   3.809
25443WAT      O76570   0.036   5.171   0.659
25443WAT     H176571  -0.020   5.206   0.733
25443WAT     H276572   0.041   5.238   0.585
25444WAT      O76573   0.940   3.292   9.364
25444WAT     H176574   0.994   3.208   9.353
25444WAT     H276575   0.846   3.267   9.386
25445WAT      O76576   2.774   8.700   6.557
25445WAT     H176577   2.783   8.607   6.522
25445WAT     H276578   2.865   8.736   6.580
25446WAT      O76579   6.285   1.207   9.172
25446WAT     H176580   6.204   1.256   9.140
25446WAT     H276581   6.273   1.109   9.155
25447WAT      O76582   1.743   5.196   0.582
25447WAT     H176583   1.710   5.104   0.562
25447WAT     H276584   1.667   5.261   0.579
25448WAT      O76585   7.232   2.251   8.846
25448WAT     H176586   7.330   2.236   8.857
25448WAT     H276587   7.216   2.338   8.801
25449WAT      O76588   9.772   9.839   2.397
25449WAT     H176589   9.753   9.929   2.436
25449WAT     H276590   9.690   9.804   2.351
25450WAT      O76591   0.214   6.133   8.043
25450WAT     H176592   0.211   6.213   8.103
25450WAT     H276593   0.213   6.049   8.099
25451WAT      O76594   9.173   4.990   7.711
25451WAT     H176595   9.257   5.027   7.674
25451WAT     H276596   9.192   4.902   7.755
25452WAT      O76597   3.445   7.535   5.858
25452WAT     H176598   3.400   7.624   5.858
25452WAT     H276599   3.497   7.523   5.943
25453WAT      O76600   1.748   8.967   5.996
25453WAT     H176601   1.811   8.956   5.919
25453WAT     H276602   1.713   9.061   5.998
25454WAT      O76603   7.751   8.313   0.993
25454WAT     H176604   7.738   8.392   0.933
25454WAT     H276605   7.762   8.231   0.937
25455WAT      O76606   0.836   4.586   1.878
25455WAT     H176607   0.761   4.521   1.868
25455WAT     H276608   0.836   4.623   1.970
25456WAT      O76609   4.697   1.577   5.216
25456WAT     H176610   4.652   1.606   5.301
25456WAT     H276611   4.766   1.508   5.238
25457WAT      O76612   3.102   5.420   0.449
25457WAT     H176613   3.013   5.403   0.492
25457WAT     H276614   3.175   5.397   0.513
25458WAT      O76615   5.787   7.822   3.912
25458WAT     H176616   5.882   7.849   3.925
25458WAT     H276617   5.735   7.899   3.874
25459WAT      O76618   8.905   5.907   7.733
25459WAT     H176619   8.894   5.986   7.673
25459WAT     H276620   8.854   5.922   7.818
25460WAT      O76621   6.996   6.068   8.894
25460WAT     H176622   7.022   6.133   8.966
25460WAT     H276623   6.941   6.114   8.825
25461WAT      O76624   8.070   0.159   0.568
25461WAT     H176625   8.093   0.113   0.654
25461WAT     H276626   8.151   0.206   0.533
25462WAT      O76627   2.270   3.720   0.035
25462WAT     H176628   2.189   3.691   0.086
25462WAT     H276629   2.317   3.640  -0.002
25463WAT      O76630   0.100   6.881   5.577
25463WAT     H176631   0.153   6.826   5.513
25463WAT     H276632   0.023   6.828   5.612
25464WAT      O76633   7.843   1.357   4.429
25464WAT     H176634   7.774   1.285   4.428
25464WAT     H276635   7.883   1.366   4.338
25465WAT      O76636   6.902   2.579   1.606
25465WAT     H176637   6.972   2.531   1.554
25465WAT     H276638   6.908   2.677   1.588
25466WAT      O76639   1.040   8.170   8.559
25466WAT     H176640   0.977   8.205   8.489
25466WAT     H276641   1.008   8.080   8.589
25467WAT      O76642   6.618   7.466   7.707
25467WAT     H176643   6.642   7.563   7.706
25467WAT     H276644   6.638   7.425   7.618
25468WAT      O76645   8.082   8.641   8.140
25468WAT     H176646   8.174   8.608   8.119
25468WAT     H276647   8.047   8.694   8.063
25469WAT      O76648   8.325   6.519   7.519
25469WAT     H176649   8.380   6.501   7.437
25469WAT     H276650   8.276   6.605   7.508
25470WAT      O76651   6.273   0.594   0.336
25470WAT     H176652   6.195   0.647   0.370
25470WAT     H276653   6.288   0.616   0.239
25471WAT      O76654   4.230   7.244   7.992
25471WAT     H176655   4.212   7.321   7.930
25471WAT     H276656   4.304   7.188   7.955
25472WAT      O76657   9.618   0.970   6.065
25472WAT     H176658   9.681   0.978   6.141
25472WAT     H276659   9.558   0.891   6.079
25473WAT      O76660   2.163   3.201   8.458
25473WAT     H176661   2.210   3.173   8.375
25473WAT     H276662   2.228   3.244   8.521
25474WAT      O76663   8.238   4.875   2.566
25474WAT     H176664   8.333   4.868   2.595
25474WAT     H276665   8.228   4.953   2.504
25475WAT      O76666   3.067   1.018   5.276
25475WAT     H176667   3.128   0.940   5.292
25475WAT     H276668   2.975   0.996   5.306
25476WAT      O76669   1.977   8.570   1.317
25476WAT     H176670   2.041   8.494   1.330
25476WAT     H276671   1.986   8.605   1.223
25477WAT      O76672   4.577   1.195   1.119
25477WAT     H176673   4.571   1.138   1.037
25477WAT     H276674   4.668   1.188   1.158
25478WAT      O76675   4.707   5.508   0.728
25478WAT     H176676   4.791   5.458   0.706
25478WAT     H276677   4.638   5.446   0.764
25479WAT      O76678   7.631   7.207   0.106
25479WAT     H176679   7.625   7.285   0.043
25479WAT     H276680   7.720   7.206   0.150
25480WAT      O76681   0.693   2.130   7.822
25480WAT     H176682   0.759   2.178   7.765
25480WAT     H276683   0.605   2.178   7.819
25481WAT      O76684   0.469   3.759   7.547
25481WAT     H176685   0.532   3.818   7.597
25481WAT     H276686   0.519   3.711   7.475
25482WAT      O76687   5.246   6.534   6.766
25482WAT     H176688   5.221   6.451   6.717
25482WAT     H276689   5.307   6.590   6.710
25483WAT      O76690   2.096   1.311   3.881
25483WAT     H176691   2.089   1.391   3.942
25483WAT     H276692   2.076   1.339   3.787
25484WAT      O76693   9.262   2.279   8.428
25484WAT     H176694   9.293   2.295   8.334
25484WAT     H276695   9.280   2.184   8.454
25485WAT      O76696   9.266   1.595   6.139
25485WAT     H176697   9.224   1.507   6.113
25485WAT     H276698   9.222   1.630   6.221
25486WAT      O76699   8.933   9.609   0.012
25486WAT     H176700   8.928   9.653  -0.077
25486WAT     H276701   9.019   9.636   0.057
25487WAT      O76702   4.579   3.077   3.731
25487WAT     H176703   4.658   3.104   3.676
25487WAT     H276704   4.597   3.098   3.827
25488WAT      O76705   4.143   0.877   4.021
25488WAT     H176706   4.107   0.916   4.105
25488WAT     H276707   4.067   0.846   3.963
25489WAT      O76708   7.600   2.602   5.008
25489WAT     H176709   7.508   2.638   5.021
25489WAT     H276710   7.595   2.504   4.986
25490WAT      O76711   7.844   1.399   8.623
25490WAT     H176712   7.834   1.382   8.721
25490WAT     H276713   7.810   1.320   8.572
25491WAT      O76714   4.007   5.929   6.669
25491WAT     H176715   3.966   6.005   6.720
25491WAT     H276716   3.945   5.851   6.669
25492WAT      O76717   6.283   2.563   6.821
25492WAT     H176718   6.282   2.487   6.756
25492WAT     H276719   6.201   2.559   6.878
25493WAT      O76720   1.075   2.908   4.037
25493WAT     H176721   1.112   2.998   4.059
25493WAT     H276722   1.141   2.837   4.064
25494WAT      O76723   2.825   1.732   5.141
25494WAT     H176724   2.789   1.787   5.216
25494WAT     H276725   2.781   1.642   5.140
25495WAT      O76726   0.541   3.690   0.774
25495WAT     H176727   0.443   3.687   0.792
25495WAT     H276728   0.565   3.621   0.705
25496WAT      O76729   3.469   2.392   1.517
25496WAT     H176730   3.483   2.482   1.557
25496WAT     H276731   3.557   2.349   1.499
25497WAT      O76732   0.808   6.004   3.102
25497WAT     H176733   0.740   5.947   3.150
25497WAT     H276734   0.876   5.945   3.060
25498WAT      O76735   3.247   8.437   7.140
25498WAT     H176736   3.278   8.527   7.110
25498WAT     H276737   3.303   8.406   7.217
25499WAT      O76738   8.838   7.402   0.120
25499WAT     H176739   8.750   7.408   0.073
25499WAT     H276740   8.895   7.334   0.075
25500WAT      O76741   4.129   9.012   1.023
25500WAT     H176742   4.094   8.947   0.955
25500WAT     H276743   4.090   9.102   1.005
25501WAT      O76744   6.485   5.845   5.716
25501WAT     H176745   6.534   5.927   5.744
25501WAT     H276746   6.484   5.838   5.616
25502WAT      O76747   2.534   8.107   2.010
25502WAT     H176748   2.491   8.019   2.028
25502WAT     H276749   2.487   8.179   2.061
25503WAT      O76750   4.816   2.795   8.406
25503WAT     H176751   4.832   2.798   8.505
25503WAT     H276752   4.719   2.807   8.388
25504WAT      O76753   4.527   0.904   0.387
25504WAT     H176754   4.444   0.870   0.431
25504WAT     H276755   4.506   0.930   0.292
25505WAT      O76756   4.455   3.294   3.136
25505WAT     H176757   4.532   3.291   3.072
25505WAT     H276758   4.407   3.207   3.136
25506WAT      O76759   6.488   7.290   2.389
25506WAT     H176760   6.539   7.293   2.475
25506WAT     H276761   6.458   7.196   2.371
25507WAT      O76762   1.737   8.397   1.560
25507WAT     H176763   1.760   8.424   1.467
25507WAT     H276764   1.745   8.477   1.621
25508WAT      O76765   8.055   5.861   6.276
25508WAT     H176766   8.141   5.905   6.303
25508WAT     H276767   8.041   5.780   6.333
25509WAT      O76768   0.223   9.770   2.076
25509WAT     H176769   0.320   9.786   2.059
25509WAT     H276770   0.199   9.803   2.167
25510WAT      O76771   9.145   1.576   1.007
25510WAT     H176772   9.236   1.567   1.048
25510WAT     H276773   9.099   1.487   1.010
25511WAT      O76774   6.677   7.921   4.224
25511WAT     H176775   6.662   8.018   4.245
25511WAT     H276776   6.720   7.913   4.134
25512WAT      O76777   1.880   9.492   1.116
25512WAT     H176778   1.936   9.413   1.091
25512WAT     H276779   1.800   9.461   1.167
25513WAT      O76780   1.547   6.669   0.084
25513WAT     H176781   1.595   6.702   0.165
25513WAT     H276782   1.570   6.726   0.005
25514WAT      O76783   4.411   8.625   2.139
25514WAT     H176784   4.490   8.657   2.087
25514WAT     H276785   4.429   8.532   2.171
25515WAT      O76786   1.424   7.697   6.608
25515WAT     H176787   1.331   7.688   6.572
25515WAT     H276788   1.421   7.749   6.694
25516WAT      O76789   7.452   6.868   1.699
25516WAT     H176790   7.402   6.881   1.613
25516WAT     H276791   7.483   6.773   1.705
25517WAT      O76792   3.338   9.529   7.742
25517WAT     H176793   3.313   9.512   7.837
25517WAT     H276794   3.267   9.583   7.698
25518WAT      O76795   0.615   8.490   8.153
25518WAT     H176796   0.628   8.540   8.239
25518WAT     H276797   0.569   8.549   8.087
25519WAT      O76798   1.246   4.033   5.048
25519WAT     H176799   1.236   4.127   5.015
25519WAT     H276800   1.341   4.005   5.040
25520WAT      O76801   7.775   4.974   8.973
25520WAT     H176802   7.804   5.065   9.002
25520WAT     H276803   7.751   4.919   9.053
25521WAT      O76804   9.627   5.370   9.070
25521WAT     H176805   9.708   5.321   9.038
25521WAT     H276806   9.595   5.433   8.999
25522WAT      O76807   0.182   6.064   5.304
25522WAT     H176808   0.129   6.125   5.362
25522WAT     H276809   0.121   6.006   5.250
25523WAT      O76810   3.954   0.451   4.456
25523WAT     H176811   3.988   0.357   4.463
25523WAT     H276812   3.949   0.492   4.548
25524WAT      O76813   9.544   9.763   2.273
25524WAT     H176814   9.506   9.723   2.189
25524WAT     H276815   9.488   9.735   2.351
25525WAT      O76816   0.483   5.787   6.331
25525WAT     H176817   0.504   5.732   6.250
25525WAT     H276818   0.509   5.882   6.313
25526WAT      O76819   0.691   5.375   6.380
25526WAT     H176820   0.782   5.346   6.352
25526WAT     H276821   0.682   5.367   6.479
25527WAT      O76822   2.008   6.206   0.859
25527WAT     H176823   2.026   6.147   0.938
25527WAT     H276824   1.969   6.292   0.891
25528WAT      O76825   7.201   5.658   3.142
25528WAT     H176826   7.172   5.728   3.207
25528WAT     H276827   7.133   5.585   3.138
25529WAT      O76828   6.671   4.355   5.921
25529WAT     H176829   6.649   4.425   5.989
25529WAT     H276830   6.767   4.365   5.892
25530WAT      O76831   7.496   6.232   2.946
25530WAT     H176832   7.432   6.297   2.904
25530WAT     H276833   7.465   6.209   3.038
25531WAT      O76834   3.088   1.519   7.007
25531WAT     H176835   3.069   1.474   7.094
25531WAT     H276836   3.061   1.460   6.931
25532WAT      O76837   9.086   6.317   3.497
25532WAT     H176838   9.006   6.312   3.437
25532WAT     H276839   9.057   6.331   3.591
25533WAT      O76840   2.777   4.168   3.986
25533WAT     H176841   2.775   4.259   4.028
25533WAT     H276842   2.716   4.107   4.035
25534WAT      O76843   6.444   7.701   6.328
25534WAT     H176844   6.478   7.716   6.421
25534WAT     H276845   6.468   7.608   6.299
25535WAT      O76846   9.235   6.226   8.693
25535WAT     H176847   9.264   6.140   8.651
25535WAT     H276848   9.315   6.276   8.724
25536WAT      O76849   0.069   9.244   5.418
25536WAT     H176850   0.121   9.271   5.500
25536WAT     H276851   0.042   9.148   5.427
25537WAT      O76852   7.341   8.649   3.989
25537WAT     H176853   7.409   8.721   3.999
25537WAT     H276854   7.311   8.619   4.080
25538WAT      O76855   7.485   9.200   3.513
25538WAT     H176856   7.512   9.237   3.424
25538WAT     H276857   7.389   9.222   3.529
25539WAT      O76858   2.101   9.363   2.959
25539WAT     H176859   2.008   9.387   2.984
25539WAT     H276860   2.154   9.446   2.942
25540WAT      O76861   1.927   2.263   1.957
25540WAT     H176862   1.856   2.200   1.926
25540WAT     H276863   1.885   2.341   2.004
25541WAT      O76864   8.646   3.665   8.813
25541WAT     H176865   8.731   3.672   8.761
25541WAT     H276866   8.633   3.748   8.868
25542WAT      O76867   6.516   1.563   5.237
25542WAT     H176868   6.537   1.609   5.323
25542WAT     H276869   6.590   1.580   5.172
25543WAT      O76870   4.618   7.807   0.789
25543WAT     H176871   4.611   7.870   0.712
25543WAT     H276872   4.678   7.731   0.764
25544WAT      O76873   7.967   7.963   9.330
25544WAT     H176874   8.025   7.935   9.254
25544WAT     H276875   8.023   8.004   9.402
25545WAT      O76876   0.244   1.614   2.933
25545WAT     H176877   0.222   1.668   3.014
25545WAT     H276878   0.178   1.634   2.860
25546WAT      O76879   3.801   6.425   2.880
25546WAT     H176880   3.830   6.353   2.943
25546WAT     H276881   3.880   6.480   2.854
25547WAT      O76882   5.015   6.020   8.152
25547WAT     H176883   5.105   5.981   8.134
25547WAT     H276884   5.018   6.075   8.235
25548WAT      O76885   4.941   2.267   4.003
25548WAT     H176886   4.901   2.301   3.918
25548WAT     H276887   4.905   2.176   4.023
25549WAT      O76888   9.033   2.594   8.492
25549WAT     H176889   9.089   2.629   8.567
25549WAT     H276890   9.004   2.501   8.513
25550WAT      O76891   1.602   4.713   0.713
25550WAT     H176892   1.635   4.731   0.620
25550WAT     H276893   1.503   4.723   0.715
25551WAT      O76894   9.159   5.763   4.869
25551WAT     H176895   9.069   5.793   4.901
25551WAT     H276896   9.209   5.841   4.833
25552WAT      O76897   3.816   0.580   4.051
25552WAT     H176898   3.773   0.494   4.081
25552WAT     H276899   3.757   0.657   4.078
25553WAT      O76900   5.024   8.785   7.709
25553WAT     H176901   4.936   8.761   7.749
25553WAT     H276902   5.022   8.879   7.676
25554WAT      O76903   7.843   4.504   9.347
25554WAT     H176904   7.752   4.486   9.311
25554WAT     H276905   7.863   4.440   9.421
25555WAT      O76906   7.792   1.658   8.039
25555WAT     H176907   7.732   1.697   8.109
25555WAT     H276908   7.785   1.714   7.956
25556WAT      O76909   5.820   7.833   2.781
25556WAT     H176910   5.751   7.783   2.833
25556WAT     H276911   5.782   7.921   2.752
25557WAT      O76912   9.738   3.618   1.264
25557WAT     H176913   9.763   3.695   1.323
25557WAT     H276914   9.643   3.628   1.235
25558WAT      O76915   3.429   3.336   0.214
25558WAT     H176916   3.479   3.378   0.139
25558WAT     H276917   3.350   3.394   0.237
25559WAT      O76918   8.917   1.295   6.252
25559WAT     H176919   8.949   1.309   6.346
25559WAT     H276920   8.822   1.264   6.253
25560WAT      O76921   7.267   2.283   9.508
25560WAT     H176922   7.204   2.218   9.465
25560WAT     H276923   7.267   2.369   9.456
25561WAT      O76924   6.384   1.310   9.401
25561WAT     H176925   6.380   1.275   9.307
25561WAT     H276926   6.470   1.358   9.415
25562WAT      O76927   5.806   5.796   9.539
25562WAT     H176928   5.762   5.882   9.566
25562WAT     H276929   5.782   5.775   9.444
25563WAT      O76930   4.886   3.529   1.850
25563WAT     H176931   4.980   3.552   1.874
25563WAT     H276932   4.835   3.504   1.932
25564WAT      O76933   0.711   6.461   7.616
25564WAT     H176934   0.730   6.451   7.714
25564WAT     H276935   0.674   6.552   7.598
25565WAT      O76936   7.841   8.153   9.743
25565WAT     H176937   7.784   8.072   9.757
25565WAT     H276938   7.841   8.176   9.645
25566WAT      O76939   1.266   9.688   4.843
25566WAT     H176940   1.289   9.592   4.861
25566WAT     H276941   1.226   9.728   4.926
25567WAT      O76942   1.577   7.710   4.496
25567WAT     H176943   1.585   7.670   4.404
25567WAT     H276944   1.494   7.766   4.500
25568WAT      O76945   2.334   2.871   7.468
25568WAT     H176946   2.370   2.778   7.466
25568WAT     H276947   2.409   2.936   7.458
25569WAT      O76948   5.798   9.060   5.859
25569WAT     H176949   5.844   9.146   5.877
25569WAT     H276950   5.702   9.077   5.839
25570WAT      O76951   5.631   8.731   8.191
25570WAT     H176952   5.643   8.778   8.104
25570WAT     H276953   5.699   8.658   8.200
25571WAT      O76954   1.599   0.635   7.227
25571WAT     H176955   1.574   0.732   7.229
25571WAT     H276956   1.659   0.618   7.148
25572WAT      O76957   6.358   9.248   7.386
25572WAT     H176958   6.273   9.288   7.420
25572WAT     H276959   6.431   9.265   7.452
25573WAT      O76960   9.184   8.346   8.277
25573WAT     H176961   9.274   8.375   8.308
25573WAT     H276962   9.172   8.372   8.181
25574WAT      O76963   4.224   6.922   8.556
25574WAT     H176964   4.279   6.936   8.638
25574WAT     H276965   4.270   6.857   8.495
25575WAT      O76966   6.733   3.149   1.455
25575WAT     H176967   6.756   3.071   1.397
25575WAT     H276968   6.804   3.218   1.448
25576WAT      O76969   2.713   8.036   8.376
25576WAT     H176970   2.756   8.026   8.287
25576WAT     H276971   2.779   8.017   8.449
25577WAT      O76972   2.708   0.850   3.365
25577WAT     H176973   2.737   0.793   3.442
25577WAT     H276974   2.783   0.860   3.300
25578WAT      O76975   9.313   0.039   7.604
25578WAT     H176976   9.366   0.121   7.581
25578WAT     H276977   9.351  -0.040   7.555
25579WAT      O76978   2.249   5.853   3.552
25579WAT     H176979   2.241   5.952   3.548
25579WAT     H276980   2.325   5.827   3.611
25580WAT      O76981   6.585   4.209   9.508
25580WAT     H176982   6.586   4.175   9.414
25580WAT     H276983   6.559   4.136   9.570
25581WAT      O76984   4.527   5.121   8.467
25581WAT     H176985   4.604   5.057   8.463
25581WAT     H276986   4.470   5.100   8.546
25582WAT      O76987   7.760   4.993   8.044
25582WAT     H176988   7.761   4.906   7.994
25582WAT     H276989   7.819   5.059   7.997
25583WAT      O76990   0.706   3.853   7.228
25583WAT     H176991   0.739   3.857   7.134
25583WAT     H276992   0.682   3.758   7.251
25584WAT      O76993   1.878   9.062   8.482
25584WAT     H176994   1.966   9.034   8.443
25584WAT     H276995   1.893   9.097   8.574
25585WAT      O76996   2.968   0.448   2.304
25585WAT     H176997   3.066   0.465   2.307
25585WAT     H276998   2.924   0.516   2.244
25586WAT      O76999   7.439   7.985   3.400
25586WAT     H177000   7.473   7.909   3.454
25586WAT     H277001   7.354   7.957   3.354
25587WAT      O77002   1.814   3.969   5.965
25587WAT     H177003   1.883   3.931   6.027
25587WAT     H277004   1.752   3.896   5.936
25588WAT      O77005   8.260   2.453   5.992
25588WAT     H177006   8.283   2.545   6.022
25588WAT     H277007   8.296   2.386   6.057
25589WAT      O77008   4.867   3.155   2.520
25589WAT     H177009   4.905   3.247   2.515
25589WAT     H277010   4.839   3.136   2.614
25590WAT      O77011   4.043   0.545   6.326
25590WAT     H177012   3.952   0.528   6.290
25590WAT     H277013   4.109   0.486   6.279
25591WAT      O77014   5.042   2.312   8.071
25591WAT     H177015   4.948   2.283   8.090
25591WAT     H277016   5.061   2.397   8.119
25592WAT      O77017   4.955   6.014   3.228
25592WAT     H177018   5.047   6.005   3.267
25592WAT     H277019   4.935   5.933   3.173
25593WAT      O77020   8.803   1.195   2.980
25593WAT     H177021   8.727   1.182   3.043
25593WAT     H277022   8.875   1.248   3.024
25594WAT      O77023   1.951   8.072   3.590
25594WAT     H177024   1.928   7.986   3.634
25594WAT     H277025   2.048   8.092   3.604
25595WAT      O77026   4.184   9.626   5.282
25595WAT     H177027   4.283   9.642   5.292
25595WAT     H277028   4.139   9.711   5.257
25596WAT      O77029   4.344   0.942   1.044
25596WAT     H177030   4.431   0.954   0.996
25596WAT     H277031   4.271   0.989   0.994
25597WAT      O77032   1.113   7.330   2.852
25597WAT     H177033   1.169   7.265   2.801
25597WAT     H277034   1.123   7.312   2.950
25598WAT      O77035   7.482   0.277   2.008
25598WAT     H177036   7.460   0.205   1.943
25598WAT     H277037   7.469   0.366   1.965
25599WAT      O77038   5.960   0.241   7.638
25599WAT     H177039   5.998   0.326   7.600
25599WAT     H277040   5.930   0.182   7.564
25600WAT      O77041   5.191   0.288   6.556
25600WAT     H177042   5.129   0.279   6.478
25600WAT     H277043   5.177   0.376   6.600
25601WAT      O77044   9.777   5.492   3.656
25601WAT     H177045   9.760   5.477   3.559
25601WAT     H277046   9.691   5.504   3.704
25602WAT      O77047   2.214   6.352   7.930
25602WAT     H177048   2.269   6.435   7.932
25602WAT     H277049   2.275   6.272   7.927
25603WAT      O77050   5.195   3.195   5.671
25603WAT     H177051   5.106   3.171   5.635
25603WAT     H277052   5.256   3.116   5.666
25604WAT      O77053   0.139   6.751   2.491
25604WAT     H177054   0.069   6.822   2.491
25604WAT     H277055   0.228   6.792   2.511
25605WAT      O77056   3.033   4.651   2.827
25605WAT     H177057   2.938   4.680   2.813
25605WAT     H277058   3.047   4.562   2.783
25606WAT      O77059   7.045   4.300   1.773
25606WAT     H177060   7.110   4.374   1.791
25606WAT     H277061   7.006   4.269   1.860
25607WAT      O77062   3.706   5.714   2.184
25607WAT     H177063   3.649   5.666   2.118
25607WAT     H277064   3.783   5.757   2.136
25608WAT      O77065   3.315   9.489   2.643
25608WAT     H177066   3.268   9.455   2.724
25608WAT     H277067   3.274   9.450   2.561
25609WAT      O77068   5.701   1.177   7.740
25609WAT     H177069   5.633   1.248   7.721
25609WAT     H277070   5.786   1.199   7.692
25610WAT      O77071   5.963   2.987   3.404
25610WAT     H177072   5.969   2.936   3.490
25610WAT     H277073   6.014   2.938   3.333
25611WAT      O77074   4.895   3.055   8.472
25611WAT     H177075   4.850   2.982   8.421
25611WAT     H277076   4.837   3.137   8.472
25612WAT      O77077   7.887   6.834   7.728
25612WAT     H177078   7.791   6.832   7.700
25612WAT     H277079   7.927   6.743   7.717
25613WAT      O77080   0.700   2.388   5.012
25613WAT     H177081   0.634   2.356   4.945
25613WAT     H277082   0.751   2.309   5.049
25614WAT      O77083   0.200   6.066   0.830
25614WAT     H177084   0.222   6.158   0.797
25614WAT     H277085   0.248   5.998   0.774
25615WAT      O77086   1.218   3.218   7.761
25615WAT     H177087   1.196   3.166   7.679
25615WAT     H277088   1.266   3.302   7.735
25616WAT      O77089   2.943   3.908   7.021
25616WAT     H177090   2.998   3.868   6.948
25616WAT     H277091   2.850   3.923   6.989
25617WAT      O77092   9.541   9.579   6.158
25617WAT     H177093   9.487   9.514   6.105
25617WAT     H277094   9.497   9.595   6.247
25618WAT      O77095   7.936   8.667   7.713
25618WAT     H177096   7.964   8.731   7.642
25618WAT     H277097   7.938   8.574   7.676
25619WAT      O77098   2.287   9.386   0.651
25619WAT     H177099   2.367   9.403   0.594
25619WAT     H277100   2.313   9.332   0.731
25620WAT      O77101   2.008   2.651   9.825
25620WAT     H177102   1.955   2.725   9.867
25620WAT     H277103   2.076   2.689   9.762
25621WAT      O77104   5.396   5.294   3.391
25621WAT     H177105   5.313   5.297   3.337
25621WAT     H277106   5.407   5.202   3.429
25622WAT      O77107   9.251   6.013   4.801
25622WAT     H177108   9.160   6.056   4.804
25622WAT     H277109   9.303   6.041   4.882
25623WAT      O77110   4.882   8.199   9.289
25623WAT     H177111   4.869   8.107   9.326
25623WAT     H277112   4.913   8.193   9.195
25624WAT      O77113   4.075   7.191   7.461
25624WAT     H177114   4.167   7.156   7.480
25624WAT     H277115   4.052   7.261   7.528
25625WAT      O77116   9.661   1.392   6.427
25625WAT     H177117   9.589   1.453   6.396
25625WAT     H277118   9.716   1.362   6.349
25626WAT      O77119   2.362   3.195   8.873
25626WAT     H177120   2.271   3.215   8.910
25626WAT     H277121   2.430   3.199   8.946
25627WAT      O77122   4.496   2.835   6.058
25627WAT     H177123   4.473   2.903   5.988
25627WAT     H277124   4.593   2.811   6.051
25628WAT      O77125   9.635   8.527   1.724
25628WAT     H177126   9.654   8.536   1.627
25628WAT     H277127   9.536   8.513   1.738
25629WAT      O77128   8.631   9.481   3.866
25629WAT     H177129   8.571   9.492   3.945
25629WAT     H277130   8.625   9.387   3.832
25630WAT      O77131   5.577   0.573   1.570
25630WAT     H177132   5.490   0.551   1.526
25630WAT     H277133   5.608   0.663   1.542
25631WAT      O77134   3.042   8.290   0.453
25631WAT     H177135   2.983   8.223   0.408
25631WAT     H277136   3.031   8.283   0.552
25632WAT      O77137   7.595   0.727   7.897
25632WAT     H177138   7.509   0.716   7.947
25632WAT     H277139   7.594   0.668   7.816
25633WAT      O77140   6.195   5.158   8.179
25633WAT     H177141   6.140   5.241   8.176
25633WAT     H277142   6.258   5.156   8.101
25634WAT      O77143   4.796   2.785   7.231
25634WAT     H177144   4.769   2.874   7.195
25634WAT     H277145   4.811   2.793   7.330
25635WAT      O77146   1.024   1.732   1.795
25635WAT     H177147   0.984   1.693   1.712
25635WAT     H277148   1.019   1.666   1.869
25636WAT      O77149   6.922   6.008   1.498
25636WAT     H177150   7.009   6.019   1.547
25636WAT     H277151   6.879   5.922   1.524
25637WAT      O77152   8.022   2.596   0.799
25637WAT     H177153   8.011   2.617   0.896
25637WAT     H277154   8.107   2.637   0.766
25638WAT      O77155   6.921   3.154   6.992
25638WAT     H177156   6.906   3.242   6.947
25638WAT     H277157   6.833   3.118   7.024
25639WAT      O77158   8.568   7.288   8.004
25639WAT     H177159   8.541   7.330   8.090
25639WAT     H277160   8.530   7.196   7.999
25640WAT      O77161   6.016   3.460   3.820
25640WAT     H177162   5.929   3.504   3.798
25640WAT     H277163   6.006   3.361   3.812
25641WAT      O77164   0.166   0.158   1.911
25641WAT     H177165   0.202   0.084   1.967
25641WAT     H277166   0.072   0.178   1.938
25642WAT      O77167   3.312   3.203   1.289
25642WAT     H177168   3.391   3.212   1.349
25642WAT     H277169   3.311   3.112   1.247
25643WAT      O77170   7.404   0.362   9.183
25643WAT     H177171   7.307   0.339   9.169
25643WAT     H277172   7.428   0.344   9.278
25644WAT      O77173   8.952   1.284   3.766
25644WAT     H177174   8.875   1.290   3.703
25644WAT     H277175   8.924   1.234   3.848
25645WAT      O77176   4.520   8.725   6.742
25645WAT     H177177   4.538   8.754   6.836
25645WAT     H277178   4.584   8.772   6.680
25646WAT      O77179   8.024   5.267   3.874
25646WAT     H177180   7.938   5.221   3.897
25646WAT     H277181   8.073   5.213   3.806
25647WAT      O77182   4.796   7.485   3.280
25647WAT     H177183   4.826   7.519   3.191
25647WAT     H277184   4.715   7.428   3.268
25648WAT      O77185   4.201   5.670   5.206
25648WAT     H177186   4.274   5.708   5.263
25648WAT     H277187   4.238   5.598   5.147
25649WAT      O77188   8.258   9.831   8.208
25649WAT     H177189   8.227   9.920   8.242
25649WAT     H277190   8.264   9.833   8.108
25650WAT      O77191   1.661   7.340   2.343
25650WAT     H177192   1.636   7.337   2.246
25650WAT     H277193   1.579   7.328   2.399
25651WAT      O77194   4.656   1.340   3.239
25651WAT     H177195   4.642   1.306   3.332
25651WAT     H277196   4.683   1.436   3.243
25652WAT      O77197   1.969   2.418   2.839
25652WAT     H177198   1.958   2.442   2.935
25652WAT     H277199   1.909   2.474   2.782
25653WAT      O77200   4.755   8.173   4.494
25653WAT     H177201   4.853   8.191   4.485
25653WAT     H277202   4.742   8.092   4.551
25654WAT      O77203   1.583   6.304   1.848
25654WAT     H177204   1.517   6.246   1.897
25654WAT     H277205   1.533   6.371   1.793
25655WAT      O77206   9.355   1.558   9.209
25655WAT     H177207   9.306   1.532   9.292
25655WAT     H277208   9.409   1.640   9.227
25656WAT      O77209   8.537   1.485   0.335
25656WAT     H177210   8.498   1.569   0.371
25656WAT     H277211   8.504   1.407   0.388
25657WAT      O77212   8.136   7.778   7.411
25657WAT     H177213   8.188   7.863   7.417
25657WAT     H277214   8.048   7.789   7.458
25658WAT      O77215   9.227   6.985   9.068
25658WAT     H177216   9.145   6.927   9.073
25658WAT     H277217   9.298   6.938   9.015
25659WAT      O77218   4.984   0.579   4.029
25659WAT     H177219   4.891   0.610   4.011
25659WAT     H277220   5.005   0.501   3.970
25660WAT      O77221   3.582   0.364   1.255
25660WAT     H177222   3.524   0.432   1.209
25660WAT     H277223   3.596   0.286   1.194
25661WAT      O77224   2.319   6.174   5.451
25661WAT     H177225   2.230   6.175   5.498
25661WAT     H277226   2.333   6.085   5.409
25662WAT      O77227   3.982   4.491   5.547
25662WAT     H177228   3.964   4.582   5.509
25662WAT     H277229   3.896   4.450   5.576
25663WAT      O77230   7.620   9.696   7.775
25663WAT     H177231   7.525   9.701   7.744
25663WAT     H277232   7.623   9.707   7.874
25664WAT      O77233   3.490   8.792   1.217
25664WAT     H177234   3.421   8.729   1.252
25664WAT     H277235   3.563   8.741   1.171
25665WAT      O77236   4.527   1.688   4.024
25665WAT     H177237   4.468   1.689   4.106
25665WAT     H277238   4.487   1.629   3.955
25666WAT      O77239   3.195   4.220   2.422
25666WAT     H177240   3.119   4.157   2.436
25666WAT     H277241   3.167   4.312   2.448
25667WAT      O77242   4.664   0.641   2.329
25667WAT     H177243   4.624   0.698   2.402
25667WAT     H277244   4.756   0.675   2.307
25668WAT      O77245   4.948   8.050   8.425
25668WAT     H177246   4.969   8.027   8.520
25668WAT     H277247   4.973   7.973   8.366
25669WAT      O77248   5.333   7.708   6.468
25669WAT     H177249   5.323   7.651   6.549
25669WAT     H277250   5.331   7.805   6.495
25670WAT      O77251   2.904   4.881   2.439
25670WAT     H177252   2.947   4.810   2.383
25670WAT     H277253   2.970   4.916   2.506
25671WAT      O77254   4.326   5.561   2.619
25671WAT     H177255   4.271   5.488   2.578
25671WAT     H277256   4.299   5.649   2.581
25672WAT      O77257   3.440   7.718   5.516
25672WAT     H177258   3.410   7.814   5.519
25672WAT     H277259   3.532   7.711   5.553
25673WAT      O77260   9.759   4.767   8.722
25673WAT     H177261   9.717   4.716   8.647
25673WAT     H277262   9.821   4.836   8.684
25674WAT      O77263   5.298   9.556   3.506
25674WAT     H177264   5.355   9.482   3.472
25674WAT     H277265   5.252   9.601   3.430
25675WAT      O77266   8.078   2.136   7.117
25675WAT     H177267   8.041   2.225   7.141
25675WAT     H277268   8.055   2.115   7.021
25676WAT      O77269   6.922   1.239   6.273
25676WAT     H177270   6.860   1.182   6.218
25676WAT     H277271   6.902   1.226   6.370
25677WAT      O77272   7.545   1.138   3.323
25677WAT     H177273   7.546   1.121   3.422
25677WAT     H277274   7.630   1.103   3.283
25678WAT      O77275   3.345   0.565   4.347
25678WAT     H177276   3.358   0.476   4.303
25678WAT     H277277   3.249   0.575   4.373
25679WAT      O77278   8.788   2.215   0.953
25679WAT     H177279   8.733   2.267   1.018
25679WAT     H277280   8.765   2.244   0.860
25680WAT      O77281   8.879   0.082   2.165
25680WAT     H177282   8.820   0.144   2.217
25680WAT     H277283   8.822   0.024   2.106
25681WAT      O77284   2.650   5.201   2.795
25681WAT     H177285   2.553   5.202   2.819
25681WAT     H277286   2.681   5.106   2.785
25682WAT      O77287   6.176   4.332   2.066
25682WAT     H177288   6.275   4.344   2.067
25682WAT     H277289   6.137   4.385   1.990
25683WAT      O77290   9.421   7.324   9.141
25683WAT     H177291   9.348   7.366   9.088
25683WAT     H277292   9.491   7.287   9.079
25684WAT      O77293   3.889   3.510   7.242
25684WAT     H177294   3.947   3.493   7.163
25684WAT     H277295   3.885   3.609   7.259
25685WAT      O77296   9.755   5.423   6.187
25685WAT     H177297   9.749   5.492   6.115
25685WAT     H277298   9.828   5.448   6.251
25686WAT      O77299   3.872   1.243   2.533
25686WAT     H177300   3.926   1.164   2.506
25686WAT     H277301   3.882   1.315   2.464
25687WAT      O77302   2.787   4.174   6.833
25687WAT     H177303   2.867   4.128   6.796
25687WAT     H277304   2.810   4.268   6.857
25688WAT      O77305   5.528   6.318   9.874
25688WAT     H177306   5.488   6.321   9.966
25688WAT     H277307   5.460   6.346   9.807
25689WAT      O77308   6.280   8.565   8.738
25689WAT     H177309   6.279   8.664   8.730
25689WAT     H277310   6.346   8.526   8.674
25690WAT      O77311   8.456   5.433   5.642
25690WAT     H177312   8.422   5.506   5.702
25690WAT     H277313   8.399   5.352   5.652
25691WAT      O77314   0.014   6.573   4.778
25691WAT     H177315  -0.071   6.579   4.726
25691WAT     H277316   0.061   6.487   4.756
25692WAT      O77317   4.268   4.279   9.016
25692WAT     H177318   4.340   4.229   8.969
25692WAT     H277319   4.293   4.376   9.023
25693WAT      O77320   0.737   6.105   2.002
25693WAT     H177321   0.811   6.144   1.946
25693WAT     H277322   0.649   6.141   1.971
25694WAT      O77323   2.640   3.572   2.964
25694WAT     H177324   2.605   3.666   2.967
25694WAT     H277325   2.574   3.513   2.917
25695WAT      O77326   0.020   0.575   1.100
25695WAT     H177327   0.019   0.551   1.003
25695WAT     H277328  -0.074   0.583   1.133
25696WAT      O77329   8.870   9.275   5.963
25696WAT     H177330   8.854   9.217   5.883
25696WAT     H277331   8.790   9.332   5.979
25697WAT      O77332   2.774   7.447   8.106
25697WAT     H177333   2.770   7.546   8.093
25697WAT     H277334   2.869   7.418   8.112
25698WAT      O77335   4.850   6.118   3.621
25698WAT     H177336   4.779   6.165   3.569
25698WAT     H277337   4.938   6.162   3.607
25699WAT      O77338   7.157   8.150   1.888
25699WAT     H177339   7.208   8.071   1.853
25699WAT     H277340   7.059   8.132   1.881
25700WAT      O77341   4.986   4.421   7.149
25700WAT     H177342   5.064   4.470   7.111
25700WAT     H277343   5.019   4.353   7.215
25701WAT      O77344   0.538   0.591   9.562
25701WAT     H177345   0.443   0.579   9.591
25701WAT     H277346   0.566   0.685   9.579
25702WAT      O77347   3.450   3.707   0.218
25702WAT     H177348   3.380   3.658   0.164
25702WAT     H277349   3.466   3.796   0.176
25703WAT      O77350   1.291   1.140   3.112
25703WAT     H177351   1.281   1.065   3.047
25703WAT     H277352   1.285   1.227   3.064
25704WAT      O77353   1.259   5.945   3.726
25704WAT     H177354   1.283   5.942   3.823
25704WAT     H277355   1.218   6.034   3.705
25705WAT      O77356   2.552   3.353   7.514
25705WAT     H177357   2.617   3.354   7.590
25705WAT     H277358   2.459   3.354   7.550
25706WAT      O77359   8.768   7.099   3.875
25706WAT     H177360   8.722   7.011   3.863
25706WAT     H277361   8.866   7.088   3.861
25707WAT      O77362   7.777   0.751   0.348
25707WAT     H177363   7.753   0.692   0.425
25707WAT     H277364   7.793   0.695   0.267
25708WAT      O77365   5.527   2.238   1.465
25708WAT     H177366   5.580   2.155   1.446
25708WAT     H277367   5.566   2.314   1.413
25709WAT      O77368   6.897   7.216   5.641
25709WAT     H177369   6.844   7.279   5.583
25709WAT     H277370   6.841   7.138   5.665
25710WAT      O77371   2.555   4.292   3.356
25710WAT     H177372   2.563   4.360   3.283
25710WAT     H277373   2.645   4.252   3.374
25711WAT      O77374   7.366   0.880   5.917
25711WAT     H177375   7.328   0.850   6.005
25711WAT     H277376   7.439   0.819   5.889
25712WAT      O77377   0.088   5.494   9.168
25712WAT     H177378   0.056   5.404   9.198
25712WAT     H277379   0.020   5.563   9.192
25713WAT      O77380   5.115   6.891   9.324
25713WAT     H177381   5.070   6.825   9.384
25713WAT     H277382   5.063   6.898   9.238
25714WAT      O77383   9.601   1.428   0.437
25714WAT     H177384   9.672   1.445   0.369
25714WAT     H277385   9.551   1.344   0.412
25715WAT      O77386   3.658   7.845   5.815
25715WAT     H177387   3.584   7.877   5.874
25715WAT     H277388   3.720   7.921   5.795
25716WAT      O77389   6.028   0.307   3.169
25716WAT     H177390   6.089   0.354   3.233
25716WAT     H277391   6.047   0.209   3.169
25717WAT      O77392   5.888   7.058   1.781
25717WAT     H177393   5.893   6.959   1.769
25717WAT     H277394   5.835   7.099   1.707
25718WAT      O77395   8.033   3.214   5.290
25718WAT     H177396   8.002   3.180   5.378
25718WAT     H277397   8.119   3.264   5.301
25719WAT      O77398   7.952   5.999   3.175
25719WAT     H177399   7.960   6.099   3.170
25719WAT     H277400   7.997   5.966   3.258
25720WAT      O77401   6.149   0.101   2.035
25720WAT     H177402   6.085   0.040   1.988
25720WAT     H277403   6.120   0.196   2.021
25721WAT      O77404   5.600   9.341   6.994
25721WAT     H177405   5.530   9.410   7.014
25721WAT     H277406   5.650   9.367   6.912
25722WAT      O77407   6.326   0.628   8.548
25722WAT     H177408   6.351   0.675   8.463
25722WAT     H277409   6.291   0.538   8.526
25723WAT      O77410   9.152   6.923   4.250
25723WAT     H177411   9.054   6.944   4.256
25723WAT     H277412   9.189   6.962   4.165
25724WAT      O77413   9.784   7.078   5.464
25724WAT     H177414   9.829   7.013   5.525
25724WAT     H277415   9.752   7.156   5.516
25725WAT      O77416   1.051   2.668   9.293
25725WAT     H177417   1.037   2.686   9.390
25725WAT     H277418   1.090   2.750   9.250
25726WAT      O77419   7.300   8.731   3.495
25726WAT     H177420   7.356   8.666   3.546
25726WAT     H277421   7.206   8.698   3.490
25727WAT      O77422   0.542   4.136   8.297
25727WAT     H177423   0.599   4.062   8.333
25727WAT     H277424   0.458   4.097   8.259
25728WAT      O77425   9.756   2.289   8.013
25728WAT     H177426   9.712   2.269   7.926
25728WAT     H277427   9.853   2.308   7.998
25729WAT      O77428   1.547   4.246   8.887
25729WAT     H177429   1.597   4.162   8.865
25729WAT     H277430   1.547   4.261   8.986
25730WAT      O77431   0.634   2.982   1.660
25730WAT     H177432   0.539   3.009   1.642
25730WAT     H277433   0.666   3.027   1.743
25731WAT      O77434   4.864   6.439   6.767
25731WAT     H177435   4.923   6.511   6.730
25731WAT     H277436   4.909   6.350   6.754
25732WAT      O77437   0.567   3.529   0.521
25732WAT     H177438   0.633   3.555   0.451
25732WAT     H277439   0.479   3.507   0.479
25733WAT      O77440   0.408   4.356   9.046
25733WAT     H177441   0.415   4.272   8.993
25733WAT     H277442   0.331   4.350   9.109
25734WAT      O77443   8.717   8.048   3.582
25734WAT     H177444   8.683   7.979   3.518
25734WAT     H277445   8.646   8.070   3.648
25735WAT      O77446   1.778   5.293   2.876
25735WAT     H177447   1.856   5.350   2.850
25735WAT     H277448   1.719   5.344   2.939
25736WAT      O77449   3.242   0.266   8.336
25736WAT     H177450   3.174   0.204   8.295
25736WAT     H277451   3.305   0.297   8.265
25737WAT      O77452   4.879   3.549   0.934
25737WAT     H177453   4.832   3.547   0.846
25737WAT     H277454   4.851   3.471   0.989
25738WAT      O77455   9.505   6.051   6.256
25738WAT     H177456   9.503   6.021   6.351
25738WAT     H277457   9.591   6.023   6.214
25739WAT      O77458   1.716   0.057   4.799
25739WAT     H177459   1.779   0.097   4.732
25739WAT     H277460   1.763  -0.017   4.848
25740WAT      O77461   2.535   8.289   8.812
25740WAT     H177462   2.606   8.313   8.878
25740WAT     H277463   2.519   8.190   8.815
25741WAT      O77464   9.557   8.359   0.653
25741WAT     H177465   9.529   8.304   0.574
25741WAT     H277466   9.484   8.422   0.677
25742WAT      O77467   6.183   0.941   4.489
25742WAT     H177468   6.277   0.906   4.488
25742WAT     H277469   6.145   0.932   4.581
25743WAT      O77470   0.336   1.333   9.149
25743WAT     H177471   0.303   1.356   9.058
25743WAT     H277472   0.287   1.388   9.217
25744WAT      O77473   2.413   1.827   0.819
25744WAT     H177474   2.432   1.777   0.734
25744WAT     H277475   2.327   1.794   0.858
25745WAT      O77476   2.197   7.340   3.357
25745WAT     H177477   2.251   7.327   3.273
25745WAT     H277478   2.102   7.359   3.332
25746WAT      O77479   6.836   1.656   7.289
25746WAT     H177480   6.804   1.607   7.371
25746WAT     H277481   6.757   1.696   7.242
25747WAT      O77482   5.525   3.366   7.259
25747WAT     H177483   5.609   3.317   7.237
25747WAT     H277484   5.529   3.397   7.355
25748WAT      O77485   1.364   3.989   1.709
25748WAT     H177486   1.300   3.918   1.736
25748WAT     H277487   1.394   4.041   1.790
25749WAT      O77488   2.508   7.554   2.389
25749WAT     H177489   2.548   7.505   2.312
25749WAT     H277490   2.560   7.533   2.472
25750WAT      O77491   4.677   2.397   0.677
25750WAT     H177492   4.674   2.346   0.590
25750WAT     H277493   4.590   2.386   0.725
25751WAT      O77494   1.255   2.868   2.843
25751WAT     H177495   1.212   2.778   2.847
25751WAT     H277496   1.354   2.857   2.840
25752WAT      O77497   9.552   0.467   2.596
25752WAT     H177498   9.514   0.443   2.685
25752WAT     H277499   9.479   0.465   2.527
25753WAT      O77500   6.377   7.028   2.478
25753WAT     H177501   6.474   7.040   2.495
25753WAT     H277502   6.330   7.008   2.564
25754WAT      O77503   3.141   0.134   0.754
25754WAT     H177504   3.045   0.113   0.772
25754WAT     H277505   3.155   0.233   0.758
25755WAT      O77506   2.658   8.670   2.860
25755WAT     H177507   2.644   8.609   2.938
25755WAT     H277508   2.755   8.687   2.848
25756WAT      O77509   5.301   1.487   8.955
25756WAT     H177510   5.230   1.510   8.889
25756WAT     H277511   5.274   1.407   9.008
25757WAT      O77512   4.785   7.864   0.086
25757WAT     H177513   4.830   7.832   0.169
25757WAT     H277514   4.824   7.818   0.006
25758WAT      O77515   4.068   7.798   7.936
25758WAT     H177516   4.136   7.787   7.863
25758WAT     H277517   4.034   7.892   7.936
25759WAT      O77518   9.674   9.415   7.200
25759WAT     H177519   9.687   9.322   7.165
25759WAT     H277520   9.763   9.452   7.230
25760WAT      O77521   0.492   6.854   2.823
25760WAT     H177522   0.548   6.803   2.889
25760WAT     H277523   0.404   6.808   2.812
25761WAT      O77524   4.441   2.365   4.804
25761WAT     H177525   4.462   2.275   4.841
25761WAT     H277526   4.343   2.383   4.811
25762WAT      O77527   5.391   1.416   7.900
25762WAT     H177528   5.470   1.361   7.929
25762WAT     H277529   5.411   1.513   7.914
25763WAT      O77530   8.642   0.036   1.922
25763WAT     H177531   8.611   0.122   1.881
25763WAT     H277532   8.563  -0.015   1.956
25764WAT      O77533   7.205   7.892   7.024
25764WAT     H177534   7.228   7.968   6.964
25764WAT     H277535   7.289   7.845   7.051
25765WAT      O77536   3.611   0.675   3.541
25765WAT     H177537   3.625   0.696   3.638
25765WAT     H277538   3.661   0.592   3.517
25766WAT      O77539   4.436   5.005   6.506
25766WAT     H177540   4.525   4.985   6.548
25766WAT     H277541   4.427   5.104   6.493
25767WAT      O77542   5.939   4.504   8.745
25767WAT     H177543   5.902   4.506   8.838
25767WAT     H277544   5.881   4.559   8.685
25768WAT      O77545   4.496   6.669   4.017
25768WAT     H177546   4.580   6.631   4.056
25768WAT     H277547   4.477   6.758   4.058
25769WAT      O77548   8.865   4.494   1.544
25769WAT     H177549   8.886   4.449   1.630
25769WAT     H277550   8.787   4.450   1.501
25770WAT      O77551   2.640   5.556   0.175
25770WAT     H177552   2.564   5.611   0.138
25770WAT     H277553   2.644   5.568   0.274
25771WAT      O77554   9.871   5.662   4.769
25771WAT     H177555   9.841   5.704   4.684
25771WAT     H277556   9.965   5.690   4.789
25772WAT      O77557   9.057   5.477   5.839
25772WAT     H177558   8.960   5.501   5.836
25772WAT     H277559   9.074   5.418   5.917
25773WAT      O77560   9.739   3.283   4.044
25773WAT     H177561   9.741   3.326   3.954
25773WAT     H277562   9.697   3.345   4.110
25774WAT      O77563   8.570   1.223   3.191
25774WAT     H177564   8.539   1.308   3.149
25774WAT     H277565   8.627   1.245   3.271
25775WAT      O77566   1.111   8.791   4.813
25775WAT     H177567   1.070   8.724   4.874
25775WAT     H277568   1.123   8.751   4.722
25776WAT      O77569   3.333   6.507   8.393
25776WAT     H177570   3.280   6.588   8.368
25776WAT     H277571   3.309   6.432   8.332
25777WAT      O77572   3.380   7.675   6.174
25777WAT     H177573   3.461   7.617   6.165
25777WAT     H277574   3.342   7.666   6.266
25778WAT      O77575   2.116   1.493   6.830
25778WAT     H177576   2.071   1.404   6.813
25778WAT     H277577   2.192   1.504   6.766
25779WAT      O77578   0.763   5.630   6.058
25779WAT     H177579   0.807   5.637   5.969
25779WAT     H277580   0.737   5.535   6.076
25780WAT      O77581   9.297   9.098   9.351
25780WAT     H177582   9.291   8.999   9.343
25780WAT     H277583   9.310   9.138   9.260
25781WAT      O77584   2.013   1.563   7.639
25781WAT     H177585   2.029   1.654   7.676
25781WAT     H277586   2.091   1.504   7.661
25782WAT      O77587   1.289   5.547   3.907
25782WAT     H177588   1.327   5.553   3.814
25782WAT     H277589   1.192   5.570   3.904
25783WAT      O77590   2.583   0.596   0.404
25783WAT     H177591   2.531   0.652   0.470
25783WAT     H277592   2.579   0.640   0.314
25784WAT      O77593   6.246   9.317   7.967
25784WAT     H177594   6.295   9.298   7.882
25784WAT     H277595   6.201   9.406   7.960
25785WAT      O77596   1.790   7.266   8.248
25785WAT     H177597   1.742   7.286   8.163
25785WAT     H277598   1.727   7.273   8.325
25786WAT      O77599   9.480   3.035   1.021
25786WAT     H177600   9.403   3.094   0.998
25786WAT     H277601   9.537   3.079   1.091
25787WAT      O77602   4.285   7.558   1.577
25787WAT     H177603   4.290   7.470   1.624
25787WAT     H277604   4.203   7.606   1.606
25788WAT      O77605   1.504   6.879   3.211
25788WAT     H177606   1.604   6.876   3.204
25788WAT     H277607   1.468   6.787   3.220
25789WAT      O77608   4.885   7.030   5.435
25789WAT     H177609   4.807   6.969   5.447
25789WAT     H277610   4.897   7.049   5.338
25790WAT      O77611   2.867   3.393   5.541
25790WAT     H177612   2.823   3.377   5.453
25790WAT     H277613   2.840   3.321   5.605
25791WAT      O77614   6.481   4.874   6.943
25791WAT     H177615   6.578   4.892   6.927
25791WAT     H277616   6.462   4.776   6.929
25792WAT      O77617   3.391   7.171   7.319
25792WAT     H177618   3.451   7.104   7.363
25792WAT     H277619   3.401   7.259   7.365
25793WAT      O77620   4.955   9.755   4.015
25793WAT     H177621   5.011   9.717   3.941
25793WAT     H277622   4.858   9.740   3.996
25794WAT      O77623   2.492   4.918   1.982
25794WAT     H177624   2.475   4.997   1.923
25794WAT     H277625   2.590   4.906   1.995
25795WAT      O77626   9.174   0.837   6.104
25795WAT     H177627   9.137   0.861   6.194
25795WAT     H277628   9.157   0.913   6.040
25796WAT      O77629   2.589   5.225   4.598
25796WAT     H177630   2.559   5.181   4.513
25796WAT     H277631   2.687   5.245   4.592
25797WAT      O77632   9.345   1.891   9.053
25797WAT     H177633   9.349   1.867   8.956
25797WAT     H277634   9.369   1.988   9.064
25798WAT      O77635   2.220   4.982   1.170
25798WAT     H177636   2.167   4.974   1.086
25798WAT     H277637   2.237   4.891   1.208
25799WAT      O77638   3.545   5.720   1.303
25799WAT     H177639   3.593   5.637   1.273
25799WAT     H277640   3.462   5.732   1.249
25800WAT      O77641   6.451   2.415   1.906
25800WAT     H177642   6.482   2.408   1.811
25800WAT     H277643   6.433   2.323   1.942
25801WAT      O77644   6.619   1.969   3.137
25801WAT     H177645   6.519   1.981   3.132
25801WAT     H277646   6.658   1.973   3.045
25802WAT      O77647   7.638   4.875   3.887
25802WAT     H177648   7.570   4.916   3.947
25802WAT     H277649   7.610   4.885   3.791
25803WAT      O77650   0.107   4.214   1.800
25803WAT     H177651   0.181   4.189   1.737
25803WAT     H277652   0.061   4.131   1.832
25804WAT      O77653   7.694   0.503   6.102
25804WAT     H177654   7.644   0.417   6.106
25804WAT     H277655   7.729   0.526   6.193
25805WAT      O77656   4.533   4.173   9.184
25805WAT     H177657   4.576   4.247   9.134
25805WAT     H277658   4.599   4.134   9.249
25806WAT      O77659   1.811   6.255   3.102
25806WAT     H177660   1.867   6.175   3.123
25806WAT     H277661   1.770   6.244   3.011
25807WAT      O77662   2.497   3.912   1.087
25807WAT     H177663   2.445   3.877   1.164
25807WAT     H277664   2.543   3.997   1.113
25808WAT      O77665   8.262   0.522   2.849
25808WAT     H177666   8.253   0.423   2.835
25808WAT     H277667   8.357   0.544   2.867
25809WAT      O77668   5.350   9.614   8.515
25809WAT     H177669   5.285   9.690   8.517
25809WAT     H277670   5.359   9.581   8.421
25810WAT      O77671   9.377   4.860   0.037
25810WAT     H177672   9.375   4.769   0.079
25810WAT     H277673   9.391   4.850  -0.061
25811WAT      O77674   7.525   7.273   1.939
25811WAT     H177675   7.624   7.270   1.948
25811WAT     H277676   7.483   7.259   2.029
25812WAT      O77677   5.732   2.409   4.898
25812WAT     H177678   5.677   2.475   4.948
25812WAT     H277679   5.727   2.429   4.800
25813WAT      O77680   2.698   0.681   4.526
25813WAT     H177681   2.702   0.620   4.605
25813WAT     H277682   2.772   0.748   4.531
25814WAT      O77683   1.812   8.887   8.162
25814WAT     H177684   1.738   8.916   8.223
25814WAT     H277685   1.843   8.965   8.107
25815WAT      O77686   8.020   4.852   4.946
25815WAT     H177687   7.933   4.839   4.899
25815WAT     H277688   8.015   4.816   5.039
25816WAT      O77689   1.223   6.703   4.084
25816WAT     H177690   1.250   6.610   4.110
25816WAT     H277691   1.298   6.766   4.105
25817WAT      O77692   0.661   9.320   4.482
25817WAT     H177693   0.660   9.253   4.557
25817WAT     H277694   0.721   9.396   4.506
25818WAT      O77695   4.182   4.939   3.822
25818WAT     H177696   4.152   4.906   3.912
25818WAT     H277697   4.103   4.975   3.772
25819WAT      O77698   0.257   7.630   5.252
25819WAT     H177699   0.311   7.695   5.199
25819WAT     H277700   0.213   7.678   5.328
25820WAT      O77701   6.073   7.201   2.549
25820WAT     H177702   6.022   7.135   2.494
25820WAT     H277703   6.136   7.152   2.610
25821WAT      O77704   5.840   1.746   0.022
25821WAT     H177705   5.751   1.737   0.066
25821WAT     H277706   5.907   1.778   0.089
25822WAT      O77707   2.315   1.224   6.030
25822WAT     H177708   2.303   1.162   5.953
25822WAT     H277709   2.411   1.249   6.039
25823WAT      O77710   2.463   4.182   5.425
25823WAT     H177711   2.522   4.254   5.461
25823WAT     H277712   2.369   4.215   5.421
25824WAT      O77713   6.123   9.112   8.101
25824WAT     H177714   6.028   9.144   8.096
25824WAT     H277715   6.182   9.176   8.052
25825WAT      O77716   0.799   9.354   1.339
25825WAT     H177717   0.864   9.424   1.370
25825WAT     H277718   0.708   9.375   1.374
25826WAT      O77719   2.051   7.697   2.400
25826WAT     H177720   1.972   7.635   2.398
25826WAT     H277721   2.093   7.693   2.491
25827WAT      O77722   6.366   2.617   9.664
25827WAT     H177723   6.321   2.631   9.752
25827WAT     H277724   6.428   2.693   9.645
25828WAT      O77725   3.003   7.973   3.029
25828WAT     H177726   2.946   7.892   3.017
25828WAT     H277727   2.970   8.047   2.970
25829WAT      O77728   0.037   5.016   3.050
25829WAT     H177729   0.077   5.055   3.133
25829WAT     H277730   0.107   5.008   2.980
25830WAT      O77731   7.964   6.868   6.655
25830WAT     H177732   7.991   6.916   6.739
25830WAT     H277733   8.046   6.833   6.610
25831WAT      O77734   4.315   7.916   6.723
25831WAT     H177735   4.283   7.911   6.629
25831WAT     H277736   4.237   7.913   6.786
25832WAT      O77737   6.327   7.883   2.156
25832WAT     H177738   6.350   7.979   2.136
25832WAT     H277739   6.290   7.876   2.249
25833WAT      O77740   4.320   2.585   8.207
25833WAT     H177741   4.284   2.495   8.232
25833WAT     H277742   4.247   2.640   8.165
25834WAT      O77743   7.807   2.814   8.349
25834WAT     H177744   7.857   2.784   8.268
25834WAT     H277745   7.853   2.894   8.389
25835WAT      O77746   4.882   3.649   4.403
25835WAT     H177747   4.921   3.559   4.419
25835WAT     H277748   4.871   3.697   4.490
25836WAT      O77749   5.526   9.514   6.735
25836WAT     H177750   5.441   9.461   6.731
25836WAT     H277751   5.506   9.606   6.770
25837WAT      O77752   4.707   2.469   4.856
25837WAT     H177753   4.738   2.420   4.937
25837WAT     H277754   4.658   2.406   4.796
25838WAT      O77755   0.771   8.399   9.470
25838WAT     H177756   0.837   8.401   9.395
25838WAT     H277757   0.722   8.311   9.469
25839WAT      O77758   2.324   8.231   5.604
25839WAT     H177759   2.280   8.266   5.521
25839WAT     H277760   2.404   8.288   5.625
25840WAT      O77761   9.651   7.663   4.801
25840WAT     H177762   9.685   7.680   4.893
25840WAT     H277763   9.674   7.569   4.773
25841WAT      O77764   5.875   7.630   0.428
25841WAT     H177765   5.796   7.623   0.368
25841WAT     H277766   5.949   7.571   0.394
25842WAT      O77767   9.562   3.373   9.370
25842WAT     H177768   9.581   3.471   9.369
25842WAT     H277769   9.581   3.334   9.280
25843WAT      O77770   9.098   2.966   6.656
25843WAT     H177771   9.078   2.892   6.720
25843WAT     H277772   9.169   3.025   6.693
25844WAT      O77773   1.596   0.597   8.158
25844WAT     H177774   1.609   0.498   8.147
25844WAT     H277775   1.538   0.631   8.085
25845WAT      O77776   9.596   4.921   5.026
25845WAT     H177777   9.553   4.999   5.071
25845WAT     H277778   9.677   4.893   5.077
25846WAT      O77779   1.236   0.124   1.713
25846WAT     H177780   1.169   0.126   1.639
25846WAT     H277781   1.192   0.150   1.799
25847WAT      O77782   4.846   4.641   0.891
25847WAT     H177783   4.865   4.724   0.839
25847WAT     H277784   4.747   4.626   0.894
25848WAT      O77785   7.788   4.214   0.341
25848WAT     H177786   7.846   4.144   0.300
25848WAT     H277787   7.812   4.225   0.437
25849WAT      O77788   3.254   6.094   5.054
25849WAT     H177789   3.233   6.018   5.116
25849WAT     H277790   3.255   6.061   4.960
25850WAT      O77791   0.589   4.422   9.229
25850WAT     H177792   0.596   4.521   9.235
25850WAT     H277793   0.515   4.397   9.166
25851WAT      O77794   9.283   7.327   5.201
25851WAT     H177795   9.226   7.248   5.221
25851WAT     H277796   9.334   7.353   5.283
25852WAT      O77797   8.111   5.547   3.292
25852WAT     H177798   8.014   5.524   3.297
25852WAT     H277799   8.140   5.588   3.379
25853WAT      O77800   2.172   6.813   3.814
25853WAT     H177801   2.131   6.831   3.903
25853WAT     H277802   2.244   6.880   3.796
25854WAT      O77803   4.034   2.322   0.777
25854WAT     H177804   4.033   2.222   0.779
25854WAT     H277805   4.009   2.357   0.868
25855WAT      O77806   5.521   7.694   1.950
25855WAT     H177807   5.609   7.673   1.993
25855WAT     H277808   5.458   7.618   1.964
25856WAT      O77809   8.455   8.127   4.130
25856WAT     H177810   8.517   8.059   4.091
25856WAT     H277811   8.507   8.209   4.154
25857WAT      O77812   9.017   5.045   9.837
25857WAT     H177813   9.064   5.115   9.783
25857WAT     H277814   9.073   5.019   9.915
25858WAT      O77815   9.810   3.290   0.977
25858WAT     H177816   9.757   3.318   0.897
25858WAT     H277817   9.749   3.285   1.057
25859WAT      O77818   5.634   9.466   7.769
25859WAT     H177819   5.679   9.550   7.739
25859WAT     H277820   5.553   9.489   7.823
25860WAT      O77821   0.441   8.787   9.425
25860WAT     H177822   0.448   8.833   9.336
25860WAT     H277823   0.522   8.729   9.438
25861WAT      O77824   7.980   3.330   7.835
25861WAT     H177825   7.952   3.253   7.892
25861WAT     H277826   8.080   3.333   7.829
25862WAT      O77827   1.037   0.848   4.515
25862WAT     H177828   0.944   0.884   4.530
25862WAT     H277829   1.053   0.771   4.577
25863WAT      O77830   4.743   6.818   2.025
25863WAT     H177831   4.711   6.909   2.051
25863WAT     H277832   4.780   6.820   1.932
25864WAT      O77833   2.995   9.399   2.465
25864WAT     H177834   2.969   9.486   2.508
25864WAT     H277835   2.921   9.334   2.474
25865WAT      O77836   9.735   0.314   4.240
25865WAT     H177837   9.695   0.243   4.298
25865WAT     H277838   9.689   0.402   4.257
25866WAT      O77839   3.806   6.839   6.324
25866WAT     H177840   3.856   6.923   6.303
25866WAT     H277841   3.856   6.760   6.289
25867WAT      O77842   8.764   4.043   7.174
25867WAT     H177843   8.756   4.141   7.190
25867WAT     H277844   8.846   4.024   7.120
25868WAT      O77845   3.408   4.078   4.890
25868WAT     H177846   3.352   4.159   4.875
25868WAT     H277847   3.498   4.092   4.850
25869WAT      O77848   8.870   8.022   0.316
25869WAT     H177849   8.963   7.989   0.330
25869WAT     H277850   8.873   8.117   0.284
25870WAT      O77851   2.797   6.642   2.685
25870WAT     H177852   2.763   6.554   2.652
25870WAT     H277853   2.868   6.676   2.623
25871WAT      O77854   2.268   6.888   0.437
25871WAT     H177855   2.353   6.839   0.418
25871WAT     H277856   2.257   6.962   0.371
25872WAT      O77857   2.027   3.128   6.467
25872WAT     H177858   2.123   3.151   6.481
25872WAT     H277859   1.997   3.163   6.378
25873WAT      O77860   7.116   6.696   9.087
25873WAT     H177861   7.038   6.726   9.142
25873WAT     H277862   7.085   6.674   8.994
25874WAT      O77863   2.158   5.965   7.340
25874WAT     H177864   2.220   6.027   7.387
25874WAT     H277865   2.136   6.002   7.249
25875WAT      O77866   5.010   2.275   2.431
25875WAT     H177867   5.071   2.270   2.510
25875WAT     H277868   5.028   2.197   2.371
25876WAT      O77869   2.065   0.137   7.861
25876WAT     H177870   2.107   0.055   7.901
25876WAT     H277871   2.062   0.127   7.761
25877WAT      O77872   8.412   9.544   4.736
25877WAT     H177873   8.446   9.450   4.741
25877WAT     H277874   8.468   9.596   4.671
25878WAT      O77875   5.969   2.766   0.593
25878WAT     H177876   5.971   2.676   0.637
25878WAT     H277877   5.880   2.808   0.610
25879WAT      O77878   1.589   3.336   6.449
25879WAT     H177879   1.659   3.290   6.504
25879WAT     H277880   1.626   3.359   6.360
25880WAT      O77881   4.096   1.814   6.266
25880WAT     H177882   4.044   1.892   6.301
25880WAT     H277883   4.172   1.793   6.327
25881WAT      O77884   9.139   4.653   2.442
25881WAT     H177885   9.147   4.723   2.371
25881WAT     H277886   9.112   4.697   2.528
25882WAT      O77887   4.764   8.040   3.702
25882WAT     H177888   4.824   8.024   3.781
25882WAT     H277889   4.672   8.062   3.734
25883WAT      O77890   0.478   3.806   5.937
25883WAT     H177891   0.458   3.898   5.903
25883WAT     H277892   0.392   3.758   5.955
25884WAT      O77893   6.700   7.812   2.255
25884WAT     H177894   6.655   7.848   2.337
25884WAT     H277895   6.765   7.741   2.282
25885WAT      O77896   3.025   4.182   5.030
25885WAT     H177897   3.006   4.266   5.081
25885WAT     H277898   3.105   4.196   4.972
25886WAT      O77899   0.760   2.822   5.355
25886WAT     H177900   0.723   2.752   5.417
25886WAT     H277901   0.727   2.804   5.262
25887WAT      O77902   2.570   6.059   1.369
25887WAT     H177903   2.552   6.002   1.289
25887WAT     H277904   2.545   6.154   1.348
25888WAT      O77905   1.922   7.532   9.072
25888WAT     H177906   1.946   7.454   9.131
25888WAT     H277907   1.866   7.500   8.996
25889WAT      O77908   4.324   5.521   9.868
25889WAT     H177909   4.399   5.466   9.903
25889WAT     H277910   4.356   5.613   9.846
25890WAT      O77911   1.700   7.476   9.557
25890WAT     H177912   1.747   7.555   9.517
25890WAT     H277913   1.650   7.427   9.486
25891WAT      O77914   9.318   8.620   5.059
25891WAT     H177915   9.253   8.580   5.125
25891WAT     H277916   9.327   8.718   5.077
25892WAT      O77917   6.425   5.163   5.543
25892WAT     H177918   6.403   5.259   5.526
25892WAT     H277919   6.374   5.105   5.480
25893WAT      O77920   4.344   7.737   0.759
25893WAT     H177921   4.323   7.823   0.711
25893WAT     H277922   4.443   7.723   0.758
25894WAT      O77923   4.173   3.918   9.511
25894WAT     H177924   4.085   3.945   9.549
25894WAT     H277925   4.221   3.998   9.476
25895WAT      O77926   4.283   5.487   2.906
25895WAT     H177927   4.256   5.535   2.822
25895WAT     H277928   4.260   5.390   2.897
25896WAT      O77929   5.324   3.936   0.473
25896WAT     H177930   5.319   3.853   0.528
25896WAT     H277931   5.344   4.015   0.531
25897WAT      O77932   1.457   8.798   6.534
25897WAT     H177933   1.433   8.894   6.547
25897WAT     H277934   1.548   8.792   6.492
25898WAT      O77935   7.426   3.180   5.554
25898WAT     H177936   7.412   3.084   5.581
25898WAT     H277937   7.464   3.231   5.630
25899WAT      O77938   3.199   4.244   4.827
25899WAT     H177939   3.220   4.338   4.802
25899WAT     H277940   3.133   4.206   4.761
25900WAT      O77941   0.332   9.133   3.481
25900WAT     H177942   0.285   9.066   3.423
25900WAT     H277943   0.388   9.086   3.549
25901WAT      O77944   5.262   8.043   2.197
25901WAT     H177945   5.308   7.969   2.148
25901WAT     H277946   5.174   8.011   2.232
25902WAT      O77947   0.831   4.403   2.177
25902WAT     H177948   0.847   4.387   2.274
25902WAT     H277949   0.835   4.316   2.128
25903WAT      O77950   0.788   7.470   4.604
25903WAT     H177951   0.875   7.519   4.610
25903WAT     H277952   0.761   7.461   4.508
25904WAT      O77953   3.565   1.034   5.987
25904WAT     H177954   3.533   1.123   6.020
25904WAT     H277955   3.490   0.968   5.991
25905WAT      O77956   0.119   3.208   0.097
25905WAT     H177957   0.145   3.122   0.141
25905WAT     H277958   0.028   3.235   0.128
25906WAT      O77959   3.036   6.631   2.023
25906WAT     H177960   3.025   6.541   1.981
25906WAT     H277961   3.052   6.699   1.952
25907WAT      O77962   1.985   3.144   3.589
25907WAT     H177963   2.068   3.101   3.627
25907WAT     H277964   1.913   3.076   3.582
25908WAT      O77965   8.697   6.332   9.581
25908WAT     H177966   8.743   6.418   9.557
25908WAT     H277967   8.626   6.312   9.513
25909WAT      O77968   2.313   5.580   2.967
25909WAT     H177969   2.291   5.489   2.930
25909WAT     H277970   2.264   5.650   2.915
25910WAT      O77971   4.691   1.511   4.950
25910WAT     H177972   4.611   1.565   4.924
25910WAT     H277973   4.711   1.527   5.047
25911WAT      O77974   8.733   1.673   0.103
25911WAT     H177975   8.643   1.666   0.060
25911WAT     H277976   8.761   1.583   0.136
25912WAT      O77977   7.975   5.920   7.126
25912WAT     H177978   8.012   5.830   7.100
25912WAT     H277979   8.035   5.992   7.091
25913WAT      O77980   7.207   1.388   8.112
25913WAT     H177981   7.115   1.408   8.147
25913WAT     H277982   7.220   1.289   8.106
25914WAT      O77983   6.864   4.196   6.728
25914WAT     H177984   6.862   4.107   6.773
25914WAT     H277985   6.813   4.191   6.642
25915WAT      O77986   1.073   2.438   0.534
25915WAT     H177987   1.157   2.396   0.567
25915WAT     H277988   0.998   2.373   0.539
25916WAT      O77989   1.481   7.686   5.760
25916WAT     H177990   1.568   7.708   5.804
25916WAT     H277991   1.416   7.654   5.829
25917WAT      O77992   0.779   2.649   8.801
25917WAT     H177993   0.697   2.690   8.760
25917WAT     H277994   0.841   2.619   8.728
25918WAT      O77995   7.403   6.226   0.575
25918WAT     H177996   7.469   6.302   0.576
25918WAT     H277997   7.437   6.153   0.516
25919WAT      O77998   7.612   9.322   7.132
25919WAT     H177999   7.513   9.321   7.116
25919WAT     H278000   7.659   9.289   7.051
25920WAT      O78001   7.740   8.126   2.388
25920WAT     H178002   7.716   8.169   2.475
25920WAT     H278003   7.825   8.167   2.353
25921WAT      O78004   0.526   6.343   1.339
25921WAT     H178005   0.606   6.286   1.356
25921WAT     H278006   0.474   6.307   1.263
25922WAT      O78007   0.797   0.022   1.413
25922WAT     H178008   0.833  -0.067   1.385
25922WAT     H278009   0.830   0.044   1.505
25923WAT      O78010   4.257   4.548   7.307
25923WAT     H178011   4.279   4.638   7.269
25923WAT     H278012   4.333   4.516   7.363
25924WAT      O78013   4.970   3.678   9.438
25924WAT     H178014   5.067   3.662   9.458
25924WAT     H278015   4.914   3.613   9.489
25925WAT      O78016   7.907   1.919   3.610
25925WAT     H178017   7.844   1.986   3.649
25925WAT     H278018   8.001   1.950   3.625
25926WAT      O78019   5.208   5.322   4.899
25926WAT     H178020   5.145   5.283   4.831
25926WAT     H278021   5.159   5.333   4.986
25927WAT      O78022   1.037   1.785   0.783
25927WAT     H178023   1.109   1.846   0.752
25927WAT     H278024   1.038   1.701   0.729
25928WAT      O78025   0.935   0.026   1.662
25928WAT     H178026   0.903   0.103   1.719
25928WAT     H278027   0.972  -0.046   1.721
25929WAT      O78028   3.245   1.913   2.308
25929WAT     H178029   3.253   1.836   2.244
25929WAT     H278030   3.320   1.909   2.374
25930WAT      O78031   3.290   3.461   2.591
25930WAT     H178032   3.220   3.416   2.535
25930WAT     H278033   3.366   3.488   2.532
25931WAT      O78034   8.457   8.539   5.854
25931WAT     H178035   8.362   8.524   5.882
25931WAT     H278036   8.466   8.522   5.756
25932WAT      O78037   0.532   4.727   4.265
25932WAT     H178038   0.556   4.805   4.208
25932WAT     H278039   0.432   4.721   4.272
25933WAT      O78040   0.292   6.283   0.408
25933WAT     H178041   0.197   6.304   0.428
25933WAT     H278042   0.297   6.193   0.364
25934WAT      O78043   0.944   2.791   3.819
25934WAT     H178044   0.970   2.830   3.907
25934WAT     H278045   0.954   2.691   3.822
25935WAT      O78046   0.432   6.242   9.018
25935WAT     H178047   0.475   6.329   9.043
25935WAT     H278048   0.370   6.257   8.941
25936WAT      O78049   8.778   9.030   3.037
25936WAT     H178050   8.748   8.935   3.050
25936WAT     H278051   8.734   9.088   3.105
25937WAT      O78052   1.235   4.614   6.264
25937WAT     H178053   1.145   4.647   6.292
25937WAT     H278054   1.277   4.563   6.339
25938WAT      O78055   9.396   1.942   9.425
25938WAT     H178056   9.313   1.888   9.439
25938WAT     H278057   9.453   1.899   9.355
25939WAT      O78058   3.408   7.656   8.944
25939WAT     H178059   3.434   7.753   8.938
25939WAT     H278060   3.460   7.604   8.876
25940WAT      O78061   4.972   2.227   0.403
25940WAT     H178062   4.974   2.326   0.388
25940WAT     H278063   4.880   2.199   0.430
25941WAT      O78064   8.722   8.111   8.619
25941WAT     H178065   8.810   8.085   8.580
25941WAT     H278066   8.737   8.170   8.699
25942WAT      O78067   0.085   7.429   8.332
25942WAT     H178068   0.001   7.382   8.305
25942WAT     H278069   0.147   7.363   8.376
25943WAT      O78070   1.829   3.207   3.204
25943WAT     H178071   1.858   3.153   3.125
25943WAT     H278072   1.903   3.267   3.233
25944WAT      O78073   2.141   3.570   6.980
25944WAT     H178074   2.058   3.595   7.029
25944WAT     H278075   2.209   3.643   6.987
25945WAT      O78076   4.453   1.887   9.253
25945WAT     H178077   4.408   1.800   9.271
25945WAT     H278078   4.527   1.901   9.319
25946WAT      O78079   6.789   9.728   0.326
25946WAT     H178080   6.718   9.677   0.375
25946WAT     H278081   6.853   9.664   0.283
25947WAT      O78082   1.578   7.482   1.385
25947WAT     H178083   1.552   7.469   1.289
25947WAT     H278084   1.632   7.404   1.415
25948WAT      O78085   7.603   4.900   1.959
25948WAT     H178086   7.532   4.830   1.969
25948WAT     H278087   7.635   4.929   2.049
25949WAT      O78088   0.902   6.099   7.805
25949WAT     H178089   0.941   6.104   7.713
25949WAT     H278090   0.929   6.013   7.849
25950WAT      O78091   7.766   7.581   5.632
25950WAT     H178092   7.685   7.531   5.663
25950WAT     H278093   7.848   7.531   5.660
25951WAT      O78094   4.470   0.699   7.212
25951WAT     H178095   4.406   0.621   7.208
25951WAT     H278096   4.436   0.772   7.153
25952WAT      O78097   7.504   7.029   3.261
25952WAT     H178098   7.596   6.995   3.242
25952WAT     H278099   7.505   7.082   3.346
25953WAT      O78100   1.229   2.260   3.457
25953WAT     H178101   1.176   2.298   3.533
25953WAT     H278102   1.296   2.194   3.492
25954WAT      O78103   9.612   5.610   8.430
25954WAT     H178104   9.642   5.531   8.376
25954WAT     H278105   9.687   5.641   8.488
25955WAT      O78106   4.521   2.124   0.242
25955WAT     H178107   4.495   2.028   0.237
25955WAT     H278108   4.502   2.159   0.335
25956WAT      O78109   1.372   8.010   5.006
25956WAT     H178110   1.461   7.986   4.967
25956WAT     H278111   1.327   8.076   4.947
25957WAT      O78112   1.177   1.216   8.582
25957WAT     H178113   1.183   1.301   8.530
25957WAT     H278114   1.147   1.236   8.675
25958WAT      O78115   3.951   3.867   4.733
25958WAT     H178116   4.026   3.841   4.671
25958WAT     H278117   3.937   3.966   4.728
25959WAT      O78118   7.386   6.316   5.567
25959WAT     H178119   7.393   6.373   5.649
25959WAT     H278120   7.359   6.374   5.489
25960WAT      O78121   7.993   8.182   5.024
25960WAT     H178122   8.062   8.216   5.089
25960WAT     H278123   8.031   8.102   4.976
25961WAT      O78124   7.203   6.103   6.541
25961WAT     H178125   7.211   6.045   6.459
25961WAT     H278126   7.246   6.191   6.524
25962WAT      O78127   8.036   8.901   4.017
25962WAT     H178128   7.974   8.932   4.088
25962WAT     H278129   7.986   8.890   3.931
25963WAT      O78130   2.470   3.521   5.542
25963WAT     H178131   2.431   3.581   5.611
25963WAT     H278132   2.537   3.572   5.487
25964WAT      O78133   7.281   2.375   7.715
25964WAT     H178134   7.269   2.334   7.806
25964WAT     H278135   7.197   2.420   7.687
25965WAT      O78136   4.955   9.103   6.296
25965WAT     H178137   5.001   9.021   6.330
25965WAT     H278138   5.017   9.155   6.237
25966WAT      O78139   5.270   4.309   7.744
25966WAT     H178140   5.309   4.241   7.682
25966WAT     H278141   5.301   4.291   7.837
25967WAT      O78142   7.868   0.553   3.100
25967WAT     H178143   7.958   0.521   3.129
25967WAT     H278144   7.802   0.479   3.109
25968WAT      O78145   4.495   1.816   7.412
25968WAT     H178146   4.400   1.802   7.440
25968WAT     H278147   4.543   1.728   7.414
25969WAT      O78148   8.854   5.375   2.269
25969WAT     H178149   8.921   5.302   2.261
25969WAT     H278150   8.789   5.353   2.341
25970WAT      O78151   1.031   8.676   2.466
25970WAT     H178152   1.035   8.576   2.466
25970WAT     H278153   1.008   8.709   2.557
25971WAT      O78154   6.698   0.831   4.461
25971WAT     H178155   6.797   0.819   4.454
25971WAT     H278156   6.678   0.917   4.509
25972WAT      O78157   3.841   2.559   9.076
25972WAT     H178158   3.878   2.483   9.021
25972WAT     H278159   3.745   2.573   9.052
25973WAT      O78160   5.088   3.468   6.351
25973WAT     H178161   5.013   3.458   6.286
25973WAT     H278162   5.078   3.402   6.426
25974WAT      O78163   0.047   0.860   6.965
25974WAT     H178164   0.058   0.783   6.902
25974WAT     H278165   0.033   0.944   6.913
25975WAT      O78166   7.774   3.283   2.588
25975WAT     H178167   7.822   3.244   2.510
25975WAT     H278168   7.840   3.312   2.657
25976WAT      O78169   6.968   4.884   1.220
25976WAT     H178170   6.950   4.905   1.316
25976WAT     H278171   7.028   4.804   1.215
25977WAT      O78172   1.577   1.724   6.244
25977WAT     H178173   1.520   1.805   6.236
25977WAT     H278174   1.671   1.747   6.219
25978WAT      O78175   9.484   2.070   0.565
25978WAT     H178176   9.557   2.129   0.531
25978WAT     H278177   9.507   1.974   0.545
25979WAT      O78178   5.301   5.670   0.133
25979WAT     H178179   5.270   5.761   0.162
25979WAT     H278180   5.326   5.672   0.037
25980WAT      O78181   3.646   8.259   4.047
25980WAT     H178182   3.730   8.304   4.016
25980WAT     H278183   3.566   8.309   4.013
25981WAT      O78184   7.093   5.914   8.650
25981WAT     H178185   7.003   5.894   8.611
25981WAT     H278186   7.085   5.922   8.750
25982WAT      O78187   6.876   9.847   7.519
25982WAT     H178188   6.814   9.843   7.441
25982WAT     H278189   6.853   9.774   7.584
25983WAT      O78190   7.683   7.831   0.058
25983WAT     H178191   7.674   7.853  -0.039
25983WAT     H278192   7.780   7.829   0.083
25984WAT      O78193   9.642   8.878   1.372
25984WAT     H178194   9.659   8.780   1.361
25984WAT     H278195   9.685   8.928   1.296
25985WAT      O78196   6.119   6.686   4.174
25985WAT     H178197   6.068   6.692   4.260
25985WAT     H278198   6.061   6.715   4.098
25986WAT      O78199   9.818   8.677   5.890
25986WAT     H178200   9.818   8.765   5.843
25986WAT     H278201   9.817   8.603   5.822
25987WAT      O78202   7.375   4.760   1.964
25987WAT     H178203   7.391   4.729   1.870
25987WAT     H278204   7.334   4.851   1.963
25988WAT      O78205   2.460   3.117   3.038
25988WAT     H178206   2.528   3.052   3.071
25988WAT     H278207   2.506   3.201   3.008
25989WAT      O78208   1.299   0.631   8.708
25989WAT     H178209   1.237   0.699   8.747
25989WAT     H278210   1.301   0.550   8.767
25990WAT      O78211   7.676   0.061   4.847
25990WAT     H178212   7.710   0.139   4.794
25990WAT     H278213   7.720   0.060   4.936
25991WAT      O78214   3.202   5.496   6.733
25991WAT     H178215   3.249   5.583   6.752
25991WAT     H278216   3.262   5.436   6.680
25992WAT      O78217   1.601   1.635   5.942
25992WAT     H178218   1.641   1.724   5.921
25992WAT     H278219   1.671   1.576   5.983
25993WAT      O78220   7.692   7.238   3.697
25993WAT     H178221   7.699   7.138   3.698
25993WAT     H278222   7.779   7.278   3.727
25994WAT      O78223   1.739   0.340   2.705
25994WAT     H178224   1.734   0.311   2.800
25994WAT     H278225   1.733   0.440   2.700
25995WAT      O78226   5.280   8.433   0.444
25995WAT     H178227   5.262   8.492   0.365
25995WAT     H278228   5.345   8.362   0.418
25996WAT      O78229   5.084   5.092   5.481
25996WAT     H178230   5.114   4.999   5.504
25996WAT     H278231   5.090   5.150   5.562
25997WAT      O78232   4.014   9.236   2.424
25997WAT     H178233   4.006   9.279   2.514
25997WAT     H278234   4.000   9.138   2.432
25998WAT      O78235   2.570   3.512   1.290
25998WAT     H178236   2.646   3.567   1.325
25998WAT     H278237   2.593   3.415   1.299
25999WAT      O78238   9.428   9.645   6.400
25999WAT     H178239   9.451   9.581   6.473
25999WAT     H278240   9.382   9.725   6.440
26000WAT      O78241   3.970   1.671   3.765
26000WAT     H178242   3.897   1.734   3.791
26000WAT     H278243   4.023   1.647   3.846
26001WAT      O78244   6.960   1.010   6.724
26001WAT     H178245   6.981   0.985   6.629
26001WAT     H278246   6.861   1.011   6.737
26002WAT      O78247   9.410   2.749   3.411
26002WAT     H178248   9.460   2.770   3.328
26002WAT     H278249   9.316   2.782   3.402
26003WAT      O78250   0.629   1.048   6.476
26003WAT     H178251   0.585   1.022   6.562
26003WAT     H278252   0.698   1.118   6.494
26004WAT      O78253   1.756   4.748   3.853
26004WAT     H178254   1.700   4.682   3.903
26004WAT     H278255   1.720   4.760   3.761
26005WAT      O78256   5.305   1.156   5.697
26005WAT     H178257   5.268   1.193   5.781
26005WAT     H278258   5.271   1.063   5.684
26006WAT      O78259   0.378   4.676   5.349
26006WAT     H178260   0.364   4.740   5.273
26006WAT     H278261   0.436   4.718   5.418
26007WAT      O78262   0.719   1.001   5.806
26007WAT     H178263   0.732   1.042   5.896
26007WAT     H278264   0.739   0.904   5.811
26008WAT      O78265   4.521   5.184   0.459
26008WAT     H178266   4.551   5.135   0.377
26008WAT     H278267   4.427   5.158   0.482
26009WAT      O78268   2.209   7.383   5.875
26009WAT     H178269   2.160   7.439   5.809
26009WAT     H278270   2.288   7.434   5.909
26010WAT      O78271   1.764   8.832   3.406
26010WAT     H178272   1.737   8.737   3.418
26010WAT     H278273   1.713   8.889   3.470
26011WAT      O78274   1.383   8.295   7.909
26011WAT     H178275   1.385   8.364   7.837
26011WAT     H278276   1.458   8.231   7.896
26012WAT      O78277   2.670   4.990   8.210
26012WAT     H178278   2.666   4.892   8.193
26012WAT     H278279   2.618   5.012   8.292
26013WAT      O78280   8.736   6.306   3.023
26013WAT     H178281   8.783   6.387   2.989
26013WAT     H278282   8.786   6.224   2.994
26014WAT      O78283   0.587   2.855   4.524
26014WAT     H178284   0.631   2.836   4.436
26014WAT     H278285   0.554   2.770   4.565
26015WAT      O78286   4.226   3.262   7.214
26015WAT     H178287   4.190   3.171   7.193
26015WAT     H278288   4.325   3.256   7.229
26016WAT      O78289   4.847   8.033   3.304
26016WAT     H178290   4.913   7.981   3.251
26016WAT     H278291   4.755   8.017   3.267
26017WAT      O78292   1.574   7.044   7.593
26017WAT     H178293   1.507   7.089   7.652
26017WAT     H278294   1.564   6.945   7.599
26018WAT      O78295   2.581   7.610   7.742
26018WAT     H178296   2.548   7.691   7.792
26018WAT     H278297   2.549   7.614   7.648
26019WAT      O78298   4.144   5.500   1.650
26019WAT     H178299   4.064   5.543   1.691
26019WAT     H278300   4.223   5.511   1.711
26020WAT      O78301   9.229   6.426   1.693
26020WAT     H178302   9.217   6.497   1.763
26020WAT     H278303   9.251   6.339   1.737
26021WAT      O78304   8.620   9.049   1.019
26021WAT     H178305   8.606   9.016   0.926
26021WAT     H278306   8.561   8.998   1.082
26022WAT      O78307   5.044   9.179   0.239
26022WAT     H178308   5.032   9.126   0.155
26022WAT     H278309   5.024   9.120   0.318
26023WAT      O78310   5.456   4.019   9.666
26023WAT     H178311   5.375   4.078   9.666
26023WAT     H278312   5.429   3.926   9.690
26024WAT      O78313   4.413   6.223   6.212
26024WAT     H178314   4.407   6.253   6.307
26024WAT     H278315   4.483   6.278   6.165
26025WAT      O78316   8.371   4.066   4.761
26025WAT     H178317   8.367   4.165   4.749
26025WAT     H278318   8.366   4.044   4.858
26026WAT      O78319   6.031   5.781   2.667
26026WAT     H178320   5.981   5.695   2.680
26026WAT     H278321   6.021   5.838   2.749
26027WAT      O78322   4.527   6.084   4.217
26027WAT     H178323   4.479   6.061   4.302
26027WAT     H278324   4.470   6.060   4.139
26028WAT      O78325   0.814   9.003   8.995
26028WAT     H178326   0.825   8.908   8.968
26028WAT     H278327   0.804   9.060   8.913
26029WAT      O78328   2.852   2.461   4.679
26029WAT     H178329   2.839   2.550   4.635
26029WAT     H278330   2.769   2.435   4.728
26030WAT      O78331   5.489   2.110   4.150
26030WAT     H178332   5.489   2.198   4.198
26030WAT     H278333   5.508   2.037   4.215
26031WAT      O78334   5.182   5.806   3.175
26031WAT     H178335   5.219   5.804   3.268
26031WAT     H278336   5.111   5.735   3.166
26032WAT      O78337   0.901   6.194   2.446
26032WAT     H178338   0.848   6.149   2.375
26032WAT     H278339   0.983   6.140   2.466
26033WAT      O78340   7.238   3.563   9.343
26033WAT     H178341   7.215   3.660   9.336
26033WAT     H278342   7.244   3.524   9.251
26034WAT      O78343   2.670   3.372   2.706
26034WAT     H178344   2.656   3.338   2.799
26034WAT     H278345   2.764   3.402   2.695
26035WAT      O78346   6.010   7.804   7.120
26035WAT     H178347   6.080   7.786   7.051
26035WAT     H278348   5.921   7.777   7.085
26036WAT      O78349   9.798   5.324   5.326
26036WAT     H178350   9.703   5.344   5.303
26036WAT     H278351   9.849   5.409   5.337
26037WAT      O78352   4.881   9.273   9.161
26037WAT     H178353   4.902   9.304   9.254
26037WAT     H278354   4.949   9.206   9.133
26038WAT      O78355   7.841   7.734   7.786
26038WAT     H178356   7.853   7.786   7.701
26038WAT     H278357   7.880   7.643   7.774
26039WAT      O78358   0.412   9.322   2.192
26039WAT     H178359   0.319   9.308   2.227
26039WAT     H278360   0.440   9.240   2.142
26040WAT      O78361   7.394   1.056   1.436
26040WAT     H178362   7.380   1.022   1.529
26040WAT     H278363   7.397   1.156   1.437
26041WAT      O78364   7.356   2.448   0.646
26041WAT     H178365   7.258   2.448   0.625
26041WAT     H278366   7.371   2.410   0.737
26042WAT      O78367   4.499   3.305   6.072
26042WAT     H178368   4.440   3.339   5.999
26042WAT     H278369   4.444   3.254   6.139
26043WAT      O78370   3.870   1.718   2.466
26043WAT     H178371   3.775   1.752   2.466
26043WAT     H278372   3.931   1.793   2.490
26044WAT      O78373   7.931   2.341   7.840
26044WAT     H178374   7.872   2.274   7.795
26044WAT     H278375   7.996   2.294   7.900
26045WAT      O78376   0.631   8.123   3.098
26045WAT     H178377   0.610   8.050   3.034
26045WAT     H278378   0.577   8.204   3.075
26046WAT      O78379   9.497   2.847   3.658
26046WAT     H178380   9.594   2.860   3.678
26046WAT     H278381   9.486   2.818   3.563
26047WAT      O78382   2.036   6.351   4.314
26047WAT     H178383   1.944   6.349   4.354
26047WAT     H278384   2.079   6.439   4.334
26048WAT      O78385   7.229   5.836   9.273
26048WAT     H178386   7.146   5.888   9.260
26048WAT     H278387   7.212   5.739   9.252
26049WAT      O78388   7.869   5.219   9.072
26049WAT     H178389   7.844   5.238   9.167
26049WAT     H278390   7.967   5.233   9.060
26050WAT      O78391   6.120   0.688   7.894
26050WAT     H178392   6.043   0.744   7.864
26050WAT     H278393   6.195   0.747   7.922
26051WAT      O78394   9.555   7.610   7.214
26051WAT     H178395   9.654   7.604   7.217
26051WAT     H278396   9.516   7.520   7.194
26052WAT      O78397   0.504   7.566   8.975
26052WAT     H178398   0.523   7.497   9.045
26052WAT     H278399   0.424   7.538   8.922
26053WAT      O78400   3.623   1.621   6.667
26053WAT     H178401   3.638   1.610   6.765
26053WAT     H278402   3.569   1.704   6.650
26054WAT      O78403   4.850   6.689   7.030
26054WAT     H178404   4.777   6.673   6.964
26054WAT     H278405   4.934   6.645   6.997
26055WAT      O78406   1.583   0.528   8.719
26055WAT     H178407   1.557   0.622   8.698
26055WAT     H278408   1.525   0.465   8.667
26056WAT      O78409   0.178   1.010   0.376
26056WAT     H178410   0.268   1.052   0.388
26056WAT     H278411   0.179   0.917   0.413
26057WAT      O78412   3.557   3.545   2.906
26057WAT     H178413   3.582   3.635   2.868
26057WAT     H278414   3.553   3.551   3.005
26058WAT      O78415   7.127   8.137   8.905
26058WAT     H178416   7.142   8.124   9.003
26058WAT     H278417   7.042   8.188   8.891
26059WAT      O78418   0.859   0.694   3.525
26059WAT     H178419   0.896   0.667   3.436
26059WAT     H278420   0.863   0.794   3.534
26060WAT      O78421   6.431   3.001   8.267
26060WAT     H178422   6.431   3.046   8.357
26060WAT     H278423   6.403   3.067   8.197
26061WAT      O78424   7.909   4.069   7.405
26061WAT     H178425   7.981   4.133   7.377
26061WAT     H278426   7.828   4.120   7.432
26062WAT      O78427   3.325   1.253   0.151
26062WAT     H178428   3.415   1.262   0.108
26062WAT     H278429   3.331   1.192   0.229
26063WAT      O78430   3.579   6.816   0.097
26063WAT     H178431   3.563   6.786   0.003
26063WAT     H278432   3.573   6.916   0.101
26064WAT      O78433   2.145   8.335   1.859
26064WAT     H178434   2.076   8.405   1.881
26064WAT     H278435   2.187   8.358   1.771
26065WAT      O78436   7.358   7.042   3.042
26065WAT     H178437   7.403   7.086   2.964
26065WAT     H278438   7.420   7.042   3.120
26066WAT      O78439   9.866   4.636   7.370
26066WAT     H178440   9.891   4.655   7.465
26066WAT     H278441   9.885   4.718   7.314
26067WAT      O78442   6.564   8.539   0.052
26067WAT     H178443   6.652   8.508   0.088
26067WAT     H278444   6.491   8.476   0.081
26068WAT      O78445   0.290   3.433   2.086
26068WAT     H178446   0.262   3.362   2.020
26068WAT     H278447   0.343   3.503   2.039
26069WAT      O78448   9.338   4.362   7.074
26069WAT     H178449   9.340   4.269   7.037
26069WAT     H278450   9.275   4.418   7.021
26070WAT      O78451   8.421   0.362   2.611
26070WAT     H178452   8.412   0.337   2.707
26070WAT     H278453   8.505   0.416   2.598
26071WAT      O78454   4.933   1.018   5.033
26071WAT     H178455   4.875   0.936   5.027
26071WAT     H278456   4.882   1.097   4.998
26072WAT      O78457   8.954   5.245   1.915
26072WAT     H178458   8.884   5.309   1.946
26072WAT     H278459   9.006   5.210   1.994
26073WAT      O78460   6.017   1.150   8.387
26073WAT     H178461   5.918   1.143   8.375
26073WAT     H278462   6.053   1.062   8.419
26074WAT      O78463   1.352   4.804   6.109
26074WAT     H178464   1.276   4.868   6.090
26074WAT     H278465   1.322   4.736   6.176
26075WAT      O78466   2.624   5.436   3.942
26075WAT     H178467   2.620   5.370   4.018
26075WAT     H278468   2.716   5.439   3.905
26076WAT      O78469   1.543   7.133   1.407
26076WAT     H178470   1.631   7.146   1.452
26076WAT     H278471   1.541   7.042   1.366
26077WAT      O78472   9.267   9.801   1.054
26077WAT     H178473   9.342   9.755   1.007
26077WAT     H278474   9.297   9.828   1.145
26078WAT      O78475   4.570   6.894   3.764
26078WAT     H178476   4.609   6.817   3.814
26078WAT     H278477   4.477   6.873   3.737
26079WAT      O78478   8.652   0.965   5.665
26079WAT     H178479   8.666   1.063   5.677
26079WAT     H278480   8.622   0.948   5.571
26080WAT      O78481   3.883   8.439   5.683
26080WAT     H178482   3.843   8.530   5.672
26080WAT     H278483   3.935   8.416   5.601
26081WAT      O78484   4.921   1.668   3.108
26081WAT     H178485   4.956   1.750   3.154
26081WAT     H278486   4.854   1.623   3.167
26082WAT      O78487   8.471   1.731   3.686
26082WAT     H178488   8.519   1.757   3.602
26082WAT     H278489   8.494   1.795   3.759
26083WAT      O78490   2.748   6.343   2.095
26083WAT     H178491   2.696   6.257   2.100
26083WAT     H278492   2.730   6.398   2.177
26084WAT      O78493   2.475   9.324   5.600
26084WAT     H178494   2.405   9.326   5.671
26084WAT     H278495   2.504   9.230   5.583
26085WAT      O78496   2.459   3.501   9.884
26085WAT     H178497   2.466   3.423   9.822
26085WAT     H278498   2.533   3.566   9.866
26086WAT      O78499   1.066   5.660   8.084
26086WAT     H178500   0.976   5.616   8.088
26086WAT     H278501   1.128   5.614   8.148
26087WAT      O78502   4.656   6.520   4.195
26087WAT     H178503   4.727   6.479   4.136
26087WAT     H278504   4.688   6.521   4.289
26088WAT      O78505   7.433   6.778   6.433
26088WAT     H178506   7.520   6.732   6.413
26088WAT     H278507   7.360   6.710   6.440
26089WAT      O78508   8.620   4.450   2.777
26089WAT     H178509   8.521   4.459   2.767
26089WAT     H278510   8.643   4.435   2.873
26090WAT      O78511   1.983   0.661   7.241
26090WAT     H178512   2.077   0.630   7.226
26090WAT     H278513   1.948   0.620   7.325
26091WAT      O78514   9.727   8.720   0.731
26091WAT     H178515   9.729   8.646   0.799
26091WAT     H278516   9.736   8.808   0.777
26092WAT      O78517   3.429   0.710   1.762
26092WAT     H178518   3.489   0.635   1.790
26092WAT     H278519   3.435   0.723   1.663
26093WAT      O78520   8.682   8.977   7.345
26093WAT     H178521   8.748   9.052   7.343
26093WAT     H278522   8.696   8.923   7.428
26094WAT      O78523   2.610   0.503   5.755
26094WAT     H178524   2.666   0.526   5.835
26094WAT     H278525   2.531   0.450   5.785
26095WAT      O78526   8.974   8.244   9.806
26095WAT     H178527   8.956   8.175   9.735
26095WAT     H278528   8.966   8.336   9.766
26096WAT      O78529   4.052   0.277   2.750
26096WAT     H178530   3.981   0.325   2.699
26096WAT     H278531   4.110   0.344   2.798
26097WAT      O78532   7.898   5.761   3.940
26097WAT     H178533   7.861   5.806   3.859
26097WAT     H278534   7.946   5.829   3.996
26098WAT      O78535   6.047   3.365   0.191
26098WAT     H178536   6.011   3.338   0.281
26098WAT     H278537   6.129   3.421   0.204
26099WAT      O78538   5.908   0.325   4.050
26099WAT     H178539   5.984   0.307   4.113
26099WAT     H278540   5.834   0.260   4.068
26100WAT      O78541   7.158   9.055   0.561
26100WAT     H178542   7.084   8.999   0.599
26100WAT     H278543   7.171   9.033   0.464
26101WAT      O78544   4.049   9.110   4.001
26101WAT     H178545   3.976   9.099   4.068
26101WAT     H278546   4.012   9.150   3.917
26102WAT      O78547   7.460   8.458   4.951
26102WAT     H178548   7.496   8.365   4.951
26102WAT     H278549   7.367   8.457   4.988
26103WAT      O78550   7.252   8.417   0.465
26103WAT     H178551   7.219   8.445   0.374
26103WAT     H278552   7.304   8.332   0.457
26104WAT      O78553   4.943   3.030   0.563
26104WAT     H178554   4.906   3.117   0.532
26104WAT     H278555   4.967   3.036   0.660
26105WAT      O78556   2.302   8.956   5.407
26105WAT     H178557   2.204   8.935   5.413
26105WAT     H278558   2.324   8.981   5.313
26106WAT      O78559   6.464   8.092   5.635
26106WAT     H178560   6.457   8.156   5.711
26106WAT     H278561   6.489   8.141   5.552
26107WAT      O78562   2.110   4.413   5.619
26107WAT     H178563   2.126   4.482   5.549
26107WAT     H278564   2.013   4.409   5.641
26108WAT      O78565   7.141   8.415   8.298
26108WAT     H178566   7.089   8.471   8.234
26108WAT     H278567   7.206   8.473   8.348
26109WAT      O78568   5.934   6.368   8.841
26109WAT     H178569   5.978   6.316   8.768
26109WAT     H278570   5.925   6.311   8.922
26110WAT      O78571   9.542   2.701   1.523
26110WAT     H178572   9.602   2.759   1.468
26110WAT     H278573   9.597   2.631   1.569
26111WAT      O78574   5.364   6.299   4.868
26111WAT     H178575   5.395   6.347   4.786
26111WAT     H278576   5.295   6.354   4.914
26112WAT      O78577   7.222   8.926   0.118
26112WAT     H178578   7.252   8.935   0.213
26112WAT     H278579   7.207   9.016   0.079
26113WAT      O78580   0.699   1.437   5.186
26113WAT     H178581   0.704   1.428   5.286
26113WAT     H278582   0.785   1.408   5.146
26114WAT      O78583   5.191   4.606   7.084
26114WAT     H178584   5.285   4.610   7.116
26114WAT     H278585   5.132   4.655   7.148
26115WAT      O78586   9.418   5.191   9.080
26115WAT     H178587   9.336   5.212   9.134
26115WAT     H278588   9.477   5.271   9.077
26116WAT      O78589   9.863   1.485   7.400
26116WAT     H178590   9.912   1.399   7.382
26116WAT     H278591   9.816   1.479   7.488
26117WAT      O78592   8.260   9.440   6.223
26117WAT     H178593   8.346   9.488   6.205
26117WAT     H278594   8.242   9.375   6.149
26118WAT      O78595   5.410   4.731   5.090
26118WAT     H178596   5.436   4.704   5.182
26118WAT     H278597   5.490   4.767   5.042
26119WAT      O78598   8.687   7.793   4.617
26119WAT     H178599   8.689   7.809   4.715
26119WAT     H278600   8.732   7.869   4.570
26120WAT      O78601   8.780   9.346   3.247
26120WAT     H178602   8.823   9.404   3.317
26120WAT     H278603   8.747   9.262   3.290
26121WAT      O78604   0.988   3.282   8.481
26121WAT     H178605   1.074   3.259   8.437
26121WAT     H278606   0.913   3.233   8.436
26122WAT      O78607   6.086   5.895   5.505
26122WAT     H178608   6.095   5.916   5.603
26122WAT     H278609   6.077   5.797   5.493
26123WAT      O78610   7.999   8.787   3.487
26123WAT     H178611   7.902   8.814   3.489
26123WAT     H278612   8.008   8.700   3.440
26124WAT      O78613   2.677   3.234   1.337
26124WAT     H178614   2.674   3.136   1.317
26124WAT     H278615   2.726   3.249   1.423
26125WAT      O78616   8.971   8.703   7.371
26125WAT     H178617   9.027   8.625   7.347
26125WAT     H278618   8.991   8.779   7.309
26126WAT      O78619   1.726   4.213   9.544
26126WAT     H178620   1.727   4.126   9.493
26126WAT     H278621   1.757   4.287   9.483
26127WAT      O78622   5.057   3.407   4.725
26127WAT     H178623   5.106   3.326   4.693
26127WAT     H278624   5.093   3.488   4.679
26128WAT      O78625   7.044   5.883   0.639
26128WAT     H178626   6.961   5.860   0.587
26128WAT     H278627   7.059   5.982   0.635
26129WAT      O78628   8.891   6.640   2.303
26129WAT     H178629   8.897   6.543   2.277
26129WAT     H278630   8.878   6.695   2.220
26130WAT      O78631   0.987   8.686   9.106
26130WAT     H178632   0.961   8.739   9.025
26130WAT     H278633   1.079   8.649   9.093
26131WAT      O78634   2.597   7.084   8.390
26131WAT     H178635   2.660   7.013   8.359
26131WAT     H278636   2.511   7.077   8.339
26132WAT      O78637   7.651   0.201   5.529
26132WAT     H178638   7.584   0.186   5.457
26132WAT     H278639   7.722   0.131   5.524
26133WAT      O78640   5.262   0.149   1.457
26133WAT     H178641   5.255   0.175   1.553
26133WAT     H278642   5.250   0.050   1.447
26134WAT      O78643   2.809   2.011   2.056
26134WAT     H178644   2.805   2.002   1.956
26134WAT     H278645   2.813   1.921   2.098
26135WAT      O78646   0.183   8.048   5.397
26135WAT     H178647   0.273   8.005   5.401
26135WAT     H278648   0.137   8.020   5.313
26136WAT      O78649   2.201   2.156   0.578
26136WAT     H178650   2.248   2.107   0.505
26136WAT     H278651   2.259   2.233   0.608
26137WAT      O78652   7.059   1.631   2.237
26137WAT     H178653   6.963   1.614   2.212
26137WAT     H278654   7.073   1.729   2.246
26138WAT      O78655   6.377   0.578   0.802
26138WAT     H178656   6.378   0.581   0.702
26138WAT     H278657   6.310   0.511   0.832
26139WAT      O78658   0.384   5.413   0.554
26139WAT     H178659   0.378   5.347   0.629
26139WAT     H278660   0.468   5.396   0.502
26140WAT      O78661   3.762   4.529   0.347
26140WAT     H178662   3.831   4.592   0.383
26140WAT     H278663   3.704   4.497   0.421
26141WAT      O78664   4.205   5.753   7.846
26141WAT     H178665   4.140   5.828   7.848
26141WAT     H278666   4.171   5.681   7.785
26142WAT      O78667   6.899   7.023   1.881
26142WAT     H178668   6.954   7.080   1.820
26142WAT     H278669   6.807   7.063   1.889
26143WAT      O78670   8.156   6.816   8.045
26143WAT     H178671   8.229   6.750   8.064
26143WAT     H278672   8.154   6.836   7.947
26144WAT      O78673   8.827   1.010   0.825
26144WAT     H178674   8.917   1.001   0.781
26144WAT     H278675   8.770   1.073   0.773
26145WAT      O78676   6.955   0.801   4.431
26145WAT     H178677   7.024   0.780   4.363
26145WAT     H278678   6.995   0.857   4.504
26146WAT      O78679   3.756   4.724   5.901
26146WAT     H178680   3.780   4.741   5.996
26146WAT     H278681   3.690   4.649   5.896
26147WAT      O78682   7.413   0.612   6.618
26147WAT     H178683   7.430   0.514   6.633
26147WAT     H278684   7.399   0.628   6.520
26148WAT      O78685   8.414   8.857   2.397
26148WAT     H178686   8.504   8.813   2.393
26148WAT     H278687   8.425   8.950   2.433
26149WAT      O78688   4.284   3.161   4.672
26149WAT     H178689   4.188   3.159   4.644
26149WAT     H278690   4.288   3.172   4.772
26150WAT      O78691   0.034   2.803   1.081
26150WAT     H178692   0.047   2.892   1.124
26150WAT     H278693   0.103   2.790   1.009
26151WAT      O78694   2.762   5.892   6.437
26151WAT     H178695   2.698   5.818   6.461
26151WAT     H278696   2.806   5.870   6.350
26152WAT      O78697   2.834   0.460   9.027
26152WAT     H178698   2.851   0.463   9.126
26152WAT     H278699   2.887   0.386   8.986
26153WAT      O78700   0.977   9.386   1.738
26153WAT     H178701   1.028   9.307   1.702
26153WAT     H278702   0.886   9.357   1.767
26154WAT      O78703   4.531   3.573   5.206
26154WAT     H178704   4.480   3.641   5.259
26154WAT     H278705   4.484   3.485   5.211
26155WAT      O78706   7.881   6.775   5.297
26155WAT     H178707   7.876   6.818   5.206
26155WAT     H278708   7.889   6.676   5.286
26156WAT      O78709   0.497   5.910   8.991
26156WAT     H178710   0.478   6.008   8.991
26156WAT     H278711   0.586   5.893   8.949
26157WAT      O78712   3.078   6.199   1.613
26157WAT     H178713   3.079   6.272   1.682
26157WAT     H278714   3.129   6.229   1.532
26158WAT      O78715   3.579   9.282   1.251
26158WAT     H178716   3.572   9.294   1.350
26158WAT     H278717   3.588   9.185   1.230
26159WAT      O78718   5.264   2.501   4.841
26159WAT     H178719   5.239   2.404   4.848
26159WAT     H278720   5.291   2.535   4.931
26160WAT      O78721   0.495   7.818   1.105
26160WAT     H178722   0.454   7.788   1.191
26160WAT     H278723   0.549   7.744   1.066
26161WAT      O78724   9.583   6.111   4.560
26161WAT     H178725   9.575   6.193   4.617
26161WAT     H278726   9.674   6.070   4.574
26162WAT      O78727   2.201   1.269   1.787
26162WAT     H178728   2.176   1.337   1.719
26162WAT     H278729   2.298   1.279   1.811
26163WAT      O78730   1.943   3.756   9.297
26163WAT     H178731   1.873   3.767   9.227
26163WAT     H278732   1.976   3.661   9.297
26164WAT      O78733   5.840   1.240   5.090
26164WAT     H178734   5.741   1.254   5.089
26164WAT     H278735   5.875   1.254   5.182
26165WAT      O78736   2.157   7.974   5.932
26165WAT     H178737   2.217   8.054   5.935
26165WAT     H278738   2.081   7.987   5.996
26166WAT      O78739   2.448   7.138   7.343
26166WAT     H178740   2.370   7.156   7.404
26166WAT     H278741   2.533   7.160   7.391
26167WAT      O78742   8.640   3.404   9.528
26167WAT     H178743   8.623   3.476   9.595
26167WAT     H278744   8.588   3.424   9.445
26168WAT      O78745   9.811   6.301   6.009
26168WAT     H178746   9.781   6.388   6.049
26168WAT     H278747   9.779   6.226   6.065
26169WAT      O78748   0.107   7.221   2.787
26169WAT     H178749   0.119   7.181   2.696
26169WAT     H278750   0.131   7.153   2.857
26170WAT      O78751   0.253   7.297   4.420
26170WAT     H178752   0.156   7.273   4.408
26170WAT     H278753   0.310   7.217   4.401
26171WAT      O78754   7.985   3.632   9.491
26171WAT     H178755   7.913   3.564   9.473
26171WAT     H278756   8.075   3.587   9.486
26172WAT      O78757   6.326   5.792   0.411
26172WAT     H178758   6.236   5.835   0.415
26172WAT     H278759   6.316   5.696   0.387
26173WAT      O78760   3.590   1.272   2.534
26173WAT     H178761   3.684   1.237   2.544
26173WAT     H278762   3.582   1.360   2.581
26174WAT      O78763   1.863   7.484   1.049
26174WAT     H178764   1.862   7.456   0.953
26174WAT     H278765   1.823   7.412   1.105
26175WAT      O78766   2.308   6.008   6.657
26175WAT     H178767   2.364   6.045   6.583
26175WAT     H278768   2.213   6.002   6.628
26176WAT      O78769   3.316   5.373   0.614
26176WAT     H178770   3.408   5.363   0.575
26176WAT     H278771   3.289   5.286   0.656
26177WAT      O78772   0.786   8.315   2.542
26177WAT     H178773   0.792   8.218   2.518
26177WAT     H278774   0.827   8.330   2.631
26178WAT      O78775   7.735   9.627   3.214
26178WAT     H178776   7.659   9.690   3.233
26178WAT     H278777   7.699   9.537   3.191
26179WAT      O78778   5.203   9.565   9.686
26179WAT     H178779   5.268   9.500   9.725
26179WAT     H278780   5.190   9.641   9.749
26180WAT      O78781   4.522   3.483   1.204
26180WAT     H178782   4.532   3.456   1.108
26180WAT     H278783   4.612   3.494   1.246
26181WAT      O78784   9.289   3.682   8.446
26181WAT     H178785   9.216   3.736   8.487
26181WAT     H278786   9.377   3.708   8.487
26182WAT      O78787   7.350   7.464   5.709
26182WAT     H178788   7.282   7.391   5.699
26182WAT     H278789   7.442   7.425   5.700
26183WAT      O78790   4.233   2.329   8.255
26183WAT     H178791   4.166   2.279   8.200
26183WAT     H278792   4.226   2.302   8.351
26184WAT      O78793   3.736   4.401   5.619
26184WAT     H178794   3.680   4.481   5.600
26184WAT     H278795   3.678   4.325   5.647
26185WAT      O78796   8.703   7.588   2.179
26185WAT     H178797   8.695   7.663   2.113
26185WAT     H278798   8.667   7.504   2.139
26186WAT      O78799   9.437   4.552   6.758
26186WAT     H178800   9.518   4.529   6.705
26186WAT     H278801   9.460   4.622   6.825
26187WAT      O78802   9.860   9.718   0.061
26187WAT     H178803   9.905   9.757   0.141
26187WAT     H278804   9.922   9.721  -0.017
26188WAT      O78805   7.085   4.174   6.496
26188WAT     H178806   7.042   4.172   6.586
26188WAT     H278807   7.172   4.223   6.502
26189WAT      O78808   6.587   9.089   6.437
26189WAT     H178809   6.669   9.072   6.492
26189WAT     H278810   6.509   9.043   6.479
26190WAT      O78811   7.053   0.267   5.004
26190WAT     H178812   7.035   0.345   5.064
26190WAT     H278813   7.034   0.182   5.053
26191WAT      O78814   1.229   9.013   9.221
26191WAT     H178815   1.276   9.011   9.133
26191WAT     H278816   1.240   8.925   9.267
26192WAT      O78817   5.921   6.172   0.418
26192WAT     H178818   5.942   6.227   0.499
26192WAT     H278819   5.838   6.119   0.434
26193WAT      O78820   9.502   4.585   7.545
26193WAT     H178821   9.411   4.588   7.504
26193WAT     H278822   9.568   4.553   7.477
26194WAT      O78823   8.826   9.551   8.291
26194WAT     H178824   8.836   9.470   8.233
26194WAT     H278825   8.891   9.621   8.262
26195WAT      O78826   8.645   4.913   1.623
26195WAT     H178827   8.686   4.892   1.534
26195WAT     H278828   8.666   4.841   1.688
26196WAT      O78829   8.447   2.909   2.188
26196WAT     H178830   8.516   2.849   2.148
26196WAT     H278831   8.430   2.986   2.127
26197WAT      O78832   8.884   3.646   2.837
26197WAT     H178833   8.787   3.621   2.846
26197WAT     H278834   8.909   3.710   2.909
26198WAT      O78835   5.809   8.605   1.130
26198WAT     H178836   5.786   8.510   1.110
26198WAT     H278837   5.725   8.655   1.152
26199WAT      O78838   9.325   0.297   3.916
26199WAT     H178839   9.253   0.228   3.922
26199WAT     H278840   9.300   0.377   3.970
26200WAT      O78841   8.443   7.389   0.476
26200WAT     H178842   8.403   7.439   0.399
26200WAT     H278843   8.489   7.452   0.537
26201WAT      O78844   0.767   4.638   6.189
26201WAT     H178845   0.686   4.691   6.214
26201WAT     H278846   0.843   4.662   6.251
26202WAT      O78847   7.148   2.308   3.947
26202WAT     H178848   7.225   2.304   4.010
26202WAT     H278849   7.139   2.401   3.911
26203WAT      O78850   1.606   8.119   0.138
26203WAT     H178851   1.528   8.097   0.079
26203WAT     H278852   1.680   8.054   0.121
26204WAT      O78853   4.605   4.373   0.122
26204WAT     H178854   4.604   4.318   0.205
26204WAT     H278855   4.630   4.316   0.044
26205WAT      O78856   5.942   6.584   9.016
26205WAT     H178857   5.850   6.572   9.053
26205WAT     H278858   5.970   6.500   8.970
26206WAT      O78859   9.525   0.825   0.185
26206WAT     H178860   9.430   0.854   0.182
26206WAT     H278861   9.579   0.880   0.122
26207WAT      O78862   3.225   7.011   1.973
26207WAT     H178863   3.263   6.948   2.041
26207WAT     H278864   3.255   7.104   1.994
26208WAT      O78865   7.517   6.688   8.846
26208WAT     H178866   7.616   6.676   8.848
26208WAT     H278867   7.495   6.785   8.854
26209WAT      O78868   8.427   3.126   2.006
26209WAT     H178869   8.408   3.211   1.956
26209WAT     H278870   8.505   3.079   1.964
26210WAT      O78871   4.246   7.021   5.507
26210WAT     H178872   4.270   6.949   5.573
26210WAT     H278873   4.298   7.104   5.529
26211WAT      O78874   3.861   5.896   5.463
26211WAT     H178875   3.910   5.813   5.439
26211WAT     H278876   3.884   5.969   5.398
26212WAT      O78877   9.384   3.258   2.202
26212WAT     H178878   9.394   3.208   2.288
26212WAT     H278879   9.463   3.239   2.143
26213WAT      O78880   7.012   8.170   0.478
26213WAT     H178881   7.019   8.239   0.551
26213WAT     H278882   7.000   8.080   0.520
26214WAT      O78883   2.024   7.717   1.905
26214WAT     H178884   1.990   7.674   1.989
26214WAT     H278885   2.114   7.757   1.923
26215WAT      O78886   8.828   2.084   2.936
26215WAT     H178887   8.776   2.063   3.018
26215WAT     H278888   8.922   2.051   2.946
26216WAT      O78889   7.512   0.146   0.673
26216WAT     H178890   7.590   0.109   0.723
26216WAT     H278891   7.476   0.226   0.721
26217WAT      O78892   8.920   0.111   0.175
26217WAT     H178893   8.863   0.185   0.138
26217WAT     H278894   8.872   0.068   0.252
26218WAT      O78895   3.055   5.138   5.942
26218WAT     H178896   3.124   5.098   5.882
26218WAT     H278897   3.023   5.069   6.007
26219WAT      O78898   2.430   8.558   6.394
26219WAT     H178899   2.340   8.517   6.380
26219WAT     H278900   2.492   8.527   6.321
26220WAT      O78901   5.834   1.701   6.512
26220WAT     H178902   5.929   1.694   6.482
26220WAT     H278903   5.832   1.712   6.612
26221WAT      O78904   1.573   3.994   8.537
26221WAT     H178905   1.497   4.027   8.592
26221WAT     H278906   1.555   3.900   8.507
26222WAT      O78907   1.768   1.609   9.456
26222WAT     H178908   1.844   1.672   9.436
26222WAT     H278909   1.761   1.541   9.384
26223WAT      O78910   0.087   8.660   2.265
26223WAT     H178911   0.012   8.640   2.202
26223WAT     H278912   0.050   8.696   2.350
26224WAT      O78913   4.467   7.844   7.516
26224WAT     H178914   4.555   7.803   7.539
26224WAT     H278915   4.477   7.944   7.513
26225WAT      O78916   2.685   5.236   4.143
26225WAT     H178917   2.708   5.291   4.222
26225WAT     H278918   2.759   5.171   4.124
26226WAT      O78919   1.544   3.003   3.140
26226WAT     H178920   1.448   2.993   3.166
26226WAT     H278921   1.598   3.028   3.221
26227WAT      O78922   3.888   1.182   4.811
26227WAT     H178923   3.827   1.260   4.801
26227WAT     H278924   3.848   1.102   4.766
26228WAT      O78925   8.179   9.429   5.693
26228WAT     H178926   8.122   9.379   5.627
26228WAT     H278927   8.153   9.525   5.693
26229WAT      O78928   1.773   6.582   9.610
26229WAT     H178929   1.756   6.608   9.705
26229WAT     H278930   1.782   6.665   9.554
26230WAT      O78931   0.778   5.681   1.626
26230WAT     H178932   0.776   5.606   1.560
26230WAT     H278933   0.732   5.761   1.588
26231WAT      O78934   3.593   6.898   7.379
26231WAT     H178935   3.580   6.799   7.374
26231WAT     H278936   3.682   6.918   7.420
26232WAT      O78937   6.256   6.145   5.132
26232WAT     H178938   6.199   6.134   5.213
26232WAT     H278939   6.267   6.242   5.111
26233WAT      O78940   7.394   9.171   8.802
26233WAT     H178941   7.458   9.174   8.726
26233WAT     H278942   7.304   9.202   8.772
26234WAT      O78943   1.055   5.831   4.042
26234WAT     H178944   1.018   5.788   4.125
26234WAT     H278945   1.067   5.761   3.972
26235WAT      O78946   5.725   5.434   3.003
26235WAT     H178947   5.691   5.342   2.987
26235WAT     H278948   5.675   5.499   2.945
26236WAT      O78949   8.821   7.843   0.040
26236WAT     H178950   8.852   7.889   0.123
26236WAT     H278951   8.769   7.908  -0.016
26237WAT      O78952   6.873   7.897   4.405
26237WAT     H178953   6.861   7.963   4.479
26237WAT     H278954   6.818   7.925   4.327
26238WAT      O78955   0.387   0.414   7.294
26238WAT     H178956   0.448   0.335   7.306
26238WAT     H278957   0.432   0.481   7.234
26239WAT      O78958   2.747   4.208   7.911
26239WAT     H178959   2.754   4.308   7.920
26239WAT     H278960   2.779   4.165   7.995
26240WAT      O78961   8.231   9.191   9.188
26240WAT     H178962   8.240   9.231   9.097
26240WAT     H278963   8.138   9.157   9.200
26241WAT      O78964   4.611   0.351   8.745
26241WAT     H178965   4.662   0.424   8.791
26241WAT     H278966   4.648   0.262   8.774
26242WAT      O78967   2.887   1.852   1.157
26242WAT     H178968   2.851   1.835   1.248
26242WAT     H278969   2.939   1.938   1.157
26243WAT      O78970   9.426   1.687   1.316
26243WAT     H178971   9.331   1.715   1.326
26243WAT     H278972   9.442   1.603   1.367
26244WAT      O78973   5.710   4.549   2.466
26244WAT     H178974   5.699   4.526   2.563
26244WAT     H278975   5.698   4.467   2.411
26245WAT      O78976   5.619   9.365   8.134
26245WAT     H178977   5.618   9.268   8.159
26245WAT     H278978   5.685   9.380   8.061
26246WAT      O78979   4.205   1.372   1.944
26246WAT     H178980   4.125   1.341   1.997
26246WAT     H278981   4.174   1.411   1.857
26247WAT      O78982   9.171   6.605   8.431
26247WAT     H178983   9.147   6.539   8.502
26247WAT     H278984   9.119   6.586   8.348
26248WAT      O78985   5.589   2.556   9.823
26248WAT     H178986   5.598   2.486   9.752
26248WAT     H278987   5.668   2.618   9.820
26249WAT      O78988   6.954   1.458   8.960
26249WAT     H178989   6.983   1.365   8.981
26249WAT     H278990   7.012   1.522   9.010
26250WAT      O78991   4.102   1.674   7.950
26250WAT     H178992   4.104   1.593   7.892
26250WAT     H278993   4.174   1.737   7.922
26251WAT      O78994   9.223   3.828   1.792
26251WAT     H178995   9.219   3.912   1.738
26251WAT     H278996   9.308   3.826   1.844
26252WAT      O78997   3.976   3.494   7.564
26252WAT     H178998   4.052   3.553   7.591
26252WAT     H278999   3.985   3.471   7.467
26253WAT      O79000   5.956   1.878   1.381
26253WAT     H179001   6.040   1.877   1.327
26253WAT     H279002   5.894   1.948   1.345
26254WAT      O79003   4.562   0.585   7.462
26254WAT     H179004   4.539   0.610   7.368
26254WAT     H279005   4.636   0.644   7.494
26255WAT      O79006   8.551   7.530   5.734
26255WAT     H179007   8.583   7.445   5.691
26255WAT     H279008   8.605   7.606   5.699
26256WAT      O79009   9.507   7.766   2.506
26256WAT     H179010   9.481   7.739   2.413
26256WAT     H279011   9.475   7.697   2.571
26257WAT      O79012   8.283   1.051   2.616
26257WAT     H179013   8.185   1.032   2.612
26257WAT     H279014   8.299   1.148   2.596
26258WAT      O79015   2.289   0.583   5.908
26258WAT     H179016   2.217   0.648   5.884
26258WAT     H279017   2.373   0.632   5.929
26259WAT      O79018   1.874   8.309   5.579
26259WAT     H179019   1.842   8.281   5.669
26259WAT     H279020   1.945   8.379   5.590
26260WAT      O79021   2.703   1.753   6.400
26260WAT     H179022   2.796   1.758   6.436
26260WAT     H279023   2.705   1.730   6.303
26261WAT      O79024   0.956   9.312   4.352
26261WAT     H179025   0.992   9.391   4.402
26261WAT     H279026   0.946   9.235   4.415
26262WAT      O79027   7.708   6.979   3.539
26262WAT     H179028   7.611   6.971   3.563
26262WAT     H279029   7.764   6.955   3.618
26263WAT      O79030   6.511   0.995   0.310
26263WAT     H179031   6.494   0.952   0.399
26263WAT     H279032   6.605   0.976   0.282
26264WAT      O79033   7.520   9.468   2.788
26264WAT     H179034   7.466   9.526   2.849
26264WAT     H279035   7.591   9.524   2.745
26265WAT      O79036   1.775   5.306   3.560
26265WAT     H179037   1.870   5.327   3.539
26265WAT     H279038   1.769   5.212   3.594
26266WAT      O79039   9.774   1.865   5.186
26266WAT     H179040   9.791   1.774   5.223
26266WAT     H279041   9.745   1.857   5.090
26267WAT      O79042   5.628   7.495   6.987
26267WAT     H179043   5.662   7.429   6.920
26267WAT     H279044   5.638   7.457   7.079
26268WAT      O79045   4.256   7.048   8.965
26268WAT     H179046   4.329   7.106   9.001
26268WAT     H279047   4.168   7.091   8.981
26269WAT      O79048   1.216   8.500   4.677
26269WAT     H179049   1.119   8.524   4.680
26269WAT     H279050   1.247   8.472   4.768
26270WAT      O79051   3.463   8.806   6.644
26270WAT     H179052   3.372   8.825   6.608
26270WAT     H279053   3.484   8.871   6.717
26271WAT      O79054   7.121   5.634   4.082
26271WAT     H179055   7.040   5.593   4.123
26271WAT     H279056   7.133   5.599   3.989
26272WAT      O79057   4.161   7.079   4.855
26272WAT     H179058   4.119   6.991   4.876
26272WAT     H279059   4.126   7.112   4.767
26273WAT      O79060   5.658   6.567   6.462
26273WAT     H179061   5.616   6.610   6.382
26273WAT     H279062   5.625   6.473   6.471
26274WAT      O79063   1.125   3.322   4.894
26274WAT     H179064   1.030   3.309   4.922
26274WAT     H279065   1.145   3.263   4.815
26275WAT      O79066   8.023   8.133   4.618
26275WAT     H179067   7.997   8.229   4.625
26275WAT     H279068   8.048   8.111   4.523
26276WAT      O79069   0.774   0.242   4.757
26276WAT     H179070   0.808   0.304   4.828
26276WAT     H279071   0.681   0.268   4.732
26277WAT      O79072   5.759   4.096   0.414
26277WAT     H179073   5.808   4.093   0.502
26277WAT     H279074   5.752   4.003   0.377
26278WAT      O79075   0.312   2.006   3.701
26278WAT     H179076   0.300   2.067   3.779
26278WAT     H279077   0.332   2.059   3.619
26279WAT      O79078   0.636   6.505   1.639
26279WAT     H179079   0.622   6.604   1.651
26279WAT     H279080   0.623   6.459   1.727
26280WAT      O79081   6.201   8.241   1.919
26280WAT     H179082   6.218   8.336   1.893
26280WAT     H279083   6.149   8.196   1.847
26281WAT      O79084   2.323   6.568   1.282
26281WAT     H179085   2.420   6.559   1.263
26281WAT     H279086   2.309   6.584   1.380
26282WAT      O79087   1.513   6.297   2.144
26282WAT     H179088   1.436   6.356   2.167
26282WAT     H279089   1.558   6.333   2.062
26283WAT      O79090   7.363   9.105   6.297
26283WAT     H179091   7.347   9.010   6.268
26283WAT     H279092   7.285   9.138   6.349
26284WAT      O79093   6.272   2.698   6.550
26284WAT     H179094   6.340   2.633   6.517
26284WAT     H279095   6.244   2.674   6.643
26285WAT      O79096   6.485   3.039   2.045
26285WAT     H179097   6.438   3.070   1.962
26285WAT     H279098   6.484   3.112   2.114
26286WAT      O79099   7.527   8.784   8.776
26286WAT     H179100   7.511   8.689   8.750
26286WAT     H279101   7.622   8.808   8.755
26287WAT      O79102   9.344   6.313   8.101
26287WAT     H179103   9.375   6.253   8.174
26287WAT     H279104   9.398   6.295   8.018
26288WAT      O79105   1.846   6.139   3.483
26288WAT     H179106   1.813   6.229   3.514
26288WAT     H279107   1.865   6.082   3.562
26289WAT      O79108   8.269   0.496   3.586
26289WAT     H179109   8.202   0.422   3.581
26289WAT     H279110   8.314   0.507   3.497
26290WAT      O79111   5.964   2.322   9.547
26290WAT     H179112   5.992   2.366   9.632
26290WAT     H279113   6.012   2.235   9.537
26291WAT      O79114   5.928   5.604   8.466
26291WAT     H179115   5.862   5.532   8.444
26291WAT     H279116   5.971   5.636   8.381
26292WAT      O79117   2.935   0.467   3.828
26292WAT     H179118   3.011   0.511   3.876
26292WAT     H279119   2.850   0.515   3.850
26293WAT      O79120   6.091   8.593   3.173
26293WAT     H179121   6.033   8.531   3.225
26293WAT     H279122   6.037   8.669   3.138
26294WAT      O79123   9.332   0.178   7.966
26294WAT     H179124   9.370   0.244   7.901
26294WAT     H279125   9.371   0.088   7.947
26295WAT      O79126   1.031   7.869   0.329
26295WAT     H179127   1.084   7.943   0.287
26295WAT     H279128   1.088   7.820   0.395
26296WAT      O79129   0.000   3.730   3.322
26296WAT     H179130  -0.047   3.645   3.301
26296WAT     H279131   0.091   3.730   3.280
26297WAT      O79132   7.529   6.518   0.416
26297WAT     H179133   7.431   6.541   0.413
26297WAT     H279134   7.561   6.497   0.324
26298WAT      O79135   3.919   1.531   5.858
26298WAT     H179136   3.955   1.524   5.951
26298WAT     H279137   3.995   1.544   5.794
26299WAT      O79138   3.233   9.663   6.137
26299WAT     H179139   3.274   9.753   6.121
26299WAT     H279140   3.260   9.601   6.064
26300WAT      O79141   7.473   0.089   8.006
26300WAT     H179142   7.460   0.136   7.919
26300WAT     H279143   7.526   0.006   7.991
26301WAT      O79144   2.048   9.176   7.702
26301WAT     H179145   2.019   9.197   7.609
26301WAT     H279146   1.986   9.218   7.768
26302WAT      O79147   1.767   1.393   4.014
26302WAT     H179148   1.786   1.355   4.105
26302WAT     H279149   1.854   1.417   3.970
26303WAT      O79150   7.880   7.706   5.136
26303WAT     H179151   7.911   7.643   5.064
26303WAT     H279152   7.837   7.786   5.094
26304WAT      O79153   6.779   6.604   6.189
26304WAT     H179154   6.803   6.699   6.210
26304WAT     H279155   6.696   6.579   6.238
26305WAT      O79156   2.419   5.484   3.745
26305WAT     H179157   2.486   5.456   3.814
26305WAT     H279158   2.403   5.408   3.682
26306WAT      O79159   8.868   0.339   8.888
26306WAT     H179160   8.813   0.255   8.895
26306WAT     H279161   8.954   0.318   8.841
26307WAT      O79162   9.458   9.785   5.012
26307WAT     H179163   9.546   9.818   4.979
26307WAT     H279164   9.454   9.685   5.005
26308WAT      O79165   0.333   3.548   0.379
26308WAT     H179166   0.321   3.635   0.330
26308WAT     H279167   0.349   3.475   0.313
26309WAT      O79168   3.998   8.224   2.454
26309WAT     H179169   4.061   8.213   2.530
26309WAT     H279170   3.932   8.149   2.454
26310WAT      O79171   4.617   9.725   7.090
26310WAT     H179172   4.667   9.792   7.035
26310WAT     H279173   4.643   9.633   7.063
26311WAT      O79174   0.481   1.300   0.081
26311WAT     H179175   0.497   1.253   0.167
26311WAT     H279176   0.522   1.390   0.083
26312WAT      O79177   5.204   4.757   9.418
26312WAT     H179178   5.275   4.749   9.349
26312WAT     H279179   5.182   4.853   9.432
26313WAT      O79180   1.874   0.967   5.693
26313WAT     H179181   1.857   1.035   5.620
26313WAT     H279182   1.797   0.969   5.757
26314WAT      O79183   8.040   7.323   6.635
26314WAT     H179184   8.122   7.342   6.581
26314WAT     H279185   7.965   7.381   6.603
26315WAT      O79186   8.536   5.073   9.669
26315WAT     H179187   8.440   5.072   9.641
26315WAT     H279188   8.563   5.167   9.692
26316WAT      O79189   3.275   9.088   4.622
26316WAT     H179190   3.341   9.162   4.639
26316WAT     H279191   3.245   9.093   4.526
26317WAT      O79192   2.416   5.281   0.755
26317WAT     H179193   2.317   5.289   0.741
26317WAT     H279194   2.453   5.213   0.692
26318WAT      O79195   1.529   9.391   4.596
26318WAT     H179196   1.547   9.357   4.688
26318WAT     H279197   1.433   9.374   4.572
26319WAT      O79198   2.937   1.589   4.911
26319WAT     H179199   2.905   1.612   5.003
26319WAT     H279200   2.982   1.668   4.871
26320WAT      O79201   3.523   9.207   3.263
26320WAT     H179202   3.481   9.286   3.218
26320WAT     H279203   3.608   9.236   3.307
26321WAT      O79204   0.463   0.834   4.049
26321WAT     H179205   0.520   0.910   4.079
26321WAT     H279206   0.415   0.795   4.128
26322WAT      O79207   7.675   5.040   5.217
26322WAT     H179208   7.623   5.123   5.233
26322WAT     H279209   7.753   5.060   5.158
26323WAT      O79210   4.734   3.881   8.341
26323WAT     H179211   4.767   3.969   8.306
26323WAT     H279212   4.758   3.809   8.277
26324WAT      O79213   0.374   9.800   4.844
26324WAT     H179214   0.408   9.878   4.896
26324WAT     H279215   0.345   9.727   4.907
26325WAT      O79216   2.186   6.442   4.620
26325WAT     H179217   2.212   6.481   4.708
26325WAT     H279218   2.223   6.499   4.546
26326WAT      O79219   5.816   8.556   1.806
26326WAT     H179220   5.813   8.644   1.759
26326WAT     H279221   5.736   8.501   1.780
26327WAT      O79222   3.235   7.686   7.057
26327WAT     H179223   3.267   7.622   7.127
26327WAT     H279224   3.268   7.655   6.968
26328WAT      O79225   5.071   2.292   0.790
26328WAT     H179226   4.976   2.261   0.798
26328WAT     H279227   5.084   2.374   0.846
26329WAT      O79228   9.387   9.827   4.145
26329WAT     H179229   9.433   9.865   4.065
26329WAT     H279230   9.363   9.901   4.208
26330WAT      O79231   5.648   7.468   9.152
26330WAT     H179232   5.578   7.524   9.109
26330WAT     H279233   5.609   7.419   9.230
26331WAT      O79234   4.344   4.569   8.942
26331WAT     H179235   4.389   4.506   8.879
26331WAT     H279236   4.380   4.662   8.929
26332WAT      O79237   5.708   3.376   9.729
26332WAT     H179238   5.804   3.398   9.712
26332WAT     H279239   5.702   3.303   9.797
26333WAT      O79240   3.629   4.049   4.390
26333WAT     H179241   3.575   4.006   4.317
26333WAT     H279242   3.631   3.989   4.470
26334WAT      O79243   0.967   1.502   0.830
26334WAT     H179244   1.001   1.480   0.922
26334WAT     H279245   1.029   1.463   0.762
26335WAT      O79246   1.223   4.471   7.220
26335WAT     H179247   1.125   4.488   7.217
26335WAT     H279248   1.271   4.543   7.170
26336WAT      O79249   0.908   7.526   8.373
26336WAT     H179250   0.957   7.517   8.286
26336WAT     H279251   0.851   7.446   8.387
26337WAT      O79252   2.340   9.322   7.197
26337WAT     H179253   2.323   9.348   7.292
26337WAT     H279254   2.272   9.256   7.167
26338WAT      O79255   9.606   4.435   2.404
26338WAT     H179256   9.614   4.368   2.479
26338WAT     H279257   9.530   4.497   2.424
26339WAT      O79258   0.280   5.366   3.519
26339WAT     H179259   0.228   5.375   3.604
26339WAT     H279260   0.315   5.272   3.511
26340WAT      O79261   4.206   3.570   2.079
26340WAT     H179262   4.110   3.563   2.107
26340WAT     H279263   4.262   3.593   2.158
26341WAT      O79264   3.244   2.880   3.816
26341WAT     H179265   3.279   2.888   3.723
26341WAT     H279266   3.149   2.913   3.819
26342WAT      O79267   3.229   8.845   9.166
26342WAT     H179268   3.259   8.939   9.151
26342WAT     H279269   3.130   8.843   9.181
26343WAT      O79270   8.492   8.594   4.452
26343WAT     H179271   8.442   8.625   4.371
26343WAT     H279272   8.537   8.507   4.432
26344WAT      O79273   1.555   4.198   5.003
26344WAT     H179274   1.503   4.235   5.080
26344WAT     H279275   1.544   4.099   4.999
26345WAT      O79276   7.367   0.187   9.508
26345WAT     H179277   7.280   0.174   9.555
26345WAT     H279278   7.422   0.104   9.517
26346WAT      O79279   7.061   8.970   8.759
26346WAT     H179280   6.970   8.942   8.790
26346WAT     H279281   7.128   8.899   8.783
26347WAT      O79282   6.720   7.843   1.619
26347WAT     H179283   6.716   7.779   1.696
26347WAT     H279284   6.796   7.906   1.633
26348WAT      O79285   1.005   6.532   9.265
26348WAT     H179286   0.996   6.482   9.179
26348WAT     H279287   1.101   6.539   9.290
26349WAT      O79288   0.450   8.242   9.338
26349WAT     H179289   0.452   8.307   9.414
26349WAT     H279290   0.356   8.216   9.318
26350WAT      O79291   7.693   1.102   7.678
26350WAT     H179292   7.773   1.152   7.713
26350WAT     H279293   7.620   1.167   7.656
26351WAT      O79294   0.412   8.027   6.805
26351WAT     H179295   0.495   8.078   6.829
26351WAT     H279296   0.343   8.041   6.876
26352WAT      O79297   9.124   6.120   2.307
26352WAT     H179298   9.151   6.064   2.385
26352WAT     H279299   9.031   6.097   2.280
26353WAT      O79300   3.788   6.396   8.798
26353WAT     H179301   3.877   6.376   8.757
26353WAT     H279302   3.731   6.314   8.796
26354WAT      O79303   4.825   5.882   3.744
26354WAT     H179304   4.923   5.866   3.740
26354WAT     H279305   4.804   5.971   3.706
26355WAT      O79306   7.977   9.623   7.156
26355WAT     H179307   7.882   9.609   7.127
26355WAT     H279308   7.979   9.648   7.253
26356WAT      O79309   3.402   5.492   2.753
26356WAT     H179310   3.471   5.467   2.822
26356WAT     H279311   3.311   5.486   2.793
26357WAT      O79312   4.215   7.848   2.362
26357WAT     H179313   4.169   7.884   2.281
26357WAT     H279314   4.234   7.922   2.426
26358WAT      O79315   2.986   8.301   5.472
26358WAT     H179316   2.920   8.259   5.534
26358WAT     H279317   2.941   8.325   5.387
26359WAT      O79318   1.639   7.984   4.942
26359WAT     H179319   1.718   8.041   4.963
26359WAT     H279320   1.626   7.981   4.843
26360WAT      O79321   4.737   3.845   7.650
26360WAT     H179322   4.780   3.902   7.720
26360WAT     H279323   4.640   3.833   7.673
26361WAT      O79324   9.057   8.034   2.959
26361WAT     H179325   8.997   8.090   3.015
26361WAT     H279326   9.136   8.088   2.931
26362WAT      O79327   1.289   0.173   7.410
26362WAT     H179328   1.207   0.198   7.359
26362WAT     H279329   1.355   0.129   7.350
26363WAT      O79330   4.248   9.440   7.710
26363WAT     H179331   4.305   9.358   7.711
26363WAT     H279332   4.251   9.485   7.799
26364WAT      O79333   1.350   3.038   4.960
26364WAT     H179334   1.426   2.996   5.010
26364WAT     H279335   1.377   3.129   4.929
26365WAT      O79336   0.133   3.122   7.997
26365WAT     H179337   0.150   3.034   7.953
26365WAT     H279338   0.173   3.195   7.942
26366WAT      O79339   4.165   1.577   1.414
26366WAT     H179340   4.076   1.587   1.458
26366WAT     H279341   4.161   1.503   1.347
26367WAT      O79342   2.682   7.788   2.108
26367WAT     H179343   2.730   7.859   2.160
26367WAT     H279344   2.588   7.818   2.091
26368WAT      O79345   2.379   0.836   8.890
26368WAT     H179346   2.379   0.737   8.879
26368WAT     H279347   2.302   0.876   8.841
26369WAT      O79348   6.729   3.363   2.531
26369WAT     H179349   6.722   3.290   2.599
26369WAT     H279350   6.656   3.353   2.463
26370WAT      O79351   4.312   8.950   8.419
26370WAT     H179352   4.279   8.879   8.481
26370WAT     H279353   4.411   8.960   8.428
26371WAT      O79354   3.817   2.512   2.099
26371WAT     H179355   3.786   2.588   2.156
26371WAT     H279356   3.916   2.518   2.086
26372WAT      O79357   5.140   0.133   0.277
26372WAT     H179358   5.152   0.165   0.372
26372WAT     H279359   5.076   0.056   0.276
26373WAT      O79360   7.427   0.248   7.791
26373WAT     H179361   7.338   0.292   7.780
26373WAT     H279362   7.475   0.248   7.704
26374WAT      O79363   3.981   1.528   4.405
26374WAT     H179364   4.014   1.545   4.498
26374WAT     H279365   3.989   1.611   4.350
26375WAT      O79366   1.248   2.236   2.486
26375WAT     H179367   1.168   2.177   2.496
26375WAT     H279368   1.228   2.326   2.524
26376WAT      O79369   6.602   8.328   1.967
26376WAT     H179370   6.696   8.354   1.985
26376WAT     H279371   6.571   8.369   1.880
26377WAT      O79372   1.818   2.581   8.636
26377WAT     H179373   1.904   2.540   8.667
26377WAT     H279374   1.780   2.527   8.561
26378WAT      O79375   9.366   4.930   8.655
26378WAT     H179376   9.315   4.933   8.570
26378WAT     H279377   9.341   5.008   8.713
26379WAT      O79378   5.816   0.658   0.924
26379WAT     H179379   5.856   0.617   1.007
26379WAT     H279380   5.717   0.667   0.936
26380WAT      O79381   0.943   4.566   3.764
26380WAT     H179382   0.943   4.527   3.856
26380WAT     H279383   0.905   4.500   3.699
26381WAT      O79384   1.151   3.550   5.039
26381WAT     H179385   1.096   3.612   4.983
26381WAT     H279386   1.136   3.456   5.010
26382WAT      O79387   3.664   4.176   2.275
26382WAT     H179388   3.578   4.167   2.226
26382WAT     H279389   3.661   4.256   2.335
26383WAT      O79390   9.080   4.688   8.219
26383WAT     H179391   9.094   4.654   8.126
26383WAT     H279392   9.162   4.669   8.274
26384WAT      O79393   9.463   8.209   9.842
26384WAT     H179394   9.528   8.284   9.830
26384WAT     H279395   9.375   8.247   9.872
26385WAT      O79396   9.689   2.693   8.880
26385WAT     H179397   9.743   2.623   8.832
26385WAT     H279398   9.618   2.649   8.934
26386WAT      O79399   7.914   6.773   2.501
26386WAT     H179400   7.835   6.790   2.560
26386WAT     H279401   7.977   6.710   2.546
26387WAT      O79402   4.891   6.923   0.736
26387WAT     H179403   4.797   6.891   0.738
26387WAT     H279404   4.894   7.020   0.711
26388WAT      O79405   9.062   7.173   2.918
26388WAT     H179406   8.970   7.136   2.929
26388WAT     H279407   9.129   7.102   2.941
26389WAT      O79408   9.807   1.953   8.029
26389WAT     H179409   9.744   2.014   7.982
26389WAT     H279410   9.879   2.006   8.073
26390WAT      O79411   8.557   8.890   9.418
26390WAT     H179412   8.534   8.820   9.351
26390WAT     H279413   8.537   8.857   9.510
26391WAT      O79414   7.924   9.754   8.635
26391WAT     H179415   7.870   9.669   8.638
26391WAT     H279416   7.944   9.783   8.728
26392WAT      O79417   2.718   1.762   7.599
26392WAT     H179418   2.809   1.803   7.598
26392WAT     H279419   2.715   1.686   7.535
26393WAT      O79420   2.519   1.222   7.291
26393WAT     H179421   2.505   1.300   7.352
26393WAT     H279422   2.477   1.240   7.203
26394WAT      O79423   0.310   3.357   1.161
26394WAT     H179424   0.288   3.325   1.069
26394WAT     H279425   0.227   3.386   1.208
26395WAT      O79426   3.463   7.504   5.030
26395WAT     H179427   3.515   7.458   4.958
26395WAT     H279428   3.376   7.457   5.043
26396WAT      O79429   8.018   0.033   7.894
26396WAT     H179430   7.931   0.034   7.944
26396WAT     H279431   8.022   0.111   7.833
26397WAT      O79432   0.261   2.354   0.130
26397WAT     H179433   0.226   2.374   0.222
26397WAT     H279434   0.190   2.375   0.062
26398WAT      O79435   8.385   2.498   4.080
26398WAT     H179436   8.464   2.439   4.071
26398WAT     H279437   8.302   2.447   4.058
26399WAT      O79438   5.864   3.129   8.409
26399WAT     H179439   5.858   3.068   8.488
26399WAT     H279440   5.960   3.137   8.380
26400WAT      O79441   7.728   3.363   8.902
26400WAT     H179442   7.762   3.386   8.993
26400WAT     H279443   7.795   3.306   8.855
26401WAT      O79444   0.332   8.290   2.640
26401WAT     H179445   0.416   8.329   2.602
26401WAT     H279446   0.323   8.194   2.612
26402WAT      O79447   3.120   9.076   0.231
26402WAT     H179448   3.193   9.143   0.218
26402WAT     H279449   3.096   9.034   0.143
26403WAT      O79450   4.316   4.960   8.364
26403WAT     H179451   4.354   4.885   8.310
26403WAT     H279452   4.385   5.033   8.372
26404WAT      O79453   1.812   8.678   3.098
26404WAT     H179454   1.901   8.652   3.060
26404WAT     H279455   1.786   8.612   3.168
26405WAT      O79456   2.487   8.513   1.072
26405WAT     H179457   2.469   8.416   1.090
26405WAT     H279458   2.466   8.566   1.154
26406WAT      O79459   0.935   0.708   6.913
26406WAT     H179460   1.006   0.698   6.844
26406WAT     H279461   0.856   0.754   6.873
26407WAT      O79462   7.059   1.350   4.377
26407WAT     H179463   7.126   1.324   4.446
26407WAT     H279464   6.992   1.276   4.366
26408WAT      O79465   6.355   6.478   0.530
26408WAT     H179466   6.298   6.496   0.450
26408WAT     H279467   6.446   6.516   0.516
26409WAT      O79468   7.438   8.623   6.711
26409WAT     H179469   7.527   8.578   6.705
26409WAT     H279470   7.437   8.703   6.650
26410WAT      O79471   3.194   5.792   5.057
26410WAT     H179472   3.191   5.719   5.126
26410WAT     H279473   3.199   5.752   4.966
26411WAT      O79474   7.348   2.103   6.192
26411WAT     H179475   7.378   2.115   6.287
26411WAT     H279476   7.295   2.183   6.164
26412WAT      O79477   3.395   2.038   0.654
26412WAT     H179478   3.369   2.069   0.745
26412WAT     H279479   3.326   1.974   0.620
26413WAT      O79480   6.105   5.746   1.638
26413WAT     H179481   6.152   5.709   1.558
26413WAT     H279482   6.168   5.748   1.715
26414WAT      O79483   6.511   2.416   1.643
26414WAT     H179484   6.478   2.509   1.656
26414WAT     H279485   6.598   2.417   1.594
26415WAT      O79486   8.561   7.650   6.481
26415WAT     H179487   8.591   7.666   6.575
26415WAT     H279488   8.592   7.725   6.422
26416WAT      O79489   4.491   8.447   1.563
26416WAT     H179490   4.427   8.516   1.530
26416WAT     H279491   4.440   8.373   1.608
26417WAT      O79492   7.707   0.874   2.155
26417WAT     H179493   7.723   0.961   2.110
26417WAT     H279494   7.630   0.882   2.218
26418WAT      O79495   2.013   4.344   4.846
26418WAT     H179496   1.922   4.314   4.816
26418WAT     H279497   2.017   4.444   4.843
26419WAT      O79498   2.011   4.459   0.826
26419WAT     H179499   2.024   4.505   0.738
26419WAT     H279500   2.049   4.367   0.821
26420WAT      O79501   7.417   2.874   4.135
26420WAT     H179502   7.364   2.792   4.114
26420WAT     H279503   7.440   2.921   4.050
26421WAT      O79504   8.120   9.330   9.673
26421WAT     H179505   8.171   9.416   9.673
26421WAT     H279506   8.180   9.256   9.643
26422WAT      O79507   3.567   2.536   8.958
26422WAT     H179508   3.527   2.448   8.933
26422WAT     H279509   3.616   2.574   8.880
26423WAT      O79510   9.832   1.446   1.823
26423WAT     H179511   9.854   1.494   1.908
26423WAT     H279512   9.910   1.392   1.794
26424WAT      O79513   9.168   7.646   5.733
26424WAT     H179514   9.251   7.673   5.781
26424WAT     H279515   9.142   7.716   5.667
26425WAT      O79516   5.232   6.751   9.653
26425WAT     H179517   5.153   6.785   9.601
26425WAT     H279518   5.201   6.684   9.721
26426WAT      O79519   9.156   2.869   3.319
26426WAT     H179520   9.088   2.907   3.256
26426WAT     H279521   9.155   2.921   3.404
26427WAT      O79522   1.311   8.732   4.309
26427WAT     H179523   1.401   8.689   4.296
26427WAT     H279524   1.279   8.769   4.221
26428WAT      O79525   3.384   4.178   7.043
26428WAT     H179526   3.305   4.235   7.062
26428WAT     H279527   3.354   4.087   7.013
26429WAT      O79528   4.417   2.905   5.135
26429WAT     H179529   4.362   2.916   5.052
26429WAT     H279530   4.490   2.974   5.137
26430WAT      O79531   0.864   7.185   4.760
26430WAT     H179532   0.871   7.091   4.792
26430WAT     H279533   0.951   7.232   4.775
26431WAT      O79534   4.723   0.431   0.054
26431WAT     H179535   4.764   0.452  -0.035
26431WAT     H279536   4.795   0.405   0.118
26432WAT      O79537   2.306   0.552   2.805
26432WAT     H179538   2.238   0.623   2.821
26432WAT     H279539   2.281   0.470   2.858
26433WAT      O79540   4.126   0.396   5.093
26433WAT     H179541   4.102   0.489   5.062
26433WAT     H279542   4.046   0.337   5.084
26434WAT      O79543   5.591   5.898   0.020
26434WAT     H179544   5.542   5.911  -0.067
26434WAT     H279545   5.639   5.810   0.018
26435WAT      O79546   4.931   2.787   8.661
26435WAT     H179547   4.975   2.877   8.666
26435WAT     H279548   4.914   2.753   8.754
26436WAT      O79549   7.866   9.429   7.917
26436WAT     H179550   7.874   9.453   7.821
26436WAT     H279551   7.939   9.474   7.969
26437WAT      O79552   4.420   8.156   0.411
26437WAT     H179553   4.387   8.251   0.414
26437WAT     H279554   4.520   8.156   0.405
26438WAT      O79555   3.068   2.249   3.457
26438WAT     H179556   3.130   2.306   3.512
26438WAT     H279557   2.974   2.272   3.479
26439WAT      O79558   8.930   5.538   5.433
26439WAT     H179559   8.988   5.458   5.418
26439WAT     H279560   8.843   5.509   5.473
26440WAT      O79561   0.382   8.077   1.090
26440WAT     H179562   0.472   8.121   1.079
26440WAT     H279563   0.391   7.979   1.070
26441WAT      O79564   8.289   6.999   1.954
26441WAT     H179565   8.237   6.913   1.952
26441WAT     H279566   8.317   7.023   1.861
26442WAT      O79567   3.012   6.992   6.901
26442WAT     H179568   2.968   7.080   6.882
26442WAT     H279569   3.045   6.952   6.816
26443WAT      O79570   2.794   7.018   2.395
26443WAT     H179571   2.696   7.018   2.376
26443WAT     H279572   2.817   7.092   2.458
26444WAT      O79573   2.915   2.577   3.159
26444WAT     H179574   2.825   2.556   3.121
26444WAT     H279575   2.954   2.655   3.109
26445WAT      O79576   6.329   7.937   0.566
26445WAT     H179577   6.245   7.924   0.619
26445WAT     H279578   6.362   7.848   0.534
26446WAT      O79579   2.369   5.047   8.346
26446WAT     H179580   2.314   4.993   8.409
26446WAT     H279581   2.361   5.009   8.254
26447WAT      O79582   9.635   1.033   7.772
26447WAT     H179583   9.687   1.109   7.810
26447WAT     H279584   9.629   0.959   7.840
26448WAT      O79585   9.543   0.933   6.697
26448WAT     H179586   9.452   0.910   6.732
26448WAT     H279587   9.607   0.860   6.720
26449WAT      O79588   2.726   7.571   8.879
26449WAT     H179589   2.687   7.504   8.815
26449WAT     H279590   2.651   7.615   8.930
26450WAT      O79591   4.603   3.120   4.026
26450WAT     H179592   4.669   3.188   4.057
26450WAT     H279593   4.548   3.089   4.104
26451WAT      O79594   9.518   3.495   1.481
26451WAT     H179595   9.507   3.588   1.447
26451WAT     H279596   9.614   3.479   1.505
26452WAT      O79597   2.812   5.022   8.831
26452WAT     H179598   2.823   5.000   8.734
26452WAT     H279599   2.822   5.121   8.844
26453WAT      O79600   0.164   2.640   9.694
26453WAT     H179601   0.154   2.581   9.614
26453WAT     H279602   0.166   2.585   9.777
26454WAT      O79603   2.507   4.173   0.063
26454WAT     H179604   2.408   4.185   0.070
26454WAT     H279605   2.533   4.083   0.099
26455WAT      O79606   0.816   9.319   1.067
26455WAT     H179607   0.812   9.335   1.165
26455WAT     H279608   0.884   9.248   1.048
26456WAT      O79609   2.847   6.269   1.417
26456WAT     H179610   2.748   6.282   1.413
26456WAT     H279611   2.878   6.224   1.333
26457WAT      O79612   9.293   5.035   7.233
26457WAT     H179613   9.349   4.958   7.262
26457WAT     H279614   9.267   5.089   7.313
26458WAT      O79615   1.284   6.244   7.025
26458WAT     H179616   1.205   6.192   7.056
26458WAT     H279617   1.314   6.306   7.099
26459WAT      O79618   8.286   0.343   4.163
26459WAT     H179619   8.278   0.318   4.260
26459WAT     H279620   8.364   0.294   4.123
26460WAT      O79621   3.982   7.732   9.353
26460WAT     H179622   3.944   7.824   9.340
26460WAT     H279623   4.060   7.737   9.415
26461WAT      O79624   7.647   5.641   6.651
26461WAT     H179625   7.655   5.553   6.696
26461WAT     H279626   7.686   5.635   6.559
26462WAT      O79627   0.219   4.500   2.148
26462WAT     H179628   0.177   4.483   2.059
26462WAT     H279629   0.269   4.587   2.145
26463WAT      O79630   3.596   8.330   9.840
26463WAT     H179631   3.643   8.272   9.907
26463WAT     H279632   3.582   8.421   9.879
26464WAT      O79633   0.830   4.420   5.029
26464WAT     H179634   0.839   4.326   4.996
26464WAT     H279635   0.844   4.422   5.128
26465WAT      O79636   2.792   7.374   3.320
26465WAT     H179637   2.794   7.352   3.222
26465WAT     H279638   2.794   7.474   3.331
26466WAT      O79639   4.388   5.526   1.854
26466WAT     H179640   4.399   5.586   1.933
26466WAT     H279641   4.474   5.479   1.835
26467WAT      O79642   7.578   0.258   4.184
26467WAT     H179643   7.483   0.272   4.210
26467WAT     H279644   7.637   0.318   4.238
26468WAT      O79645   4.858   2.481   2.293
26468WAT     H179646   4.951   2.497   2.262
26468WAT     H279647   4.851   2.391   2.335
26469WAT      O79648   5.439   8.563   9.580
26469WAT     H179649   5.506   8.495   9.611
26469WAT     H279650   5.357   8.516   9.547
26470WAT      O79651   0.382   1.677   6.074
26470WAT     H179652   0.335   1.722   6.150
26470WAT     H279653   0.453   1.737   6.038
26471WAT      O79654   8.212   4.314   0.092
26471WAT     H179655   8.164   4.316   0.004
26471WAT     H279656   8.237   4.407   0.119
26472WAT      O79657   0.870   7.991   2.200
26472WAT     H179658   0.815   7.927   2.146
26472WAT     H279659   0.962   7.953   2.212
26473WAT      O79660   2.925   2.559   3.856
26473WAT     H179661   2.902   2.633   3.793
26473WAT     H279662   3.024   2.548   3.860
26474WAT      O79663   8.046   5.339   4.227
26474WAT     H179664   8.025   5.268   4.294
26474WAT     H279665   7.961   5.376   4.190
26475WAT      O79666   8.476   5.853   2.114
26475WAT     H179667   8.557   5.807   2.078
26475WAT     H279668   8.430   5.902   2.039
26476WAT      O79669   1.994   2.403   1.045
26476WAT     H179670   1.976   2.466   1.121
26476WAT     H279671   2.044   2.452   0.973
26477WAT      O79672   1.568   7.870   8.558
26477WAT     H179673   1.475   7.881   8.522
26477WAT     H279674   1.591   7.949   8.614
26478WAT      O79675   4.463   5.172   1.030
26478WAT     H179676   4.558   5.144   1.043
26478WAT     H279677   4.441   5.245   1.095
26479WAT      O79678   3.604   3.858   7.121
26479WAT     H179679   3.599   3.946   7.167
26479WAT     H279680   3.589   3.870   7.023
26480WAT      O79681   5.041   3.519   8.083
26480WAT     H179682   5.117   3.555   8.030
26480WAT     H279683   5.076   3.479   8.168
26481WAT      O79684   8.349   6.639   5.631
26481WAT     H179685   8.276   6.679   5.686
26481WAT     H279686   8.408   6.583   5.689
26482WAT      O79687   2.334   4.452   7.482
26482WAT     H179688   2.342   4.367   7.429
26482WAT     H279689   2.327   4.530   7.419
26483WAT      O79690   5.777   4.848   7.316
26483WAT     H179691   5.741   4.851   7.410
26483WAT     H279692   5.701   4.831   7.253
26484WAT      O79693   8.364   0.061   9.320
26484WAT     H179694   8.457   0.065   9.284
26484WAT     H279695   8.339  -0.034   9.336
26485WAT      O79696   7.346   8.922   0.371
26485WAT     H179697   7.426   8.976   0.394
26485WAT     H279698   7.356   8.830   0.409
26486WAT      O79699   3.902   2.269   7.720
26486WAT     H179700   3.849   2.187   7.700
26486WAT     H279701   3.997   2.254   7.695
26487WAT      O79702   0.419   0.644   1.259
26487WAT     H179703   0.337   0.588   1.248
26487WAT     H279704   0.441   0.689   1.172
26488WAT      O79705   8.965   9.211   9.735
26488WAT     H179706   8.897   9.248   9.799
26488WAT     H279707   8.939   9.235   9.641
26489WAT      O79708   1.654   8.228   4.286
26489WAT     H179709   1.646   8.138   4.244
26489WAT     H279710   1.598   8.232   4.369
26490WAT      O79711   0.515   1.956   6.884
26490WAT     H179712   0.513   2.019   6.962
26490WAT     H279713   0.540   2.007   6.801
26491WAT      O79714   7.516   0.220   6.880
26491WAT     H179715   7.492   0.125   6.898
26491WAT     H279716   7.500   0.274   6.962
26492WAT      O79717   0.229   0.060   9.665
26492WAT     H179718   0.199  -0.026   9.707
26492WAT     H279719   0.178   0.136   9.705
26493WAT      O79720   6.777   1.830   5.548
26493WAT     H179721   6.872   1.852   5.523
26493WAT     H279722   6.750   1.887   5.626
26494WAT      O79723   3.588   7.105   8.796
26494WAT     H179724   3.531   7.120   8.715
26494WAT     H279725   3.584   7.185   8.855
26495WAT      O79726   5.715   8.163   4.176
26495WAT     H179727   5.788   8.109   4.218
26495WAT     H279728   5.747   8.256   4.159
26496WAT      O79729   2.834   6.195   0.892
26496WAT     H179730   2.738   6.181   0.867
26496WAT     H279731   2.887   6.113   0.870
26497WAT      O79732   4.139   1.684   9.818
26497WAT     H179733   4.156   1.778   9.788
26497WAT     H279734   4.213   1.655   9.879
26498WAT      O79735   7.452   1.135   0.502
26498WAT     H179736   7.524   1.171   0.562
26498WAT     H279737   7.486   1.055   0.453
26499WAT      O79738   2.039   1.486   4.736
26499WAT     H179739   1.995   1.460   4.650
26499WAT     H279740   2.127   1.531   4.716
26500WAT      O79741   6.636   3.341   1.145
26500WAT     H179742   6.599   3.394   1.069
26500WAT     H279743   6.660   3.403   1.220
26501WAT      O79744   0.025   4.128   0.219
26501WAT     H179745   0.098   4.075   0.261
26501WAT     H279746   0.064   4.204   0.167
26502WAT      O79747   5.616   4.756   6.650
26502WAT     H179748   5.712   4.730   6.635
26502WAT     H279749   5.586   4.816   6.576
26503WAT      O79750   8.251   5.631   6.629
26503WAT     H179751   8.236   5.683   6.713
26503WAT     H279752   8.177   5.564   6.618
26504WAT      O79753   9.115   8.567   5.217
26504WAT     H179754   9.059   8.629   5.162
26504WAT     H279755   9.077   8.475   5.212
26505WAT      O79756   4.213   7.647   9.587
26505WAT     H179757   4.254   7.557   9.574
26505WAT     H279758   4.233   7.679   9.680
26506WAT      O79759   6.999   8.193   8.333
26506WAT     H179760   7.059   8.126   8.291
26506WAT     H279761   7.046   8.282   8.338
26507WAT      O79762   5.301   0.004   4.336
26507WAT     H179763   5.342  -0.070   4.283
26507WAT     H279764   5.351   0.089   4.319
26508WAT      O79765   9.522   1.509   4.171
26508WAT     H179766   9.594   1.578   4.180
26508WAT     H279767   9.436   1.553   4.146
26509WAT      O79768   9.023   3.818   4.664
26509WAT     H179769   9.105   3.876   4.659
26509WAT     H279770   9.000   3.786   4.572
26510WAT      O79771   8.040   6.954   3.090
26510WAT     H179772   7.950   6.974   3.050
26510WAT     H279773   8.066   6.860   3.068
26511WAT      O79774   9.746   3.937   0.346
26511WAT     H179775   9.760   4.024   0.300
26511WAT     H279776   9.789   3.940   0.437
26512WAT      O79777   3.736   8.410   8.145
26512WAT     H179778   3.834   8.431   8.135
26512WAT     H279779   3.712   8.409   8.242
26513WAT      O79780   5.867   7.223   0.875
26513WAT     H179781   5.854   7.311   0.830
26513WAT     H279782   5.821   7.151   0.822
26514WAT      O79783   2.341   5.144   1.340
26514WAT     H179784   2.313   5.093   1.259
26514WAT     H279785   2.344   5.242   1.319
26515WAT      O79786   8.689   4.935   6.371
26515WAT     H179787   8.618   4.865   6.385
26515WAT     H279788   8.724   4.965   6.459
26516WAT      O79789   8.167   7.968   6.209
26516WAT     H179790   8.168   7.987   6.307
26516WAT     H279791   8.241   7.905   6.187
26517WAT      O79792   5.213   6.143   9.667
26517WAT     H179793   5.144   6.123   9.736
26517WAT     H279794   5.168   6.161   9.579
26518WAT      O79795   9.072   9.475   4.141
26518WAT     H179796   9.094   9.405   4.209
26518WAT     H279797   8.983   9.454   4.100
26519WAT      O79798   6.354   3.160   8.486
26519WAT     H179799   6.392   3.245   8.520
26519WAT     H279800   6.378   3.085   8.547
26520WAT      O79801   8.732   9.043   0.031
26520WAT     H179802   8.823   9.004   0.020
26520WAT     H279803   8.695   9.069  -0.058
26521WAT      O79804   1.632   3.930   0.009
26521WAT     H179805   1.725   3.929  -0.027
26521WAT     H279806   1.568   3.934  -0.068
26522WAT      O79807   6.888   5.455   3.861
26522WAT     H179808   6.956   5.457   3.788
26522WAT     H279809   6.826   5.377   3.847
26523WAT      O79810   6.001   9.804   6.301
26523WAT     H179811   6.080   9.863   6.285
26523WAT     H279812   6.010   9.757   6.388
26524WAT      O79813   7.396   2.955   2.912
26524WAT     H179814   7.326   2.885   2.926
26524WAT     H279815   7.413   3.003   2.998
26525WAT      O79816   3.710   8.195   0.888
26525WAT     H179817   3.664   8.141   0.958
26525WAT     H279818   3.692   8.155   0.798
26526WAT      O79819   2.732   0.242   3.725
26526WAT     H179820   2.676   0.258   3.644
26526WAT     H279821   2.758   0.329   3.766
26527WAT      O79822   1.980   8.198   4.508
26527WAT     H179823   1.974   8.235   4.415
26527WAT     H279824   2.063   8.232   4.552
26528WAT      O79825   1.205   9.841   5.468
26528WAT     H179826   1.268   9.911   5.501
26528WAT     H279827   1.252   9.786   5.398
26529WAT      O79828   6.958   4.843   5.478
26529WAT     H179829   7.052   4.870   5.501
26529WAT     H279830   6.959   4.782   5.399
26530WAT      O79831   4.984   0.749   5.273
26530WAT     H179832   5.072   0.767   5.230
26530WAT     H279833   4.913   0.747   5.204
26531WAT      O79834   6.886   8.154   6.361
26531WAT     H179835   6.946   8.090   6.313
26531WAT     H279836   6.850   8.110   6.444
26532WAT      O79837   2.012   8.588   1.710
26532WAT     H179838   2.105   8.554   1.727
26532WAT     H279839   2.010   8.638   1.623
26533WAT      O79840   1.114   7.044   1.385
26533WAT     H179841   1.120   7.074   1.290
26533WAT     H279842   1.188   7.085   1.438
26534WAT      O79843   0.927   3.859   0.842
26534WAT     H179844   0.925   3.944   0.789
26534WAT     H279845   0.849   3.856   0.905
26535WAT      O79846   0.777   1.616   4.251
26535WAT     H179847   0.758   1.571   4.164
26535WAT     H279848   0.692   1.656   4.288
26536WAT      O79849   7.530   0.764   3.763
26536WAT     H179850   7.469   0.837   3.794
26536WAT     H279851   7.476   0.694   3.715
26537WAT      O79852   9.747   0.740   6.392
26537WAT     H179853   9.753   0.838   6.412
26537WAT     H279854   9.652   0.715   6.376
26538WAT      O79855   9.144   0.585   1.685
26538WAT     H179856   9.057   0.535   1.687
26538WAT     H279857   9.196   0.566   1.768
26539WAT      O79858   0.811   5.129   8.365
26539WAT     H179859   0.730   5.149   8.419
26539WAT     H279860   0.797   5.158   8.270
26540WAT      O79861   9.730   6.732   1.253
26540WAT     H179862   9.797   6.760   1.185
26540WAT     H279863   9.660   6.803   1.262
26541WAT      O79864   5.824   3.562   3.659
26541WAT     H179865   5.835   3.639   3.722
26541WAT     H279866   5.820   3.596   3.565
26542WAT      O79867   1.418   8.182   7.582
26542WAT     H179868   1.332   8.155   7.626
26542WAT     H279869   1.483   8.106   7.586
26543WAT      O79870   2.311   4.742   4.197
26543WAT     H179871   2.323   4.755   4.099
26543WAT     H279872   2.258   4.659   4.214
26544WAT      O79873   7.415   1.311   9.884
26544WAT     H179874   7.442   1.242   9.951
26544WAT     H279875   7.490   1.326   9.819
26545WAT      O79876   6.674   1.098   4.067
26545WAT     H179877   6.763   1.054   4.078
26545WAT     H279878   6.676   1.189   4.107
26546WAT      O79879   9.474   7.868   9.240
26546WAT     H179880   9.385   7.913   9.234
26546WAT     H279881   9.461   7.768   9.236
26547WAT      O79882   3.543   9.562  -0.002
26547WAT     H179883   3.581   9.470   0.001
26547WAT     H279884   3.468   9.569   0.064
26548WAT      O79885   5.054   0.883   3.598
26548WAT     H179886   5.057   0.792   3.558
26548WAT     H279887   5.009   0.880   3.687
26549WAT      O79888   3.964   7.421   4.543
26549WAT     H179889   3.938   7.486   4.471
26549WAT     H279890   3.904   7.341   4.539
26550WAT      O79891   3.188   4.739   7.022
26550WAT     H179892   3.187   4.690   6.935
26550WAT     H279893   3.097   4.777   7.040
26551WAT      O79894   3.850   1.325   7.953
26551WAT     H179895   3.876   1.343   8.047
26551WAT     H279896   3.761   1.366   7.934
26552WAT      O79897   5.069   8.915   6.463
26552WAT     H179898   5.011   8.836   6.486
26552WAT     H279899   5.159   8.904   6.506
26553WAT      O79900   6.101   3.643   4.872
26553WAT     H179901   6.069   3.549   4.856
26553WAT     H279902   6.024   3.699   4.903
26554WAT      O79903   5.313   2.580   3.424
26554WAT     H179904   5.399   2.604   3.379
26554WAT     H279905   5.236   2.619   3.373
26555WAT      O79906   8.049   9.492   8.866
26555WAT     H179907   8.138   9.485   8.821
26555WAT     H279908   8.006   9.579   8.844
26556WAT      O79909   8.578   5.417   8.205
26556WAT     H179910   8.662   5.417   8.151
26556WAT     H279911   8.550   5.511   8.225
26557WAT      O79912   3.420   6.225   8.637
26557WAT     H179913   3.348   6.293   8.651
26557WAT     H279914   3.444   6.222   8.540
26558WAT      O79915   2.691   3.716   2.357
26558WAT     H179916   2.649   3.732   2.446
26558WAT     H279917   2.721   3.803   2.318
26559WAT      O79918   2.741   1.746   6.121
26559WAT     H179919   2.707   1.656   6.093
26559WAT     H279920   2.829   1.764   6.077
26560WAT      O79921   9.343   5.666   6.268
26560WAT     H179922   9.300   5.577   6.285
26560WAT     H279923   9.431   5.670   6.315
26561WAT      O79924   3.903   8.663   7.546
26561WAT     H179925   3.807   8.636   7.542
26561WAT     H279926   3.911   8.755   7.584
26562WAT      O79927   7.315   7.892   9.035
26562WAT     H179928   7.353   7.956   9.102
26562WAT     H279929   7.375   7.888   8.955
26563WAT      O79930   7.921   0.482   1.045
26563WAT     H179931   7.842   0.542   1.057
26563WAT     H279932   7.963   0.463   1.133
26564WAT      O79933   4.227   4.610   9.778
26564WAT     H179934   4.135   4.610   9.817
26564WAT     H279935   4.287   4.554   9.836
26565WAT      O79936   3.777   5.345   2.209
26565WAT     H179937   3.808   5.418   2.148
26565WAT     H279938   3.714   5.382   2.276
26566WAT      O79939   4.600   1.618   7.804
26566WAT     H179940   4.652   1.693   7.763
26566WAT     H279941   4.585   1.637   7.901
26567WAT      O79942   4.481   9.627   9.712
26567WAT     H179943   4.521   9.706   9.664
26567WAT     H279944   4.550   9.555   9.721
26568WAT      O79945   6.165   6.082   3.594
26568WAT     H179946   6.127   5.993   3.619
26568WAT     H279947   6.256   6.069   3.554
26569WAT      O79948   8.458   6.334   4.610
26569WAT     H179949   8.555   6.314   4.626
26569WAT     H279950   8.450   6.414   4.550
26570WAT      O79951   8.593   6.279   8.547
26570WAT     H179952   8.575   6.337   8.468
26570WAT     H279953   8.550   6.189   8.534
26571WAT      O79954   9.249   6.717   9.284
26571WAT     H179955   9.305   6.667   9.218
26571WAT     H279956   9.298   6.798   9.315
26572WAT      O79957   3.089   8.553   0.422
26572WAT     H179958   3.069   8.457   0.442
26572WAT     H279959   3.182   8.575   0.453
26573WAT      O79960   6.619   1.739   0.102
26573WAT     H179961   6.707   1.780   0.079
26573WAT     H279962   6.595   1.762   0.196
26574WAT      O79963   6.949   7.392   1.170
26574WAT     H179964   6.851   7.406   1.155
26574WAT     H279965   6.998   7.476   1.146
26575WAT      O79966   0.533   0.846   9.167
26575WAT     H179967   0.591   0.778   9.122
26575WAT     H279968   0.531   0.930   9.111
26576WAT      O79969   7.961   8.588   6.801
26576WAT     H179970   8.030   8.552   6.739
26576WAT     H279971   7.967   8.688   6.803
26577WAT      O79972   0.545   9.081   4.730
26577WAT     H179973   0.535   9.028   4.645
26577WAT     H279974   0.634   9.125   4.731
26578WAT      O79975   2.638   4.719   8.218
26578WAT     H179976   2.560   4.692   8.161
26578WAT     H279977   2.637   4.667   8.304
26579WAT      O79978   4.679   6.845   8.828
26579WAT     H179979   4.739   6.919   8.858
26579WAT     H279980   4.681   6.840   8.728
26580WAT      O79981   4.728   7.582   5.146
26580WAT     H179982   4.694   7.606   5.055
26580WAT     H279983   4.802   7.645   5.171
26581WAT      O79984   9.226   0.808   1.264
26581WAT     H179985   9.248   0.740   1.334
26581WAT     H279986   9.190   0.763   1.183
26582WAT      O79987   2.022   3.266   9.311
26582WAT     H179988   2.055   3.330   9.381
26582WAT     H279989   1.923   3.257   9.318
26583WAT      O79990   2.715   1.217   9.139
26583WAT     H179991   2.807   1.199   9.172
26583WAT     H279992   2.719   1.248   9.044
26584WAT      O79993   9.101   7.287   4.595
26584WAT     H179994   9.071   7.362   4.537
26584WAT     H279995   9.080   7.200   4.550
26585WAT      O79996   6.728   8.951   9.653
26585WAT     H179997   6.713   8.905   9.740
26585WAT     H279998   6.745   8.883   9.582
26586WAT      O79999   8.513   0.277   1.829
26586WAT     H180000   8.564   0.352   1.872
26586WAT     H280001   8.433   0.255   1.885
26587WAT      O80002   6.134   2.118   0.880
26587WAT     H180003   6.138   2.212   0.847
26587WAT     H280004   6.055   2.107   0.940
26588WAT      O80005   1.083   7.091   4.083
26588WAT     H180006   1.048   7.005   4.045
26588WAT     H280007   1.183   7.087   4.085
26589WAT      O80008   0.135   9.667   9.737
26589WAT     H180009   0.063   9.623   9.683
26589WAT     H280010   0.222   9.622   9.719
26590WAT      O80011   5.203   6.634   1.220
26590WAT     H180012   5.197   6.666   1.314
26590WAT     H280013   5.169   6.540   1.214
26591WAT      O80014   0.275   0.074   8.334
26591WAT     H180015   0.270   0.170   8.305
26591WAT     H280016   0.209   0.020   8.281
26592WAT      O80017   2.846   3.583   1.318
26592WAT     H180018   2.901   3.665   1.336
26592WAT     H280019   2.866   3.513   1.386
26593WAT      O80020   7.705   8.240   4.551
26593WAT     H180021   7.736   8.160   4.501
26593WAT     H280022   7.622   8.277   4.508
26594WAT      O80023   8.044   2.458   1.608
26594WAT     H180024   7.974   2.388   1.623
26594WAT     H280025   8.125   2.437   1.662
26595WAT      O80026   0.756   0.251   1.272
26595WAT     H180027   0.790   0.253   1.178
26595WAT     H280028   0.797   0.173   1.320
26596WAT      O80029   3.362   4.814   1.781
26596WAT     H180030   3.454   4.815   1.742
26596WAT     H280031   3.362   4.758   1.864
26597WAT      O80032   4.002   8.809   6.089
26597WAT     H180033   3.979   8.811   5.992
26597WAT     H280034   4.060   8.731   6.108
26598WAT      O80035   7.923   2.304   0.281
26598WAT     H180036   7.838   2.356   0.276
26598WAT     H280037   7.905   2.215   0.323
26599WAT      O80038   9.485   7.941   5.915
26599WAT     H180039   9.420   7.868   5.894
26599WAT     H280040   9.493   7.951   6.014
26600WAT      O80041   8.776   9.811   0.401
26600WAT     H180042   8.754   9.737   0.338
26600WAT     H280043   8.779   9.776   0.494
26601WAT      O80044   5.659   9.522   6.349
26601WAT     H180045   5.569   9.488   6.376
26601WAT     H280046   5.727   9.494   6.417
26602WAT      O80047   4.217   7.905   6.447
26602WAT     H180048   4.153   7.851   6.391
26602WAT     H280049   4.293   7.936   6.390
26603WAT      O80050   8.977   2.925   4.550
26603WAT     H180051   8.947   2.998   4.611
26603WAT     H280052   9.066   2.950   4.510
26604WAT      O80053   7.797   1.077   4.038
26604WAT     H180054   7.725   1.143   4.059
26604WAT     H280055   7.874   1.090   4.101
26605WAT      O80056   0.546   0.788   7.917
26605WAT     H180057   0.536   0.799   8.016
26605WAT     H280058   0.634   0.826   7.888
26606WAT      O80059   2.597   8.048   2.749
26606WAT     H180060   2.562   8.026   2.841
26606WAT     H280061   2.688   8.089   2.757
26607WAT      O80062   8.207   7.820   5.520
26607WAT     H180063   8.197   7.887   5.593
26607WAT     H280064   8.233   7.731   5.559
26608WAT      O80065   3.498   6.470   6.630
26608WAT     H180066   3.583   6.468   6.683
26608WAT     H280067   3.440   6.544   6.663
26609WAT      O80068   8.029   3.046   9.684
26609WAT     H180069   8.057   2.981   9.754
26609WAT     H280070   7.954   3.102   9.719
26610WAT      O80071   1.192   4.689   2.909
26610WAT     H180072   1.242   4.696   2.995
26610WAT     H280073   1.164   4.780   2.879
26611WAT      O80074   0.021   3.808   6.018
26611WAT     H180075   0.065   3.889   5.981
26611WAT     H280076   0.090   3.738   6.036
26612WAT      O80077   2.971   4.319   1.806
26612WAT     H180078   2.999   4.327   1.710
26612WAT     H280079   2.977   4.409   1.850
26613WAT      O80080   9.284   3.914   2.303
26613WAT     H180081   9.308   3.866   2.387
26613WAT     H280082   9.197   3.879   2.268
26614WAT      O80083   3.860   4.501   0.666
26614WAT     H180084   3.882   4.411   0.705
26614WAT     H280085   3.768   4.527   0.694
26615WAT      O80086   6.443   2.820   7.548
26615WAT     H180087   6.494   2.880   7.609
26615WAT     H280088   6.354   2.861   7.528
26616WAT      O80089   9.464   8.109   4.126
26616WAT     H180090   9.383   8.149   4.083
26616WAT     H280091   9.482   8.156   4.212
26617WAT      O80092   2.902   3.311   1.139
26617WAT     H180093   2.819   3.293   1.193
26617WAT     H280094   2.882   3.381   1.071
26618WAT      O80095   8.158   6.248   5.706
26618WAT     H180096   8.145   6.337   5.663
26618WAT     H280097   8.125   6.176   5.644
26619WAT      O80098   6.461   9.388   0.895
26619WAT     H180099   6.407   9.471   0.909
26619WAT     H280100   6.525   9.377   0.972
26620WAT      O80101   8.697   8.459   3.534
26620WAT     H180102   8.779   8.402   3.539
26620WAT     H280103   8.724   8.555   3.529
26621WAT      O80104   6.944   5.547   1.164
26621WAT     H180105   7.033   5.574   1.129
26621WAT     H280106   6.883   5.525   1.088
26622WAT      O80107   5.387   2.157   6.942
26622WAT     H180108   5.478   2.198   6.937
26622WAT     H280109   5.395   2.057   6.936
26623WAT      O80110   0.619   2.494   8.087
26623WAT     H180111   0.656   2.408   8.120
26623WAT     H280112   0.680   2.569   8.112
26624WAT      O80113   1.404   5.387   8.265
26624WAT     H180114   1.460   5.309   8.236
26624WAT     H280115   1.462   5.468   8.277
26625WAT      O80116   4.549   3.676   2.568
26625WAT     H180117   4.610   3.756   2.573
26625WAT     H280118   4.458   3.705   2.539
26626WAT      O80119   5.185   7.052   8.533
26626WAT     H180120   5.152   7.099   8.616
26626WAT     H280121   5.284   7.037   8.541
26627WAT      O80122   5.546   4.119   1.920
26627WAT     H180123   5.460   4.147   1.876
26627WAT     H280124   5.587   4.198   1.966
26628WAT      O80125   7.744   3.266   7.048
26628WAT     H180126   7.662   3.208   7.051
26628WAT     H280127   7.738   3.336   7.119
26629WAT      O80128   9.844   5.214   8.977
26629WAT     H180129   9.938   5.250   8.982
26629WAT     H280130   9.815   5.211   8.882
26630WAT      O80131   7.990   6.932   4.283
26630WAT     H180132   7.914   6.892   4.231
26630WAT     H280133   7.955   7.005   4.342
26631WAT      O80134   7.858   0.026   5.485
26631WAT     H180135   7.912   0.007   5.403
26631WAT     H280136   7.825  -0.061   5.523
26632WAT      O80137   1.369   2.122   0.339
26632WAT     H180138   1.377   2.031   0.378
26632WAT     H280139   1.342   2.115   0.243
26633WAT      O80140   1.460   1.654   1.291
26633WAT     H180141   1.547   1.674   1.245
26633WAT     H280142   1.388   1.644   1.222
26634WAT      O80143   7.182   0.054   8.558
26634WAT     H180144   7.176  -0.019   8.626
26634WAT     H280145   7.167   0.015   8.467
26635WAT      O80146   0.584   0.104   2.308
26635WAT     H180147   0.555   0.097   2.404
26635WAT     H280148   0.652   0.034   2.288
26636WAT      O80149   0.930   1.317   1.745
26636WAT     H180150   0.989   1.355   1.816
26636WAT     H280151   0.835   1.318   1.776
26637WAT      O80152   4.364   7.025   9.388
26637WAT     H180153   4.410   7.010   9.300
26637WAT     H280154   4.313   6.942   9.413
26638WAT      O80155   7.075   8.873   6.419
26638WAT     H180156   7.088   8.785   6.465
26638WAT     H280157   6.986   8.872   6.372
26639WAT      O80158   8.708   0.996   5.033
26639WAT     H180159   8.632   0.965   5.090
26639WAT     H280160   8.759   0.917   4.999
26640WAT      O80161   6.796   3.062   9.465
26640WAT     H180162   6.790   3.094   9.560
26640WAT     H280163   6.722   3.103   9.411
26641WAT      O80164   7.779   1.935   7.924
26641WAT     H180165   7.689   1.972   7.900
26641WAT     H280166   7.840   1.942   7.845
26642WAT      O80167   2.366   3.845   4.491
26642WAT     H180168   2.393   3.908   4.564
26642WAT     H280169   2.388   3.751   4.518
26643WAT      O80170   0.496   8.151   5.539
26643WAT     H180171   0.479   8.055   5.558
26643WAT     H280172   0.557   8.159   5.460
26644WAT      O80173   7.425   6.362   5.115
26644WAT     H180174   7.471   6.446   5.145
26644WAT     H280175   7.374   6.380   5.032
26645WAT      O80176   5.789   9.711   3.192
26645WAT     H180177   5.690   9.728   3.190
26645WAT     H280178   5.809   9.646   3.266
26646WAT      O80179   3.312   4.630   7.440
26646WAT     H180180   3.254   4.631   7.359
26646WAT     H280181   3.354   4.720   7.452
26647WAT      O80182   2.102   5.058   6.457
26647WAT     H180183   2.116   5.047   6.359
26647WAT     H280184   2.174   5.010   6.507
26648WAT      O80185   1.343   4.634   9.302
26648WAT     H180186   1.351   4.575   9.222
26648WAT     H280187   1.434   4.652   9.339
26649WAT      O80188   0.939   9.583   2.805
26649WAT     H180189   0.849   9.548   2.832
26649WAT     H280190   0.958   9.668   2.853
26650WAT      O80191   8.531   2.538   3.506
26650WAT     H180192   8.578   2.600   3.569
26650WAT     H280193   8.441   2.575   3.485
26651WAT      O80194   5.547   8.655   6.537
26651WAT     H180195   5.611   8.717   6.492
26651WAT     H280196   5.488   8.613   6.468
26652WAT      O80197   4.699   0.988   8.424
26652WAT     H180198   4.633   1.012   8.353
26652WAT     H280199   4.653   0.937   8.497
26653WAT      O80200   2.623   0.618   9.012
26653WAT     H180201   2.684   0.539   9.011
26653WAT     H280202   2.642   0.676   8.933
26654WAT      O80203   0.751   5.859   4.016
26654WAT     H180204   0.696   5.887   3.937
26654WAT     H280205   0.840   5.905   4.012
26655WAT      O80206   8.505   3.701   7.905
26655WAT     H180207   8.579   3.717   7.839
26655WAT     H280208   8.417   3.722   7.863
26656WAT      O80209   8.537   0.732   4.850
26656WAT     H180210   8.606   0.673   4.891
26656WAT     H280211   8.446   0.699   4.876
26657WAT      O80212   5.922   7.145   4.202
26657WAT     H180213   5.837   7.122   4.154
26657WAT     H280214   5.999   7.142   4.137
26658WAT      O80215   5.730   5.727   4.237
26658WAT     H180216   5.651   5.728   4.298
26658WAT     H280217   5.795   5.658   4.267
26659WAT      O80218   5.844   7.976   3.335
26659WAT     H180219   5.925   7.917   3.339
26659WAT     H280220   5.807   7.977   3.243
26660WAT      O80221   3.687   1.879   3.544
26660WAT     H180222   3.753   1.861   3.618
26660WAT     H280223   3.621   1.804   3.539
26661WAT      O80224   9.444   5.409   0.417
26661WAT     H180225   9.429   5.320   0.461
26661WAT     H280226   9.411   5.405   0.322
26662WAT      O80227   0.474   0.076   0.399
26662WAT     H180228   0.518   0.154   0.443
26662WAT     H280229   0.382   0.065   0.434
26663WAT      O80230   1.393   6.470   1.732
26663WAT     H180231   1.367   6.488   1.637
26663WAT     H280232   1.407   6.557   1.780
26664WAT      O80233   5.582   4.064   6.729
26664WAT     H180234   5.632   3.980   6.747
26664WAT     H280235   5.485   4.050   6.748
26665WAT      O80236   7.833   9.235   8.734
26665WAT     H180237   7.893   9.180   8.677
26665WAT     H280238   7.857   9.331   8.726
26666WAT      O80239   9.653   3.507   6.808
26666WAT     H180240   9.708   3.538   6.886
26666WAT     H280241   9.702   3.523   6.723
26667WAT      O80242   6.847   7.116   0.954
26667WAT     H180243   6.782   7.076   0.890
26667WAT     H280244   6.823   7.089   1.047
26668WAT      O80245   4.044   5.808   2.901
26668WAT     H180246   4.029   5.853   2.813
26668WAT     H280247   4.140   5.820   2.928
26669WAT      O80248   3.226   5.502   9.085
26669WAT     H180249   3.241   5.543   8.995
26669WAT     H280250   3.254   5.566   9.156
26670WAT      O80251   7.340   4.393   7.981
26670WAT     H180252   7.242   4.405   7.970
26670WAT     H280253   7.361   4.298   8.003
26671WAT      O80254   7.779   8.819   1.852
26671WAT     H180255   7.854   8.766   1.890
26671WAT     H280256   7.812   8.909   1.824
26672WAT      O80257   3.298   3.738   3.633
26672WAT     H180258   3.348   3.823   3.614
26672WAT     H280259   3.232   3.721   3.560
26673WAT      O80260   5.984   1.420   7.346
26673WAT     H180261   6.017   1.433   7.253
26673WAT     H280262   5.917   1.490   7.368
26674WAT      O80263   5.477   7.565   5.814
26674WAT     H180264   5.404   7.560   5.882
26674WAT     H280265   5.566   7.565   5.861
26675WAT      O80266   8.499   8.172   3.741
26675WAT     H180267   8.550   8.253   3.769
26675WAT     H280268   8.426   8.154   3.807
26676WAT      O80269   1.328   6.560   6.316
26676WAT     H180270   1.398   6.617   6.357
26676WAT     H280271   1.332   6.568   6.216
26677WAT      O80272   8.056   8.529   9.492
26677WAT     H180273   8.073   8.466   9.567
26677WAT     H280274   8.025   8.617   9.529
26678WAT      O80275   9.586   0.314   6.787
26678WAT     H180276   9.607   0.375   6.863
26678WAT     H280277   9.670   0.290   6.739
26679WAT      O80278   5.266   0.876   0.257
26679WAT     H180279   5.183   0.828   0.228
26679WAT     H280280   5.336   0.866   0.185
26680WAT      O80281   8.927   5.534   7.308
26680WAT     H180282   8.938   5.625   7.347
26680WAT     H280283   8.851   5.487   7.353
26681WAT      O80284   2.223   4.400   9.570
26681WAT     H180285   2.303   4.389   9.629
26681WAT     H280286   2.247   4.460   9.493
26682WAT      O80287   1.649   9.522   3.516
26682WAT     H180288   1.615   9.531   3.609
26682WAT     H280289   1.748   9.539   3.515
26683WAT      O80290   9.788   7.673   9.505
26683WAT     H180291   9.725   7.668   9.428
26683WAT     H280292   9.809   7.768   9.525
26684WAT      O80293   9.128   0.357   4.418
26684WAT     H180294   9.055   0.312   4.471
26684WAT     H280295   9.122   0.456   4.430
26685WAT      O80296   9.581   4.966   4.756
26685WAT     H180297   9.589   4.945   4.853
26685WAT     H280298   9.661   4.930   4.707
26686WAT      O80299   9.273   8.116   2.546
26686WAT     H180300   9.293   8.198   2.493
26686WAT     H280301   9.359   8.079   2.583
26687WAT      O80302   6.085   6.231   8.649
26687WAT     H180303   6.184   6.216   8.649
26687WAT     H280304   6.046   6.199   8.562
26688WAT      O80305   4.301   0.754   2.620
26688WAT     H180306   4.224   0.774   2.560
26688WAT     H280307   4.330   0.659   2.606
26689WAT      O80308   0.169   3.269   5.949
26689WAT     H180309   0.248   3.327   5.971
26689WAT     H280310   0.158   3.199   6.020
26690WAT      O80311   6.010   1.159   8.880
26690WAT     H180312   6.010   1.221   8.958
26690WAT     H280313   5.949   1.081   8.900
26691WAT      O80314   2.114   4.484   1.816
26691WAT     H180315   2.158   4.470   1.905
26691WAT     H280316   2.026   4.530   1.830
26692WAT      O80317   4.722   3.497   7.645
26692WAT     H180318   4.798   3.505   7.709
26692WAT     H280319   4.700   3.587   7.607
26693WAT      O80320   0.509   2.203   3.078
26693WAT     H180321   0.585   2.145   3.107
26693WAT     H280322   0.516   2.292   3.124
26694WAT      O80323   2.594   2.220   6.816
26694WAT     H180324   2.613   2.122   6.813
26694WAT     H280325   2.497   2.236   6.795
26695WAT      O80326   1.869   0.375   8.355
26695WAT     H180327   1.817   0.383   8.270
26695WAT     H280328   1.825   0.308   8.415
26696WAT      O80329   6.924   6.230   8.257
26696WAT     H180330   6.926   6.133   8.234
26696WAT     H280331   6.994   6.278   8.205
26697WAT      O80332   7.515   2.137   5.894
26697WAT     H180333   7.515   2.038   5.886
26697WAT     H280334   7.429   2.174   5.856
26698WAT      O80335   2.767   5.029   1.720
26698WAT     H180336   2.675   5.061   1.742
26698WAT     H280337   2.803   5.080   1.642
26699WAT      O80338   5.074   0.390   6.980
26699WAT     H180339   5.035   0.334   6.908
26699WAT     H280340   5.004   0.453   7.015
26700WAT      O80341   3.290   2.300   8.754
26700WAT     H180342   3.384   2.288   8.784
26700WAT     H280343   3.274   2.248   8.670
26701WAT      O80344   6.512   8.948   4.672
26701WAT     H180345   6.521   8.861   4.721
26701WAT     H280346   6.590   9.006   4.692
26702WAT      O80347   3.314   5.617   4.581
26702WAT     H180348   3.215   5.621   4.588
26702WAT     H280349   3.349   5.703   4.543
26703WAT      O80350   3.237   7.812   9.658
26703WAT     H180351   3.155   7.761   9.634
26703WAT     H280352   3.318   7.757   9.636
26704WAT      O80353   0.400   8.579   7.760
26704WAT     H180354   0.327   8.512   7.750
26704WAT     H280355   0.367   8.669   7.732
26705WAT      O80356   4.316   1.220   8.812
26705WAT     H180357   4.251   1.285   8.773
26705WAT     H280358   4.320   1.232   8.912
26706WAT      O80359   4.282   1.191   6.646
26706WAT     H180360   4.270   1.235   6.736
26706WAT     H280361   4.306   1.260   6.578
26707WAT      O80362   2.856   3.517   9.441
26707WAT     H180363   2.870   3.470   9.528
26707WAT     H280364   2.885   3.457   9.366
26708WAT      O80365   9.028   8.058   7.724
26708WAT     H180366   9.101   8.007   7.678
26708WAT     H280367   9.010   8.143   7.673
26709WAT      O80368   0.603   3.249   8.804
26709WAT     H180369   0.550   3.323   8.762
26709WAT     H280370   0.543   3.196   8.865
26710WAT      O80371   0.135   7.572   7.904
26710WAT     H180372   0.066   7.520   7.953
26710WAT     H280373   0.196   7.618   7.969
26711WAT      O80374   4.786   3.974   5.967
26711WAT     H180375   4.695   3.940   5.943
26711WAT     H280376   4.840   3.988   5.884
26712WAT      O80377   4.072   9.833   0.656
26712WAT     H180378   4.077   9.911   0.718
26712WAT     H280379   4.165   9.805   0.631
26713WAT      O80380   0.760   5.611   9.378
26713WAT     H180381   0.748   5.655   9.467
26713WAT     H280382   0.749   5.678   9.305
26714WAT      O80383   6.683   6.551   7.269
26714WAT     H180384   6.710   6.539   7.173
26714WAT     H280385   6.609   6.618   7.274
26715WAT      O80386   3.668   4.870   2.352
26715WAT     H180387   3.723   4.951   2.372
26715WAT     H280388   3.667   4.853   2.253
26716WAT      O80389   8.601   6.374   3.931
26716WAT     H180390   8.613   6.306   4.003
26716WAT     H280391   8.559   6.332   3.851
26717WAT      O80392   6.902   8.750   4.058
26717WAT     H180393   6.992   8.753   4.015
26717WAT     H280394   6.835   8.717   3.991
26718WAT      O80395   6.556   0.958   8.306
26718WAT     H180396   6.619   0.993   8.374
26718WAT     H280397   6.510   1.035   8.261
26719WAT      O80398   4.639   1.167   6.430
26719WAT     H180399   4.603   1.130   6.344
26719WAT     H280400   4.610   1.262   6.440
26720WAT      O80401   9.384   8.058   9.631
26720WAT     H180402   9.417   8.116   9.705
26720WAT     H280403   9.422   7.966   9.643
26721WAT      O80404   9.177   1.402   5.430
26721WAT     H180405   9.169   1.348   5.347
26721WAT     H280406   9.122   1.361   5.503
26722WAT      O80407   1.502   3.279   2.133
26722WAT     H180408   1.473   3.300   2.227
26722WAT     H280409   1.543   3.188   2.130
26723WAT      O80410   8.210   9.639   7.032
26723WAT     H180411   8.111   9.640   7.049
26723WAT     H280412   8.252   9.564   7.082
26724WAT      O80413   3.845   3.439   1.019
26724WAT     H180414   3.823   3.531   0.985
26724WAT     H280415   3.760   3.385   1.024
26725WAT      O80416   9.880   4.246   8.926
26725WAT     H180417   9.919   4.269   8.836
26725WAT     H280418   9.946   4.191   8.977
26726WAT      O80419   8.444   8.836   1.606
26726WAT     H180420   8.365   8.896   1.596
26726WAT     H280421   8.448   8.772   1.529
26727WAT      O80422   8.727   8.881   4.533
26727WAT     H180423   8.650   8.818   4.540
26727WAT     H280424   8.811   8.834   4.563
26728WAT      O80425   0.110   3.466   4.290
26728WAT     H180426   0.084   3.491   4.197
26728WAT     H280427   0.208   3.483   4.303
26729WAT      O80428   3.856   1.490   3.109
26729WAT     H180429   3.856   1.546   3.192
26729WAT     H280430   3.938   1.433   3.107
26730WAT      O80431   9.758   1.078   9.208
26730WAT     H180432   9.730   0.990   9.248
26730WAT     H280433   9.831   1.118   9.263
26731WAT      O80434   4.877   2.251   1.183
26731WAT     H180435   4.965   2.271   1.226
26731WAT     H280436   4.832   2.336   1.158
26732WAT      O80437   9.521   7.163   4.190
26732WAT     H180438   9.584   7.164   4.113
26732WAT     H280439   9.433   7.126   4.160
26733WAT      O80440   4.932   9.779   3.105
26733WAT     H180441   4.888   9.731   3.181
26733WAT     H280442   4.950   9.715   3.030
26734WAT      O80443   7.092   1.258   7.717
26734WAT     H180444   7.085   1.158   7.719
26734WAT     H280445   7.187   1.285   7.731
26735WAT      O80446   6.665   8.238   6.133
26735WAT     H180447   6.677   8.295   6.051
26735WAT     H280448   6.754   8.201   6.161
26736WAT      O80449   5.481   7.198   5.430
26736WAT     H180450   5.385   7.172   5.421
26736WAT     H280451   5.530   7.129   5.482
26737WAT      O80452   7.324   6.331   4.108
26737WAT     H180453   7.359   6.296   4.195
26737WAT     H280454   7.306   6.429   4.117
26738WAT      O80455   1.644   2.176   4.038
26738WAT     H180456   1.544   2.180   4.037
26738WAT     H280457   1.677   2.177   4.132
26739WAT      O80458   2.245   2.546   6.823
26739WAT     H180459   2.153   2.575   6.800
26739WAT     H280460   2.310   2.586   6.758
26740WAT      O80461   7.547   0.129   1.785
26740WAT     H180462   7.632   0.178   1.806
26740WAT     H280463   7.565   0.062   1.713
26741WAT      O80464   3.361   6.287   7.107
26741WAT     H180465   3.375   6.242   7.195
26741WAT     H280466   3.280   6.346   7.113
26742WAT      O80467   9.473   2.932   5.998
26742WAT     H180468   9.508   3.003   5.937
26742WAT     H280469   9.525   2.932   6.083
26743WAT      O80470   2.508   2.993   3.606
26743WAT     H180471   2.450   2.929   3.657
26743WAT     H280472   2.560   3.049   3.671
26744WAT      O80473   8.276   7.821   0.613
26744WAT     H180474   8.194   7.764   0.607
26744WAT     H280475   8.308   7.843   0.521
26745WAT      O80476   6.116   3.083   8.926
26745WAT     H180477   6.099   3.097   8.829
26745WAT     H280478   6.029   3.074   8.975
26746WAT      O80479   0.652   2.459   1.103
26746WAT     H180480   0.722   2.528   1.086
26746WAT     H280481   0.696   2.373   1.131
26747WAT      O80482   8.131   3.528   2.770
26747WAT     H180483   8.161   3.554   2.862
26747WAT     H280484   8.177   3.585   2.702
26748WAT      O80485   3.756   5.845   6.162
26748WAT     H180486   3.719   5.937   6.169
26748WAT     H280487   3.723   5.790   6.238
26749WAT      O80488   7.576   0.400   7.967
26749WAT     H180489   7.515   0.370   7.893
26749WAT     H280490   7.521   0.427   8.046
26750WAT      O80491   3.205   2.593   3.863
26750WAT     H180492   3.252   2.546   3.938
26750WAT     H280493   3.206   2.692   3.881
26751WAT      O80494   3.280   3.811   1.462
26751WAT     H180495   3.335   3.886   1.427
26751WAT     H280496   3.275   3.738   1.393
26752WAT      O80497   8.231   8.517   0.074
26752WAT     H180498   8.283   8.599   0.097
26752WAT     H280499   8.193   8.476   0.157
26753WAT      O80500   9.678   8.951   6.009
26753WAT     H180501   9.634   9.039   5.991
26753WAT     H280502   9.774   8.967   6.032
26754WAT      O80503   0.131   6.539   1.945
26754WAT     H180504   0.115   6.492   2.032
26754WAT     H280505   0.162   6.473   1.877
26755WAT      O80506   0.358   5.114   3.236
26755WAT     H180507   0.261   5.122   3.260
26755WAT     H280508   0.382   5.018   3.224
26756WAT      O80509   2.898   8.118   0.291
26756WAT     H180510   2.870   8.105   0.196
26756WAT     H280511   2.860   8.044   0.347
26757WAT      O80512   2.462   2.268   2.423
26757WAT     H180513   2.536   2.213   2.461
26757WAT     H280514   2.447   2.241   2.327
26758WAT      O80515   7.246   8.966   1.503
26758WAT     H180516   7.210   9.056   1.477
26758WAT     H280517   7.341   8.959   1.473
26759WAT      O80518   4.439   9.156   8.725
26759WAT     H180519   4.521   9.106   8.698
26759WAT     H280520   4.459   9.213   8.805
26760WAT      O80521   2.689   0.491   1.061
26760WAT     H180522   2.682   0.442   0.974
26760WAT     H280523   2.725   0.430   1.132
26761WAT      O80524   2.916   3.301   2.075
26761WAT     H180525   2.985   3.366   2.044
26761WAT     H280526   2.861   3.343   2.147
26762WAT      O80527   7.060   3.721   0.218
26762WAT     H180528   6.976   3.771   0.242
26762WAT     H280529   7.081   3.735   0.121
26763WAT      O80530   9.732   4.111   1.233
26763WAT     H180531   9.824   4.090   1.201
26763WAT     H280532   9.668   4.043   1.198
26764WAT      O80533   1.170   2.497   9.124
26764WAT     H180534   1.123   2.547   9.197
26764WAT     H280535   1.216   2.562   9.064
26765WAT      O80536   9.233   2.504   9.891
26765WAT     H180537   9.246   2.591   9.843
26765WAT     H280538   9.217   2.431   9.824
26766WAT      O80539   8.444   2.120   3.490
26766WAT     H180540   8.385   2.164   3.557
26766WAT     H280541   8.494   2.190   3.438
26767WAT      O80542   1.443   2.397   5.825
26767WAT     H180543   1.511   2.419   5.894
26767WAT     H280544   1.354   2.429   5.854
26768WAT      O80545   5.456   3.083   5.532
26768WAT     H180546   5.405   2.997   5.522
26768WAT     H280547   5.512   3.098   5.451
26769WAT      O80548   9.195   4.629   6.113
26769WAT     H180549   9.097   4.641   6.126
26769WAT     H280550   9.231   4.703   6.057
26770WAT      O80551   3.247   0.950   1.699
26770WAT     H180552   3.294   1.018   1.643
26770WAT     H280553   3.314   0.886   1.737
26771WAT      O80554   1.706   6.025   1.848
26771WAT     H180555   1.761   6.109   1.847
26771WAT     H280556   1.731   5.968   1.770
26772WAT      O80557   2.297   8.845   1.153
26772WAT     H180558   2.324   8.901   1.232
26772WAT     H280559   2.330   8.751   1.166
26773WAT      O80560   0.748   2.649   7.084
26773WAT     H180561   0.797   2.562   7.089
26773WAT     H280562   0.651   2.632   7.064
26774WAT      O80563   1.127   3.846   2.544
26774WAT     H180564   1.130   3.748   2.527
26774WAT     H280565   1.040   3.870   2.586
26775WAT      O80566   7.179   6.086   3.521
26775WAT     H180567   7.196   6.184   3.515
26775WAT     H280568   7.195   6.044   3.432
26776WAT      O80569   3.516   9.507   4.076
26776WAT     H180570   3.502   9.539   4.169
26776WAT     H280571   3.490   9.579   4.011
26777WAT      O80572   6.301   3.637   5.791
26777WAT     H180573   6.348   3.705   5.848
26777WAT     H280574   6.240   3.683   5.727
26778WAT      O80575   6.763   3.964   5.595
26778WAT     H180576   6.751   3.875   5.552
26778WAT     H280577   6.852   3.967   5.640
26779WAT      O80578   9.363   4.254   3.686
26779WAT     H180579   9.342   4.168   3.640
26779WAT     H280580   9.426   4.308   3.630
26780WAT      O80581   4.105   9.500   4.293
26780WAT     H180582   4.120   9.413   4.247
26780WAT     H280583   4.169   9.509   4.369
26781WAT      O80584   2.187   3.845   3.249
26781WAT     H180585   2.125   3.922   3.266
26781WAT     H280586   2.265   3.851   3.310
26782WAT      O80587   2.470   5.873   5.981
26782WAT     H180588   2.476   5.926   5.896
26782WAT     H280589   2.550   5.893   6.039
26783WAT      O80590   7.318   9.485   6.882
26783WAT     H180591   7.370   9.570   6.892
26783WAT     H280592   7.222   9.507   6.865
26784WAT      O80593   6.515   4.562   4.719
26784WAT     H180594   6.482   4.641   4.667
26784WAT     H280595   6.446   4.534   4.785
26785WAT      O80596   2.509   6.419   0.463
26785WAT     H180597   2.543   6.496   0.517
26785WAT     H280598   2.567   6.406   0.383
26786WAT      O80599   6.498   6.162   0.184
26786WAT     H180600   6.502   6.250   0.138
26786WAT     H280601   6.403   6.140   0.205
26787WAT      O80602   6.577   6.251   5.173
26787WAT     H180603   6.619   6.160   5.184
26787WAT     H280604   6.557   6.266   5.077
26788WAT      O80605   1.171   2.904   6.083
26788WAT     H180606   1.266   2.870   6.088
26788WAT     H280607   1.162   2.986   6.140
26789WAT      O80608   0.526   3.586   5.526
26789WAT     H180609   0.428   3.597   5.547
26789WAT     H280610   0.580   3.616   5.604
26790WAT      O80611   6.232   3.175   2.135
26790WAT     H180612   6.306   3.222   2.182
26790WAT     H280613   6.211   3.223   2.050
26791WAT      O80614   5.135   5.298   0.133
26791WAT     H180615   5.225   5.320   0.170
26791WAT     H280616   5.077   5.379   0.135
26792WAT      O80617   3.514   0.700   7.741
26792WAT     H180618   3.579   0.716   7.815
26792WAT     H280619   3.547   0.743   7.657
26793WAT      O80620   3.684   9.669   4.672
26793WAT     H180621   3.672   9.768   4.665
26793WAT     H280622   3.625   9.634   4.744
26794WAT      O80623   4.976   1.593   8.614
26794WAT     H180624   5.017   1.667   8.561
26794WAT     H280625   5.039   1.515   8.617
26795WAT      O80626   7.295   8.048   9.739
26795WAT     H180627   7.303   8.075   9.835
26795WAT     H280628   7.299   7.948   9.732
26796WAT      O80629   3.649   4.307   3.512
26796WAT     H180630   3.732   4.252   3.526
26796WAT     H280631   3.675   4.400   3.485
26797WAT      O80632   4.309   8.948   3.965
26797WAT     H180633   4.323   8.970   3.869
26797WAT     H280634   4.243   9.012   4.005
26798WAT      O80635   8.272   4.568   3.032
26798WAT     H180636   8.351   4.597   3.086
26798WAT     H280637   8.204   4.641   3.031
26799WAT      O80638   0.957   3.311   7.416
26799WAT     H180639   1.055   3.318   7.435
26799WAT     H280640   0.926   3.393   7.369
26800WAT      O80641   4.987   6.364   1.947
26800WAT     H180642   5.005   6.278   1.996
26800WAT     H280643   4.908   6.353   1.887
26801WAT      O80644   5.214   2.099   9.548
26801WAT     H180645   5.196   2.003   9.570
26801WAT     H280646   5.297   2.129   9.596
26802WAT      O80647   6.091   8.203   4.577
26802WAT     H180648   6.013   8.175   4.632
26802WAT     H280649   6.068   8.285   4.525
26803WAT      O80650   2.166   0.253   1.731
26803WAT     H180651   2.223   0.263   1.650
26803WAT     H280652   2.122   0.340   1.752
26804WAT      O80653   7.435   5.714   2.753
26804WAT     H180654   7.422   5.802   2.799
26804WAT     H280655   7.477   5.649   2.817
26805WAT      O80656   0.373   1.318   9.559
26805WAT     H180657   0.362   1.219   9.562
26805WAT     H280658   0.461   1.344   9.600
26806WAT      O80659   0.586   0.721   5.583
26806WAT     H180660   0.574   0.623   5.596
26806WAT     H280661   0.539   0.771   5.656
26807WAT      O80662   0.436   9.211   0.733
26807WAT     H180663   0.388   9.206   0.821
26807WAT     H280664   0.515   9.150   0.735
26808WAT      O80665   0.957   1.571   2.162
26808WAT     H180666   0.901   1.518   2.226
26808WAT     H280667   0.956   1.527   2.072
26809WAT      O80668   3.623   8.247   2.907
26809WAT     H180669   3.696   8.276   2.845
26809WAT     H280670   3.585   8.327   2.953
26810WAT      O80671   4.782   6.699   5.999
26810WAT     H180672   4.785   6.599   6.004
26810WAT     H280673   4.839   6.731   5.923
26811WAT      O80674   5.736   2.563   3.810
26811WAT     H180675   5.690   2.479   3.779
26811WAT     H280676   5.687   2.642   3.773
26812WAT      O80677   0.876   2.941   8.215
26812WAT     H180678   0.886   2.966   8.119
26812WAT     H280679   0.966   2.929   8.256
26813WAT      O80680   5.094   1.824   3.868
26813WAT     H180681   5.139   1.846   3.782
26813WAT     H280682   5.130   1.884   3.940
26814WAT      O80683   7.031   3.877   5.943
26814WAT     H180684   7.056   3.788   5.980
26814WAT     H280685   7.113   3.933   5.932
26815WAT      O80686   7.403   1.427   9.149
26815WAT     H180687   7.436   1.449   9.058
26815WAT     H280688   7.323   1.483   9.171
26816WAT      O80689   3.012   9.216   8.634
26816WAT     H180690   3.084   9.231   8.566
26816WAT     H280691   2.923   9.216   8.589
26817WAT      O80692   0.754   9.261   1.856
26817WAT     H180693   0.733   9.346   1.903
26817WAT     H280694   0.814   9.205   1.913
26818WAT      O80695   9.499   3.467   7.974
26818WAT     H180696   9.565   3.460   8.049
26818WAT     H280697   9.545   3.447   7.887
26819WAT      O80698   0.577   9.388   3.723
26819WAT     H180699   0.572   9.472   3.669
26819WAT     H280700   0.653   9.332   3.689
26820WAT      O80701   2.089   3.985   8.937
26820WAT     H180702   2.159   4.023   8.877
26820WAT     H280703   2.132   3.944   9.017
26821WAT      O80704   7.538   1.001   7.942
26821WAT     H180705   7.539   0.909   7.904
26821WAT     H280706   7.613   1.055   7.901
26822WAT      O80707   1.853   6.879   9.702
26822WAT     H180708   1.858   6.885   9.802
26822WAT     H280709   1.892   6.962   9.662
26823WAT      O80710   7.313   3.690   4.911
26823WAT     H180711   7.335   3.724   5.002
26823WAT     H280712   7.264   3.603   4.919
26824WAT      O80713   4.126   9.331   9.289
26824WAT     H180714   4.140   9.266   9.215
26824WAT     H280715   4.213   9.350   9.334
26825WAT      O80716   6.344   5.537   7.392
26825WAT     H180717   6.327   5.603   7.320
26825WAT     H280718   6.272   5.468   7.392
26826WAT      O80719   0.503   5.696   9.156
26826WAT     H180720   0.472   5.771   9.098
26826WAT     H280721   0.431   5.671   9.220
26827WAT      O80722   4.073   6.858   9.659
26827WAT     H180723   3.979   6.891   9.672
26827WAT     H280724   4.088   6.776   9.714
26828WAT      O80725   6.846   5.271   5.087
26828WAT     H180726   6.907   5.195   5.111
26828WAT     H280727   6.887   5.324   5.012
26829WAT      O80728   7.177   2.738   7.262
26829WAT     H180729   7.204   2.818   7.316
26829WAT     H280730   7.091   2.758   7.214
26830WAT      O80731   1.665   1.329   6.486
26830WAT     H180732   1.642   1.255   6.550
26830WAT     H280733   1.753   1.368   6.510
26831WAT      O80734   1.174   2.240   8.196
26831WAT     H180735   1.100   2.291   8.241
26831WAT     H280736   1.217   2.179   8.262
26832WAT      O80737   1.915   1.292   6.871
26832WAT     H180738   1.905   1.296   6.971
26832WAT     H280739   1.836   1.335   6.828
26833WAT      O80740   4.227   4.054   7.376
26833WAT     H180741   4.154   3.986   7.369
26833WAT     H280742   4.250   4.088   7.285
26834WAT      O80743   4.162   1.777   2.292
26834WAT     H180744   4.211   1.698   2.328
26834WAT     H280745   4.074   1.748   2.255
26835WAT      O80746   0.752   6.835   2.611
26835WAT     H180747   0.746   6.934   2.603
26835WAT     H280748   0.811   6.799   2.538
26836WAT      O80749   8.869   4.405   0.937
26836WAT     H180750   8.895   4.491   0.981
26836WAT     H280751   8.795   4.421   0.872
26837WAT      O80752   9.139   8.666   1.352
26837WAT     H180753   9.198   8.606   1.406
26837WAT     H280754   9.186   8.752   1.334
26838WAT      O80755   2.830   4.368   4.193
26838WAT     H180756   2.804   4.465   4.190
26838WAT     H280757   2.791   4.327   4.276
26839WAT      O80758   8.847   0.236   4.542
26839WAT     H180759   8.824   0.205   4.450
26839WAT     H280760   8.836   0.161   4.607
26840WAT      O80761   0.214   0.148   5.471
26840WAT     H180762   0.126   0.137   5.424
26840WAT     H280763   0.282   0.183   5.406
26841WAT      O80764   0.841   0.519   1.908
26841WAT     H180765   0.903   0.575   1.853
26841WAT     H280766   0.833   0.558   1.999
26842WAT      O80767   0.396   5.181   6.754
26842WAT     H180768   0.392   5.269   6.708
26842WAT     H280769   0.423   5.111   6.687
26843WAT      O80770   3.616   9.381   3.736
26843WAT     H180771   3.605   9.479   3.753
26843WAT     H280772   3.561   9.328   3.801
26844WAT      O80773   7.172   0.113   0.823
26844WAT     H180774   7.156   0.054   0.903
26844WAT     H280775   7.162   0.058   0.740
26845WAT      O80776   0.242   6.808   0.868
26845WAT     H180777   0.143   6.798   0.861
26845WAT     H280778   0.282   6.722   0.899
26846WAT      O80779   3.557   7.995   6.843
26846WAT     H180780   3.565   8.091   6.872
26846WAT     H280781   3.538   7.938   6.923
26847WAT      O80782   4.078   5.934   4.825
26847WAT     H180783   4.096   6.018   4.773
26847WAT     H280784   3.996   5.890   4.789
26848WAT      O80785   5.594   0.998   7.143
26848WAT     H180786   5.640   1.064   7.203
26848WAT     H280787   5.495   1.009   7.152
26849WAT      O80788   6.521   3.114   6.041
26849WAT     H180789   6.476   3.064   5.968
26849WAT     H280790   6.603   3.064   6.070
26850WAT      O80791   6.651   6.534   1.546
26850WAT     H180792   6.587   6.460   1.528
26850WAT     H280793   6.681   6.529   1.642
26851WAT      O80794   7.037   3.115   0.856
26851WAT     H180795   7.071   3.203   0.888
26851WAT     H280796   6.941   3.105   0.880
26852WAT      O80797   5.254   5.008   6.444
26852WAT     H180798   5.200   4.959   6.375
26852WAT     H280799   5.251   4.959   6.531
26853WAT      O80800   7.199   8.586   8.997
26853WAT     H180801   7.104   8.603   9.025
26853WAT     H280802   7.229   8.498   9.034
26854WAT      O80803   2.498   3.308   1.625
26854WAT     H180804   2.490   3.223   1.573
26854WAT     H280805   2.591   3.344   1.616
26855WAT      O80806   9.326   4.138   5.398
26855WAT     H180807   9.395   4.066   5.385
26855WAT     H280808   9.371   4.223   5.424
26856WAT      O80809   8.059   2.106   2.907
26856WAT     H180810   7.963   2.081   2.898
26856WAT     H280811   8.109   2.030   2.948
26857WAT      O80812   8.714   6.611   5.207
26857WAT     H180813   8.644   6.673   5.244
26857WAT     H280814   8.670   6.533   5.163
26858WAT      O80815   5.226   6.620   2.930
26858WAT     H180816   5.171   6.647   3.010
26858WAT     H280817   5.304   6.681   2.921
26859WAT      O80818   3.332   1.072   4.672
26859WAT     H180819   3.309   1.134   4.747
26859WAT     H280820   3.325   0.977   4.704
26860WAT      O80821   8.015   4.447   8.118
26860WAT     H180822   7.957   4.379   8.164
26860WAT     H280823   8.098   4.403   8.085
26861WAT      O80824   9.207   5.401   4.793
26861WAT     H180825   9.163   5.350   4.720
26861WAT     H280826   9.306   5.408   4.774
26862WAT      O80827   0.139   7.147   8.020
26862WAT     H180828   0.092   7.191   7.944
26862WAT     H280829   0.163   7.053   7.994
26863WAT      O80830   9.209   1.961   9.830
26863WAT     H180831   9.166   1.988   9.744
26863WAT     H280832   9.151   1.989   9.907
26864WAT      O80833   0.429   8.941   5.832
26864WAT     H180834   0.377   8.874   5.778
26864WAT     H280835   0.526   8.917   5.829
26865WAT      O80836   9.113   0.111   3.941
26865WAT     H180837   9.087   0.015   3.945
26865WAT     H280838   9.102   0.152   4.032
26866WAT      O80839   5.803   5.432   9.847
26866WAT     H180840   5.880   5.493   9.862
26866WAT     H280841   5.731   5.451   9.914
26867WAT      O80842   4.707   3.136   6.076
26867WAT     H180843   4.785   3.187   6.041
26867WAT     H280844   4.632   3.199   6.097
26868WAT      O80845   1.657   3.327   0.581
26868WAT     H180846   1.639   3.403   0.644
26868WAT     H280847   1.590   3.254   0.597
26869WAT      O80848   6.883   4.894   1.486
26869WAT     H180849   6.821   4.818   1.502
26869WAT     H280850   6.924   4.923   1.572
26870WAT      O80851   0.475   1.752   3.678
26870WAT     H180852   0.531   1.756   3.596
26870WAT     H280853   0.431   1.841   3.693
26871WAT      O80854   0.667   8.730   5.208
26871WAT     H180855   0.703   8.720   5.301
26871WAT     H280856   0.664   8.641   5.163
26872WAT      O80857   2.338   3.115   3.450
26872WAT     H180858   2.418   3.067   3.486
26872WAT     H280859   2.307   3.183   3.517
26873WAT      O80860   0.440   1.125   8.422
26873WAT     H180861   0.373   1.136   8.495
26873WAT     H280862   0.532   1.137   8.460
26874WAT      O80863   0.799   8.796   4.151
26874WAT     H180864   0.734   8.752   4.213
26874WAT     H280865   0.838   8.877   4.196
26875WAT      O80866   1.792   3.831   9.670
26875WAT     H180867   1.891   3.839   9.683
26875WAT     H280868   1.763   3.738   9.691
26876WAT      O80869   3.873   9.722   7.229
26876WAT     H180870   3.796   9.732   7.166
26876WAT     H280871   3.860   9.783   7.307
26877WAT      O80872   3.637   2.028   6.289
26877WAT     H180873   3.573   2.100   6.262
26877WAT     H280874   3.689   2.057   6.369
26878WAT      O80875   3.663   8.896   3.349
26878WAT     H180876   3.567   8.905   3.325
26878WAT     H280877   3.712   8.979   3.325
26879WAT      O80878   7.445   0.499   4.048
26879WAT     H180879   7.474   0.443   3.970
26879WAT     H280880   7.503   0.579   4.055
26880WAT      O80881   2.659   0.943   1.826
26880WAT     H180882   2.692   0.914   1.736
26880WAT     H280883   2.561   0.958   1.823
26881WAT      O80884   6.658   7.297   5.496
26881WAT     H180885   6.624   7.259   5.410
26881WAT     H280886   6.581   7.306   5.560
26882WAT      O80887   8.032   4.563   5.578
26882WAT     H180888   7.934   4.568   5.599
26882WAT     H280889   8.046   4.576   5.480
26883WAT      O80890   5.534   1.217   8.020
26883WAT     H180891   5.472   1.149   7.984
26883WAT     H280892   5.626   1.178   8.027
26884WAT      O80893   0.634   2.743   5.792
26884WAT     H180894   0.665   2.710   5.703
26884WAT     H280895   0.662   2.678   5.863
26885WAT      O80896   0.573   4.067   1.348
26885WAT     H180897   0.534   4.027   1.265
26885WAT     H280898   0.660   4.112   1.326
26886WAT      O80899   2.089   0.076   3.780
26886WAT     H180900   2.041   0.110   3.700
26886WAT     H280901   2.088   0.145   3.852
26887WAT      O80902   8.189   1.439   1.022
26887WAT     H180903   8.139   1.394   0.948
26887WAT     H280904   8.133   1.513   1.061
26888WAT      O80905   9.481   8.618   8.702
26888WAT     H180906   9.561   8.565   8.675
26888WAT     H280907   9.416   8.621   8.626
26889WAT      O80908   9.780   5.475   7.376
26889WAT     H180909   9.759   5.488   7.279
26889WAT     H280910   9.879   5.472   7.388
26890WAT      O80911   3.493   3.128   8.527
26890WAT     H180912   3.555   3.197   8.489
26890WAT     H280913   3.548   3.055   8.570
26891WAT      O80914   8.971   7.078   1.555
26891WAT     H180915   8.892   7.139   1.550
26891WAT     H280916   9.054   7.132   1.572
26892WAT      O80917   4.725   6.538   0.323
26892WAT     H180918   4.768   6.596   0.392
26892WAT     H280919   4.628   6.560   0.316
26893WAT      O80920   4.023   3.046   4.127
26893WAT     H180921   4.040   3.145   4.134
26893WAT     H280922   4.071   3.009   4.047
26894WAT      O80923   7.387   6.009   6.764
26894WAT     H180924   7.395   5.927   6.821
26894WAT     H280925   7.300   6.007   6.715
26895WAT      O80926   9.177   9.615   6.930
26895WAT     H180927   9.132   9.704   6.923
26895WAT     H280928   9.112   9.542   6.911
26896WAT      O80929   2.813   2.954   3.217
26896WAT     H180930   2.737   2.902   3.177
26896WAT     H280931   2.788   2.983   3.309
26897WAT      O80932   3.905   0.275   5.981
26897WAT     H180933   3.892   0.249   6.076
26897WAT     H280934   3.957   0.360   5.975
26898WAT      O80935   5.442   2.405   7.796
26898WAT     H180936   5.352   2.365   7.813
26898WAT     H280937   5.433   2.503   7.780
26899WAT      O80938   8.486   4.096   7.988
26899WAT     H180939   8.494   4.004   8.026
26899WAT     H280940   8.433   4.092   7.903
26900WAT      O80941   9.856   4.170   4.045
26900WAT     H180942   9.875   4.096   3.980
26900WAT     H280943   9.789   4.233   4.005
26901WAT      O80944   5.427   7.528   8.967
26901WAT     H180945   5.364   7.457   8.936
26901WAT     H280946   5.500   7.539   8.900
26902WAT      O80947   1.241   6.557   6.853
26902WAT     H180948   1.250   6.554   6.754
26902WAT     H280949   1.332   6.551   6.895
26903WAT      O80950   2.721   9.425   5.187
26903WAT     H180951   2.643   9.432   5.249
26903WAT     H280952   2.776   9.345   5.211
26904WAT      O80953   1.637   7.486   5.528
26904WAT     H180954   1.680   7.402   5.495
26904WAT     H280955   1.540   7.485   5.505
26905WAT      O80956   2.471   3.593   8.312
26905WAT     H180957   2.382   3.548   8.310
26905WAT     H280958   2.491   3.625   8.405
26906WAT      O80959   7.566   6.388   6.606
26906WAT     H180960   7.657   6.372   6.569
26906WAT     H280961   7.555   6.486   6.626
26907WAT      O80962   5.911   4.257   7.604
26907WAT     H180963   5.964   4.276   7.522
26907WAT     H280964   5.965   4.279   7.685
26908WAT      O80965   0.510   5.905   8.029
26908WAT     H180966   0.575   5.838   8.066
26908WAT     H280967   0.558   5.991   8.013
26909WAT      O80968   5.877   0.310   6.114
26909WAT     H180969   5.964   0.275   6.079
26909WAT     H280970   5.873   0.296   6.213
26910WAT      O80971   5.238   0.533   0.266
26910WAT     H180972   5.197   0.530   0.357
26910WAT     H280973   5.185   0.594   0.208
26911WAT      O80974   9.438   9.609   6.841
26911WAT     H180975   9.353   9.603   6.892
26911WAT     H280976   9.443   9.534   6.775
26912WAT      O80977   8.687   7.566   1.380
26912WAT     H180978   8.750   7.626   1.331
26912WAT     H280979   8.593   7.581   1.347
26913WAT      O80980   9.422   5.577   7.444
26913WAT     H180981   9.370   5.629   7.512
26913WAT     H280982   9.504   5.629   7.419
26914WAT      O80983   7.745   8.713   3.986
26914WAT     H180984   7.666   8.774   3.997
26914WAT     H280985   7.809   8.753   3.920
26915WAT      O80986   8.716   7.530   3.412
26915WAT     H180987   8.665   7.517   3.327
26915WAT     H280988   8.703   7.452   3.472
26916WAT      O80989   6.162   6.209   7.193
26916WAT     H180990   6.128   6.185   7.102
26916WAT     H280991   6.252   6.169   7.206
26917WAT      O80992   7.432   0.570   0.938
26917WAT     H180993   7.354   0.621   0.975
26917WAT     H280994   7.399   0.505   0.869
26918WAT      O80995   3.833   5.823   4.756
26918WAT     H180996   3.820   5.787   4.663
26918WAT     H280997   3.798   5.757   4.822
26919WAT      O80998   5.888   8.682   6.734
26919WAT     H180999   5.852   8.595   6.766
26919WAT     H281000   5.873   8.752   6.805
26920WAT      O81001   8.251   2.706   3.415
26920WAT     H181002   8.296   2.786   3.456
26920WAT     H281003   8.245   2.719   3.316
26921WAT      O81004   7.774   9.413   3.890
26921WAT     H181005   7.730   9.354   3.822
26921WAT     H281006   7.710   9.485   3.917
26922WAT      O81007   7.621   9.386   8.034
26922WAT     H181008   7.636   9.444   8.115
26922WAT     H281009   7.701   9.390   7.975
26923WAT      O81010   4.034   3.138   8.478
26923WAT     H181011   4.044   3.071   8.404
26923WAT     H281012   4.123   3.154   8.521
26924WAT      O81013   7.766   7.852   5.773
26924WAT     H181014   7.741   7.844   5.869
26924WAT     H281015   7.734   7.772   5.723
26925WAT      O81016   1.083   9.154   3.839
26925WAT     H181017   1.105   9.225   3.906
26925WAT     H281018   0.997   9.177   3.793
26926WAT      O81019   2.952   4.477   7.338
26926WAT     H181020   2.911   4.547   7.280
26926WAT     H281021   2.905   4.390   7.322
26927WAT      O81022   7.363   9.437   7.966
26927WAT     H181023   7.450   9.394   7.988
26927WAT     H281024   7.379   9.517   7.909
26928WAT      O81025   7.940   6.404   0.735
26928WAT     H181026   8.039   6.403   0.728
26928WAT     H281027   7.909   6.496   0.757
26929WAT      O81028   0.376   3.403   3.047
26929WAT     H181029   0.362   3.305   3.032
26929WAT     H281030   0.420   3.443   2.967
26930WAT      O81031   5.135   3.187   1.787
26930WAT     H181032   5.055   3.223   1.738
26930WAT     H281033   5.143   3.089   1.770
26931WAT      O81034   7.732   8.806   4.677
26931WAT     H181035   7.668   8.858   4.732
26931WAT     H281036   7.771   8.865   4.606
26932WAT      O81037   3.887   8.336   2.230
26932WAT     H181038   3.912   8.256   2.286
26932WAT     H281039   3.912   8.419   2.279
26933WAT      O81040   1.004   3.270   4.051
26933WAT     H181041   1.077   3.232   4.108
26933WAT     H281042   1.043   3.330   3.981
26934WAT      O81043   6.700   8.612   3.553
26934WAT     H181044   6.790   8.619   3.595
26934WAT     H281045   6.642   8.554   3.610
26935WAT      O81046   2.198   8.300   3.247
26935WAT     H181047   2.232   8.393   3.259
26935WAT     H281048   2.102   8.295   3.273
26936WAT      O81049   3.345   2.435   6.096
26936WAT     H181050   3.422   2.476   6.145
26936WAT     H281051   3.336   2.477   6.006
26937WAT      O81052   6.088   0.680   6.418
26937WAT     H181053   6.145   0.720   6.490
26937WAT     H281054   6.002   0.730   6.412
26938WAT      O81055   4.213   1.044   1.905
26938WAT     H181056   4.265   0.993   1.836
26938WAT     H281057   4.246   1.021   1.996
26939WAT      O81058   4.925   7.749   0.301
26939WAT     H181059   5.009   7.696   0.305
26939WAT     H281060   4.894   7.771   0.394
26940WAT      O81061   7.909   7.354   7.952
26940WAT     H181062   7.999   7.310   7.959
26940WAT     H281063   7.893   7.408   8.034
26941WAT      O81064   5.750   2.250   8.724
26941WAT     H181065   5.762   2.268   8.626
26941WAT     H281066   5.796   2.321   8.777
26942WAT      O81067   8.337   7.654   2.133
26942WAT     H181068   8.419   7.602   2.107
26942WAT     H281069   8.363   7.730   2.192
26943WAT      O81070   5.785   5.777   3.663
26943WAT     H181071   5.752   5.768   3.569
26943WAT     H281072   5.711   5.751   3.727
26944WAT      O81073   9.240   4.207   0.160
26944WAT     H181074   9.318   4.221   0.222
26944WAT     H281075   9.186   4.291   0.157
26945WAT      O81076   2.459   3.262   5.120
26945WAT     H181077   2.555   3.290   5.119
26945WAT     H281078   2.401   3.343   5.129
26946WAT      O81079   0.287   6.492   8.155
26946WAT     H181080   0.290   6.467   8.058
26946WAT     H281081   0.201   6.461   8.194
26947WAT      O81082   9.093   4.816   0.353
26947WAT     H181083   8.997   4.805   0.376
26947WAT     H281084   9.130   4.729   0.321
26948WAT      O81085   7.703   2.271   0.516
26948WAT     H181086   7.776   2.333   0.542
26948WAT     H281087   7.625   2.323   0.481
26949WAT      O81088   6.215   3.660   2.351
26949WAT     H181089   6.309   3.693   2.340
26949WAT     H281090   6.178   3.694   2.437
26950WAT      O81091   2.794   1.743   2.116
26950WAT     H181092   2.720   1.773   2.176
26950WAT     H281093   2.845   1.669   2.160
26951WAT      O81094   4.270   6.088   8.606
26951WAT     H181095   4.248   5.993   8.587
26951WAT     H281096   4.345   6.092   8.673
26952WAT      O81097   6.677   7.502   7.140
26952WAT     H181098   6.678   7.411   7.181
26952WAT     H281099   6.770   7.528   7.114
26953WAT      O81100   6.988   4.017   0.839
26953WAT     H181101   6.931   3.946   0.879
26953WAT     H281102   6.950   4.107   0.860
26954WAT      O81103   8.975   6.737   8.796
26954WAT     H181104   8.958   6.660   8.858
26954WAT     H281105   9.071   6.764   8.802
26955WAT      O81106   9.023   0.544   7.324
26955WAT     H181107   8.947   0.489   7.289
26955WAT     H281108   9.063   0.597   7.249
26956WAT      O81109   7.818   4.054   4.711
26956WAT     H181110   7.909   4.013   4.699
26956WAT     H281111   7.825   4.134   4.770
26957WAT      O81112   1.180   6.160   0.085
26957WAT     H181113   1.275   6.148   0.058
26957WAT     H281114   1.151   6.254   0.066
26958WAT      O81115   1.185   0.578   5.457
26958WAT     H181116   1.100   0.595   5.507
26958WAT     H281117   1.258   0.636   5.494
26959WAT      O81118   9.369   0.354   6.637
26959WAT     H181119   9.362   0.268   6.587
26959WAT     H281120   9.443   0.348   6.704
26960WAT      O81121   1.778   6.748   9.366
26960WAT     H181122   1.878   6.750   9.365
26960WAT     H281123   1.744   6.839   9.391
26961WAT      O81124   7.162   1.834   0.088
26961WAT     H181125   7.227   1.847   0.013
26961WAT     H281126   7.078   1.884   0.069
26962WAT      O81127   7.835   1.018   9.538
26962WAT     H181128   7.778   0.984   9.613
26962WAT     H281129   7.838   0.949   9.466
26963WAT      O81130   4.319   6.198   3.519
26963WAT     H181131   4.238   6.162   3.565
26963WAT     H281132   4.315   6.297   3.515
26964WAT      O81133   2.393   6.731   9.472
26964WAT     H181134   2.436   6.742   9.562
26964WAT     H281135   2.295   6.711   9.484
26965WAT      O81136   6.944   1.173   4.607
26965WAT     H181137   7.015   1.105   4.626
26965WAT     H281138   6.973   1.262   4.641
26966WAT      O81139   9.742   7.183   7.923
26966WAT     H181140   9.712   7.225   7.838
26966WAT     H281141   9.668   7.187   7.990
26967WAT      O81142   7.535   9.820   3.370
26967WAT     H181143   7.537   9.903   3.425
26967WAT     H281144   7.537   9.844   3.273
26968WAT      O81145   8.449   8.363   0.028
26968WAT     H181146   8.369   8.417   0.054
26968WAT     H281147   8.435   8.323  -0.062
26969WAT      O81148   2.160   5.543   0.094
26969WAT     H181149   2.111   5.496   0.021
26969WAT     H281150   2.175   5.480   0.170
26970WAT      O81151   9.435   9.478   4.411
26970WAT     H181152   9.398   9.555   4.463
26970WAT     H281153   9.532   9.494   4.393
26971WAT      O81154   2.754   9.722   7.314
26971WAT     H181155   2.704   9.751   7.395
26971WAT     H281156   2.771   9.624   7.319
26972WAT      O81157   5.413   2.317   2.229
26972WAT     H181158   5.455   2.326   2.319
26972WAT     H281159   5.379   2.406   2.199
26973WAT      O81160   5.603   6.652   2.190
26973WAT     H181161   5.524   6.596   2.215
26973WAT     H281162   5.609   6.660   2.090
26974WAT      O81163   6.860   6.166   6.280
26974WAT     H181164   6.899   6.258   6.287
26974WAT     H281165   6.871   6.132   6.186
26975WAT      O81166   8.599   8.446   1.850
26975WAT     H181167   8.607   8.461   1.751
26975WAT     H281168   8.574   8.532   1.894
26976WAT      O81169   7.182   6.030   9.801
26976WAT     H181170   7.223   6.046   9.891
26976WAT     H281171   7.104   5.968   9.811
26977WAT      O81172   8.828   2.304   7.281
26977WAT     H181173   8.920   2.343   7.274
26977WAT     H281174   8.798   2.276   7.190
26978WAT      O81175   6.230   3.946   2.700
26978WAT     H181176   6.172   3.898   2.765
26978WAT     H281177   6.289   3.881   2.653
26979WAT      O81178   1.311   7.220   1.491
26979WAT     H181179   1.264   7.276   1.422
26979WAT     H281180   1.398   7.189   1.454
26980WAT      O81181   2.435   3.002   7.209
26980WAT     H181182   2.506   2.988   7.278
26980WAT     H281183   2.400   3.095   7.215
26981WAT      O81184   0.856   0.520   6.692
26981WAT     H181185   0.878   0.603   6.639
26981WAT     H281186   0.860   0.542   6.789
26982WAT      O81187   9.794   6.479   3.950
26982WAT     H181188   9.760   6.570   3.977
26982WAT     H281189   9.731   6.409   3.984
26983WAT      O81190   7.977   0.410   0.018
26983WAT     H181191   8.070   0.446   0.014
26983WAT     H281192   7.926   0.440  -0.063
26984WAT      O81193   8.283   7.836   4.329
26984WAT     H181194   8.330   7.821   4.417
26984WAT     H281195   8.348   7.822   4.254
26985WAT      O81196   7.421   0.808   8.300
26985WAT     H181197   7.519   0.825   8.286
26985WAT     H281198   7.369   0.888   8.269
26986WAT      O81199   1.044   5.678   1.979
26986WAT     H181200   1.008   5.714   2.065
26986WAT     H281201   1.144   5.681   1.980
26987WAT      O81202   2.767   1.224   5.364
26987WAT     H181203   2.784   1.272   5.277
26987WAT     H281204   2.693   1.159   5.352
26988WAT      O81205   7.070   7.691   3.686
26988WAT     H181206   7.090   7.788   3.679
26988WAT     H281207   6.971   7.677   3.688
26989WAT      O81208   6.976   9.381   3.152
26989WAT     H181209   6.958   9.285   3.131
26989WAT     H281210   6.939   9.439   3.080
26990WAT      O81211   4.901   9.333   5.477
26990WAT     H181212   4.869   9.314   5.385
26990WAT     H281213   4.948   9.253   5.514
26991WAT      O81214   7.963   1.341   0.868
26991WAT     H181215   8.026   1.267   0.843
26991WAT     H281216   7.954   1.405   0.792
26992WAT      O81217   3.519   4.953   1.031
26992WAT     H181218   3.438   4.952   1.089
26992WAT     H281219   3.572   5.035   1.049
26993WAT      O81220   4.489   0.301   5.518
26993WAT     H181221   4.571   0.260   5.479
26993WAT     H281222   4.438   0.348   5.446
26994WAT      O81223   3.565   0.405   0.575
26994WAT     H181224   3.650   0.363   0.607
26994WAT     H281225   3.547   0.489   0.625
26995WAT      O81226   1.971   5.827   7.728
26995WAT     H181227   1.905   5.886   7.681
26995WAT     H281228   2.020   5.772   7.661
26996WAT      O81229   4.042   7.888   5.728
26996WAT     H181230   4.039   7.832   5.811
26996WAT     H281231   3.957   7.941   5.721
26997WAT      O81232   2.173   8.778   0.743
26997WAT     H181233   2.183   8.877   0.755
26997WAT     H281234   2.079   8.757   0.716
26998WAT      O81235   9.067   2.300   2.926
26998WAT     H181236   9.050   2.387   2.878
26998WAT     H281237   9.100   2.232   2.860
26999WAT      O81238   9.398   2.301   5.544
26999WAT     H181239   9.360   2.296   5.636
26999WAT     H281240   9.417   2.208   5.511
27000WAT      O81241   5.693   7.843   8.506
27000WAT     H181242   5.594   7.850   8.504
27000WAT     H281243   5.721   7.752   8.476
27001WAT      O81244   6.555   6.910   2.003
27001WAT     H181245   6.462   6.947   2.009
27001WAT     H281246   6.615   6.978   1.963
27002WAT      O81247   0.532   8.036   3.687
27002WAT     H181248   0.492   8.127   3.701
27002WAT     H281249   0.621   8.032   3.733
27003WAT      O81250   0.694   8.419   6.598
27003WAT     H181251   0.651   8.368   6.523
27003WAT     H281252   0.718   8.355   6.671
27004WAT      O81253   6.496   0.322   1.655
27004WAT     H181254   6.397   0.321   1.671
27004WAT     H281255   6.532   0.412   1.676
27005WAT      O81256   6.847   8.390   7.317
27005WAT     H181257   6.811   8.479   7.347
27005WAT     H281258   6.817   8.372   7.224
27006WAT      O81259   8.210   6.634   0.619
27006WAT     H181260   8.275   6.625   0.694
27006WAT     H281261   8.214   6.552   0.561
27007WAT      O81262   2.295   4.650   7.282
27007WAT     H181263   2.202   4.678   7.256
27007WAT     H281264   2.346   4.730   7.314
27008WAT      O81265   3.517   3.064   6.862
27008WAT     H181266   3.469   3.081   6.947
27008WAT     H281267   3.596   3.125   6.855
27009WAT      O81268   3.997   6.618   7.694
27009WAT     H181269   4.023   6.713   7.710
27009WAT     H281270   3.953   6.581   7.776
27010WAT      O81271   2.357   6.967   9.329
27010WAT     H181272   2.381   6.901   9.401
27010WAT     H281273   2.312   6.919   9.254
27011WAT      O81274   5.827   0.477   6.926
27011WAT     H181275   5.819   0.546   6.854
27011WAT     H281276   5.923   0.473   6.956
27012WAT      O81277   6.239   7.659   4.433
27012WAT     H181278   6.283   7.596   4.369
27012WAT     H281279   6.198   7.606   4.508
27013WAT      O81280   6.682   0.701   9.583
27013WAT     H181281   6.637   0.783   9.618
27013WAT     H281282   6.684   0.630   9.653
27014WAT      O81283   2.241   9.574   2.471
27014WAT     H181284   2.292   9.606   2.551
27014WAT     H281285   2.143   9.585   2.487
27015WAT      O81286   1.055   7.332   3.919
27015WAT     H181287   1.122   7.323   3.846
27015WAT     H281288   1.068   7.259   3.986
27016WAT      O81289   6.575   7.708   1.213
27016WAT     H181290   6.657   7.725   1.159
27016WAT     H281291   6.537   7.618   1.189
27017WAT      O81292   1.217   2.375   8.818
27017WAT     H181293   1.125   2.356   8.784
27017WAT     H281294   1.255   2.293   8.860
27018WAT      O81295   8.757   4.406   8.234
27018WAT     H181296   8.682   4.340   8.237
27018WAT     H281297   8.812   4.399   8.317
27019WAT      O81298   0.597   6.477   3.101
27019WAT     H181299   0.655   6.400   3.072
27019WAT     H281300   0.625   6.506   3.193
27020WAT      O81301   6.246   1.787   9.510
27020WAT     H181302   6.299   1.866   9.478
27020WAT     H281303   6.187   1.755   9.436
27021WAT      O81304   3.531   6.204   9.390
27021WAT     H181305   3.578   6.165   9.469
27021WAT     H281306   3.460   6.268   9.421
27022WAT      O81307   5.701   6.977   6.795
27022WAT     H181308   5.785   6.989   6.847
27022WAT     H281309   5.722   6.944   6.703
27023WAT      O81310   0.679   6.798   3.863
27023WAT     H181311   0.585   6.772   3.840
27023WAT     H281312   0.686   6.897   3.871
27024WAT      O81313   2.022   5.670   3.644
27024WAT     H181314   1.938   5.724   3.648
27024WAT     H281315   2.095   5.725   3.603
27025WAT      O81316   4.574   4.972   4.523
27025WAT     H181317   4.589   5.053   4.465
27025WAT     H281318   4.476   4.953   4.528
27026WAT      O81319   4.338   2.398   5.605
27026WAT     H181320   4.436   2.414   5.612
27026WAT     H281321   4.319   2.300   5.608
27027WAT      O81322   3.858   2.442   4.296
27027WAT     H181323   3.907   2.428   4.210
27027WAT     H281324   3.760   2.447   4.278
27028WAT      O81325   6.065   1.071   3.731
27028WAT     H181326   6.130   1.091   3.804
27028WAT     H281327   6.107   1.088   3.642
27029WAT      O81328   7.561   4.456   7.171
27029WAT     H181329   7.612   4.502   7.244
27029WAT     H281330   7.544   4.361   7.197
27030WAT      O81331   6.243   0.732   2.540
27030WAT     H181332   6.318   0.687   2.589
27030WAT     H281333   6.258   0.831   2.538
27031WAT      O81334   9.454   7.944   0.057
27031WAT     H181335   9.476   8.022  -0.001
27031WAT     H281336   9.527   7.876   0.051
27032WAT      O81337   9.610   0.016   3.687
27032WAT     H181338   9.702   0.019   3.646
27032WAT     H281339   9.595  -0.074   3.728
27033WAT      O81340   1.431   9.017   7.266
27033WAT     H181341   1.358   9.053   7.325
27033WAT     H281342   1.436   8.918   7.276
27034WAT      O81343   8.231   2.897   0.844
27034WAT     H181344   8.152   2.941   0.887
27034WAT     H281345   8.242   2.805   0.881
27035WAT      O81346   4.192   8.108   1.511
27035WAT     H181347   4.125   8.079   1.442
27035WAT     H281348   4.223   8.201   1.491
27036WAT      O81349   6.424   6.535   8.701
27036WAT     H181350   6.410   6.486   8.615
27036WAT     H281351   6.338   6.540   8.751
27037WAT      O81352   9.083   4.418   2.303
27037WAT     H181353   9.100   4.502   2.356
27037WAT     H281354   9.162   4.357   2.310
27038WAT      O81355   8.281   8.515   2.709
27038WAT     H181356   8.235   8.485   2.793
27038WAT     H281357   8.220   8.574   2.657
27039WAT      O81358   5.546   7.009   8.243
27039WAT     H181359   5.569   6.915   8.270
27039WAT     H281360   5.486   7.007   8.162
27040WAT      O81361   7.951   0.855   5.033
27040WAT     H181362   7.903   0.856   5.120
27040WAT     H281363   7.929   0.939   4.982
27041WAT      O81364   2.722   0.570   4.782
27041WAT     H181365   2.775   0.635   4.836
27041WAT     H281366   2.673   0.509   4.843
27042WAT      O81367   8.262   2.662   0.644
27042WAT     H181368   8.315   2.723   0.702
27042WAT     H281369   8.311   2.575   0.632
27043WAT      O81370   3.395   3.101   5.346
27043WAT     H181371   3.487   3.068   5.324
27043WAT     H281372   3.332   3.078   5.272
27044WAT      O81373   6.083   3.961   7.426
27044WAT     H181374   6.113   4.049   7.462
27044WAT     H281375   6.089   3.962   7.326
27045WAT      O81376   7.999   1.767   4.996
27045WAT     H181377   8.097   1.758   5.013
27045WAT     H281378   7.950   1.699   5.049
27046WAT      O81379   9.068   0.201   4.191
27046WAT     H181380   9.009   0.275   4.223
27046WAT     H281381   9.142   0.187   4.257
27047WAT      O81382   4.815   1.931   8.166
27047WAT     H181383   4.861   1.893   8.247
27047WAT     H281384   4.758   2.008   8.193
27048WAT      O81385   7.827   1.056   2.673
27048WAT     H181386   7.842   1.146   2.713
27048WAT     H281387   7.859   0.985   2.736
27049WAT      O81388   1.278   9.141   6.108
27049WAT     H181389   1.268   9.235   6.140
27049WAT     H281390   1.287   9.080   6.187
27050WAT      O81391   7.724   4.991   4.578
27050WAT     H181392   7.759   5.083   4.599
27050WAT     H281393   7.741   4.970   4.481
27051WAT      O81394   8.072   8.888   1.040
27051WAT     H181395   8.135   8.813   1.055
27051WAT     H281396   7.992   8.877   1.099
27052WAT      O81397   5.641   0.490   8.479
27052WAT     H181398   5.707   0.539   8.421
27052WAT     H281399   5.548   0.507   8.446
27053WAT      O81400   4.885   9.580   7.670
27053WAT     H181401   4.787   9.596   7.666
27053WAT     H281402   4.923   9.625   7.752
27054WAT      O81403   3.223   9.418   1.672
27054WAT     H181404   3.172   9.486   1.621
27054WAT     H281405   3.196   9.326   1.642
27055WAT      O81406   6.267   2.538   1.273
27055WAT     H181407   6.193   2.477   1.246
27055WAT     H281408   6.355   2.493   1.260
27056WAT      O81409   8.348   4.090   3.999
27056WAT     H181410   8.348   4.185   3.967
27056WAT     H281411   8.419   4.079   4.069
27057WAT      O81412   8.018   4.054   2.927
27057WAT     H181413   8.101   4.025   2.974
27057WAT     H281414   8.011   4.153   2.928
27058WAT      O81415   9.388   6.092   5.016
27058WAT     H181416   9.356   6.163   5.078
27058WAT     H281417   9.486   6.102   5.000
27059WAT      O81418   1.798   3.516   6.816
27059WAT     H181419   1.716   3.555   6.773
27059WAT     H281420   1.807   3.553   6.908
27060WAT      O81421   3.679   4.133   9.665
27060WAT     H181422   3.728   4.187   9.734
27060WAT     H281423   3.744   4.073   9.619
27061WAT      O81424   7.407   6.746   8.376
27061WAT     H181425   7.317   6.728   8.337
27061WAT     H281426   7.465   6.787   8.306
27062WAT      O81427   6.536   4.963   6.218
27062WAT     H181428   6.555   4.987   6.123
27062WAT     H281429   6.484   5.037   6.261
27063WAT      O81430   1.087   1.391   1.051
27063WAT     H181431   1.037   1.386   1.138
27063WAT     H281432   1.109   1.299   1.020
27064WAT      O81433   4.273   1.898   7.628
27064WAT     H181434   4.341   1.971   7.627
27064WAT     H281435   4.192   1.926   7.577
27065WAT      O81436   0.304   9.793   0.984
27065WAT     H181437   0.379   9.815   0.922
27065WAT     H281438   0.323   9.830   1.075
27066WAT      O81439   9.425   8.875   0.199
27066WAT     H181440   9.503   8.815   0.181
27066WAT     H281441   9.340   8.825   0.183
27067WAT      O81442   3.248   5.455   2.078
27067WAT     H181443   3.182   5.517   2.036
27067WAT     H281444   3.257   5.372   2.023
27068WAT      O81445   7.346   3.551   8.077
27068WAT     H181446   7.408   3.538   8.155
27068WAT     H281447   7.344   3.467   8.023
27069WAT      O81448   3.908   8.858   0.660
27069WAT     H181449   3.946   8.945   0.629
27069WAT     H281450   3.908   8.856   0.760
27070WAT      O81451   8.489   9.844   2.485
27070WAT     H181452   8.478   9.745   2.481
27070WAT     H281453   8.496   9.881   2.392
27071WAT      O81454   5.920   2.572   2.809
27071WAT     H181455   5.954   2.589   2.902
27071WAT     H281456   5.948   2.647   2.749
27072WAT      O81457   5.647   6.688   1.939
27072WAT     H181458   5.674   6.771   1.889
27072WAT     H281459   5.569   6.646   1.893
27073WAT      O81460   6.284   6.964   5.708
27073WAT     H181461   6.204   7.024   5.720
27073WAT     H281462   6.261   6.872   5.738
27074WAT      O81463   2.399   9.704   8.028
27074WAT     H181464   2.429   9.732   8.119
27074WAT     H281465   2.302   9.680   8.030
27075WAT      O81466   2.235   5.152   8.730
27075WAT     H181467   2.250   5.133   8.827
27075WAT     H281468   2.138   5.167   8.714
27076WAT      O81469   1.669   8.454   7.470
27076WAT     H181470   1.756   8.432   7.513
27076WAT     H281471   1.600   8.386   7.496
27077WAT      O81472   3.811   6.464   9.877
27077WAT     H181473   3.743   6.452   9.805
27077WAT     H281474   3.785   6.409   9.957
27078WAT      O81475   0.193   3.384   6.320
27078WAT     H181476   0.193   3.296   6.273
27078WAT     H281477   0.285   3.422   6.320
27079WAT      O81478   2.172   5.322   3.929
27079WAT     H181479   2.122   5.267   3.862
27079WAT     H281480   2.264   5.341   3.894
27080WAT      O81481   7.891   2.915   3.973
27080WAT     H181482   7.966   2.933   4.036
27080WAT     H281483   7.899   2.821   3.939
27081WAT      O81484   1.080   3.265   6.808
27081WAT     H181485   1.173   3.280   6.776
27081WAT     H281486   1.077   3.184   6.867
27082WAT      O81487   2.133   1.062   7.441
27082WAT     H181488   2.146   1.147   7.390
27082WAT     H281489   2.111   0.988   7.377
27083WAT      O81490   2.698   5.168   5.150
27083WAT     H181491   2.738   5.125   5.231
27083WAT     H281492   2.599   5.175   5.162
27084WAT      O81493   1.106   3.890   7.254
27084WAT     H181494   1.084   3.936   7.168
27084WAT     H281495   1.171   3.945   7.306
27085WAT      O81496   5.892   1.193   7.529
27085WAT     H181497   5.927   1.252   7.456
27085WAT     H281498   5.968   1.160   7.585
27086WAT      O81499   6.083   3.201   4.588
27086WAT     H181500   6.089   3.300   4.574
27086WAT     H281501   6.015   3.181   4.659
27087WAT      O81502   6.251   6.874   7.787
27087WAT     H181503   6.169   6.868   7.730
27087WAT     H281504   6.328   6.907   7.732
27088WAT      O81505   0.416   6.518   2.838
27088WAT     H181506   0.499   6.530   2.782
27088WAT     H281507   0.439   6.466   2.920
27089WAT      O81508   2.238   2.464   7.616
27089WAT     H181509   2.327   2.498   7.587
27089WAT     H281510   2.233   2.365   7.599
27090WAT      O81511   8.750   8.246   1.967
27090WAT     H181512   8.692   8.313   1.921
27090WAT     H281513   8.760   8.165   1.910
27091WAT      O81514   1.507   6.396   3.857
27091WAT     H181515   1.535   6.303   3.880
27091WAT     H281516   1.588   6.450   3.834
27092WAT      O81517   4.963   2.423   3.166
27092WAT     H181518   5.007   2.360   3.103
27092WAT     H281519   4.923   2.372   3.243
27093WAT      O81520   1.208   6.502   4.656
27093WAT     H181521   1.305   6.486   4.638
27093WAT     H281522   1.197   6.531   4.751
27094WAT      O81523   8.502   6.191   1.186
27094WAT     H181524   8.520   6.249   1.265
27094WAT     H281525   8.491   6.096   1.215
27095WAT      O81526   8.263   3.277   0.753
27095WAT     H181527   8.168   3.268   0.722
27095WAT     H281528   8.320   3.304   0.675
27096WAT      O81529   2.199   7.324   3.672
27096WAT     H181530   2.203   7.307   3.574
27096WAT     H281531   2.292   7.326   3.710
27097WAT      O81532   5.594   0.897   7.595
27097WAT     H181533   5.498   0.876   7.575
27097WAT     H281534   5.603   0.927   7.689
27098WAT      O81535   9.542   8.029   1.260
27098WAT     H181536   9.443   8.016   1.256
27098WAT     H281537   9.588   7.941   1.258
27099WAT      O81538   9.614   3.283   9.100
27099WAT     H181539   9.695   3.334   9.072
27099WAT     H281540   9.640   3.189   9.122
27100WAT      O81541   4.001   4.939   5.298
27100WAT     H181542   4.009   5.038   5.285
27100WAT     H281543   4.092   4.899   5.305
27101WAT      O81544   8.512   6.635   1.867
27101WAT     H181545   8.573   6.614   1.791
27101WAT     H281546   8.492   6.551   1.917
27102WAT      O81547   2.881   8.541   0.651
27102WAT     H181548   2.936   8.567   0.571
27102WAT     H281549   2.785   8.535   0.624
27103WAT      O81550   6.212   9.612   6.291
27103WAT     H181551   6.157   9.678   6.238
27103WAT     H281552   6.163   9.525   6.297
27104WAT      O81553   2.024   2.819   6.099
27104WAT     H181554   2.020   2.785   6.005
27104WAT     H281555   1.936   2.803   6.144
27105WAT      O81556   2.624   1.936   6.881
27105WAT     H181557   2.723   1.932   6.897
27105WAT     H281558   2.584   1.845   6.895
27106WAT      O81559   8.176   0.901   9.158
27106WAT     H181560   8.196   0.806   9.179
27106WAT     H281561   8.219   0.961   9.226
27107WAT      O81562   6.972   3.034   2.433
27107WAT     H181563   7.031   2.958   2.405
27107WAT     H281564   7.026   3.118   2.438
27108WAT      O81565   6.334   6.582   5.586
27108WAT     H181566   6.316   6.615   5.678
27108WAT     H281567   6.299   6.647   5.519
27109WAT      O81568   5.147   9.193   9.666
27109WAT     H181569   5.214   9.253   9.710
27109WAT     H281570   5.194   9.123   9.612
27110WAT      O81571   2.790   5.730   2.088
27110WAT     H181572   2.812   5.793   2.162
27110WAT     H281573   2.719   5.667   2.118
27111WAT      O81574   6.764   1.727   6.738
27111WAT     H181575   6.784   1.654   6.673
27111WAT     H281576   6.738   1.688   6.826
27112WAT      O81577   3.999   2.045   0.722
27112WAT     H181578   3.934   2.053   0.646
27112WAT     H281579   3.978   1.963   0.775
27113WAT      O81580   0.701   8.023   9.086
27113WAT     H181581   0.659   7.933   9.077
27113WAT     H281582   0.708   8.047   9.183
27114WAT      O81583   5.433   9.108   2.323
27114WAT     H181584   5.367   9.154   2.263
27114WAT     H281585   5.476   9.032   2.274
27115WAT      O81586   0.796   6.293   3.023
27115WAT     H181587   0.828   6.319   2.932
27115WAT     H281588   0.799   6.194   3.032
27116WAT      O81589   8.748   1.415   3.628
27116WAT     H181590   8.670   1.401   3.689
27116WAT     H281591   8.795   1.500   3.654
27117WAT      O81592   5.473   2.258   8.709
27117WAT     H181593   5.440   2.194   8.779
27117WAT     H281594   5.568   2.281   8.727
27118WAT      O81595   5.249   2.011   5.280
27118WAT     H181596   5.290   2.068   5.210
27118WAT     H281597   5.219   1.925   5.239
27119WAT      O81598   3.817   5.515   5.337
27119WAT     H181599   3.895   5.562   5.378
27119WAT     H281600   3.848   5.431   5.294
27120WAT      O81601   0.444   4.084   8.970
27120WAT     H181602   0.408   4.027   9.044
27120WAT     H281603   0.520   4.037   8.926
27121WAT      O81604   9.847   1.725   3.309
27121WAT     H181605   9.759   1.687   3.278
27121WAT     H281606   9.832   1.818   3.344
27122WAT      O81607   7.574   5.910   8.513
27122WAT     H181608   7.637   5.968   8.463
27122WAT     H281609   7.490   5.960   8.532
27123WAT      O81610   6.923   1.927   7.839
27123WAT     H181611   6.947   2.024   7.840
27123WAT     H281612   6.874   1.905   7.755
27124WAT      O81613   9.611   8.575   7.073
27124WAT     H181614   9.594   8.648   7.139
27124WAT     H281615   9.556   8.590   6.992
27125WAT      O81616   5.669   5.159   1.039
27125WAT     H181617   5.745   5.215   1.007
27125WAT     H281618   5.679   5.066   1.004
27126WAT      O81619   9.250   1.246   1.331
27126WAT     H181620   9.193   1.200   1.262
27126WAT     H281621   9.276   1.180   1.401
27127WAT      O81622   2.080   9.219   6.204
27127WAT     H181623   2.032   9.280   6.266
27127WAT     H281624   2.048   9.125   6.219
27128WAT      O81625   8.426   0.827   2.926
27128WAT     H181626   8.479   0.742   2.925
27128WAT     H281627   8.431   0.869   3.017
27129WAT      O81628   8.109   7.274   4.764
27129WAT     H181629   8.147   7.364   4.742
27129WAT     H281630   8.173   7.224   4.822
27130WAT      O81631   5.009   9.536   2.958
27130WAT     H181632   4.983   9.483   3.038
27130WAT     H281633   4.928   9.553   2.901
27131WAT      O81634   2.047   5.409   8.233
27131WAT     H181635   2.095   5.371   8.311
27131WAT     H281636   2.097   5.490   8.200
27132WAT      O81637   2.576   4.869   6.506
27132WAT     H181638   2.573   4.856   6.407
27132WAT     H281639   2.572   4.966   6.528
27133WAT      O81640   9.339   9.222   7.352
27133WAT     H181641   9.391   9.305   7.329
27133WAT     H281642   9.377   9.145   7.300
27134WAT      O81643   5.088   6.579   8.181
27134WAT     H181644   5.158   6.598   8.112
27134WAT     H281645   5.052   6.665   8.217
27135WAT      O81646   8.631   4.294   8.559
27135WAT     H181647   8.553   4.259   8.507
27135WAT     H281648   8.658   4.226   8.627
27136WAT      O81649   6.109   8.253   9.763
27136WAT     H181650   6.130   8.336   9.816
27136WAT     H281651   6.059   8.277   9.681
27137WAT      O81652   6.343   3.819   9.446
27137WAT     H181653   6.412   3.852   9.382
27137WAT     H281654   6.253   3.821   9.403
27138WAT      O81655   5.597   4.786   7.516
27138WAT     H181656   5.685   4.754   7.551
27138WAT     H281657   5.544   4.826   7.590
27139WAT      O81658   7.810   7.270   4.748
27139WAT     H181659   7.782   7.361   4.717
27139WAT     H281660   7.906   7.272   4.775
27140WAT      O81661   3.283   5.787   2.054
27140WAT     H181662   3.362   5.742   2.011
27140WAT     H281663   3.199   5.744   2.021
27141WAT      O81664   3.436   1.115   2.975
27141WAT     H181665   3.534   1.136   2.978
27141WAT     H281666   3.392   1.154   3.056
27142WAT      O81667   8.134   4.316   2.664
27142WAT     H181668   8.097   4.347   2.576
27142WAT     H281669   8.184   4.230   2.650
27143WAT      O81670   0.665   0.216   0.884
27143WAT     H181671   0.584   0.270   0.905
27143WAT     H281672   0.644   0.151   0.811
27144WAT      O81673   0.424   1.047   8.779
27144WAT     H181674   0.370   0.965   8.761
27144WAT     H281675   0.417   1.109   8.701
27145WAT      O81676   8.976   8.269   3.930
27145WAT     H181677   9.070   8.251   3.959
27145WAT     H281678   8.931   8.183   3.907
27146WAT      O81679   7.196   0.503   8.447
27146WAT     H181680   7.100   0.528   8.441
27146WAT     H281681   7.222   0.448   8.368
27147WAT      O81682   6.113   6.205   5.841
27147WAT     H181683   6.044   6.266   5.801
27147WAT     H281684   6.085   6.110   5.827
27148WAT      O81685   4.367   1.963   3.523
27148WAT     H181686   4.364   2.042   3.461
27148WAT     H281687   4.282   1.958   3.575
27149WAT      O81688   4.450   0.528   6.316
27149WAT     H181689   4.363   0.502   6.274
27149WAT     H281690   4.447   0.625   6.340
27150WAT      O81691   2.722   5.732   5.763
27150WAT     H181692   2.624   5.728   5.784
27150WAT     H281693   2.741   5.815   5.710
27151WAT      O81694   9.665   1.112   2.252
27151WAT     H181695   9.685   1.059   2.334
27151WAT     H281696   9.704   1.204   2.262
27152WAT      O81697   7.212   6.116   6.164
27152WAT     H181698   7.219   6.026   6.209
27152WAT     H281699   7.127   6.121   6.113
27153WAT      O81700   4.304   1.486   8.437
27153WAT     H181701   4.279   1.541   8.357
27153WAT     H281702   4.282   1.535   8.520
27154WAT      O81703   6.440   7.810   1.780
27154WAT     H181704   6.509   7.821   1.850
27154WAT     H281705   6.444   7.887   1.716
27155WAT      O81706   8.956   3.806   0.268
27155WAT     H181707   8.994   3.884   0.219
27155WAT     H281708   8.915   3.742   0.203
27156WAT      O81709   8.329   3.545   0.834
27156WAT     H181710   8.423   3.513   0.816
27156WAT     H281711   8.272   3.466   0.858
27157WAT      O81712   1.791   5.099   1.018
27157WAT     H181713   1.855   5.103   0.941
27157WAT     H281714   1.736   5.182   1.020
27158WAT      O81715   7.754   0.619   4.698
27158WAT     H181716   7.711   0.683   4.762
27158WAT     H281717   7.739   0.526   4.729
27159WAT      O81718   3.813   8.131   4.945
27159WAT     H181719   3.716   8.144   4.925
27159WAT     H281720   3.866   8.136   4.861
27160WAT      O81721   7.264   8.885   8.146
27160WAT     H181722   7.272   8.970   8.199
27160WAT     H281723   7.196   8.897   8.075
27161WAT      O81724   9.337   4.026   3.573
27161WAT     H181725   9.295   3.947   3.529
27161WAT     H281726   9.397   3.995   3.646
27162WAT      O81727   8.941   7.585   6.489
27162WAT     H181728   8.845   7.602   6.509
27162WAT     H281729   8.996   7.662   6.521
27163WAT      O81730   0.016   1.410   4.116
27163WAT     H181731   0.071   1.430   4.197
27163WAT     H281732  -0.067   1.362   4.142
27164WAT      O81733   7.445   9.817   1.354
27164WAT     H181734   7.407   9.904   1.387
27164WAT     H281735   7.455   9.820   1.255
27165WAT      O81736   6.729   9.803   0.044
27165WAT     H181737   6.814   9.803  -0.009
27165WAT     H281738   6.750   9.798   0.141
27166WAT      O81739   6.243   4.843   1.039
27166WAT     H181740   6.270   4.835   0.943
27166WAT     H281741   6.307   4.904   1.086
27167WAT      O81742   0.551   6.050   8.417
27167WAT     H181743   0.500   6.112   8.358
27167WAT     H281744   0.646   6.083   8.426
27168WAT      O81745   8.324   6.345   4.854
27168WAT     H181746   8.384   6.339   4.775
27168WAT     H281747   8.245   6.286   4.841
27169WAT      O81748   3.691   2.541   0.005
27169WAT     H181749   3.695   2.638   0.029
27169WAT     H281750   3.774   2.516  -0.044
27170WAT      O81751   5.810   0.161   6.376
27170WAT     H181752   5.883   0.094   6.367
27170WAT     H281753   5.844   0.242   6.424
27171WAT      O81754   1.304   0.392   5.277
27171WAT     H181755   1.243   0.387   5.198
27171WAT     H281756   1.263   0.453   5.346
27172WAT      O81757   1.600   3.882   0.686
27172WAT     H181758   1.684   3.903   0.736
27172WAT     H281759   1.620   3.871   0.589
27173WAT      O81760   5.110   7.692   1.375
27173WAT     H181761   5.164   7.751   1.315
27173WAT     H281762   5.014   7.715   1.367
27174WAT      O81763   4.001   4.257   1.289
27174WAT     H181764   4.060   4.192   1.336
27174WAT     H281765   3.967   4.216   1.205
27175WAT      O81766   9.674   7.187   6.720
27175WAT     H181767   9.693   7.092   6.743
27175WAT     H281768   9.619   7.191   6.636
27176WAT      O81769   3.749   2.331   2.350
27176WAT     H181770   3.670   2.342   2.289
27176WAT     H281771   3.806   2.413   2.346
27177WAT      O81772   3.835   3.216   4.355
27177WAT     H181773   3.898   3.213   4.433
27177WAT     H281774   3.853   3.138   4.295
27178WAT      O81775   1.506   6.740   6.426
27178WAT     H181776   1.548   6.736   6.517
27178WAT     H281777   1.462   6.828   6.414
27179WAT      O81778   3.411   2.507   1.057
27179WAT     H181779   3.398   2.413   1.024
27179WAT     H281780   3.368   2.517   1.147
27180WAT      O81781   3.594   5.747   2.610
27180WAT     H181782   3.568   5.824   2.551
27180WAT     H281783   3.529   5.672   2.596
27181WAT      O81784   2.979   0.215   9.018
27181WAT     H181785   2.901   0.163   9.053
27181WAT     H281786   3.005   0.179   8.928
27182WAT      O81787   4.980   9.184   2.631
27182WAT     H181788   4.950   9.236   2.551
27182WAT     H281789   4.932   9.097   2.635
27183WAT      O81790   3.943   7.619   1.853
27183WAT     H181791   3.874   7.691   1.843
27183WAT     H281792   4.013   7.629   1.782
27184WAT      O81793   3.754   5.769   1.060
27184WAT     H181794   3.731   5.837   1.130
27184WAT     H281795   3.751   5.678   1.101
27185WAT      O81796   9.081   4.152   3.538
27185WAT     H181797   9.077   4.227   3.472
27185WAT     H281798   9.173   4.113   3.538
27186WAT      O81799   9.008   2.328   1.793
27186WAT     H181800   8.913   2.313   1.766
27186WAT     H281801   9.051   2.239   1.812
27187WAT      O81802   1.704   5.257   1.933
27187WAT     H181803   1.792   5.212   1.919
27187WAT     H281804   1.661   5.221   2.016
27188WAT      O81805   8.858   0.023   2.524
27188WAT     H181806   8.787   0.090   2.546
27188WAT     H281807   8.947   0.067   2.526
27189WAT      O81808   3.113   9.429   0.898
27189WAT     H181809   3.178   9.374   0.846
27189WAT     H281810   3.020   9.409   0.867
27190WAT      O81811   3.144   1.090   4.017
27190WAT     H181812   3.207   1.145   3.962
27190WAT     H281813   3.071   1.056   3.958
27191WAT      O81814   4.741   1.415   0.789
27191WAT     H181815   4.783   1.324   0.789
27191WAT     H281816   4.667   1.417   0.855
27192WAT      O81817   6.615   2.540   9.150
27192WAT     H181818   6.625   2.568   9.054
27192WAT     H281819   6.577   2.616   9.203
27193WAT      O81820   4.577   4.996   9.868
27193WAT     H181821   4.591   4.908   9.823
27193WAT     H281822   4.538   5.061   9.803
27194WAT      O81823   2.638   2.701   2.881
27194WAT     H181824   2.721   2.755   2.867
27194WAT     H281825   2.662   2.611   2.915
27195WAT      O81826   8.957   1.603   2.415
27195WAT     H181827   8.900   1.679   2.445
27195WAT     H281828   8.987   1.551   2.495
27196WAT      O81829   6.392   8.940   0.731
27196WAT     H181830   6.392   9.002   0.809
27196WAT     H281831   6.306   8.891   0.726
27197WAT      O81832   6.611   7.312   5.834
27197WAT     H181833   6.554   7.365   5.896
27197WAT     H281834   6.558   7.290   5.751
27198WAT      O81835   1.262   9.460   1.948
27198WAT     H181836   1.214   9.412   2.022
27198WAT     H281837   1.214   9.545   1.927
27199WAT      O81838   8.466   7.979   2.655
27199WAT     H181839   8.487   7.985   2.753
27199WAT     H281840   8.543   7.938   2.607
27200WAT      O81841   6.977   3.336   7.933
27200WAT     H181842   6.997   3.384   8.018
27200WAT     H281843   6.879   3.343   7.914
27201WAT      O81844   0.710   6.043   9.251
27201WAT     H181845   0.768   6.108   9.202
27201WAT     H281846   0.723   6.054   9.349
27202WAT      O81847   4.685   6.605   2.963
27202WAT     H181848   4.655   6.682   2.906
27202WAT     H281849   4.605   6.557   2.998
27203WAT      O81850   8.156   7.124   1.098
27203WAT     H181851   8.123   7.187   1.028
27203WAT     H281852   8.136   7.030   1.070
27204WAT      O81853   2.514   4.314   1.635
27204WAT     H181854   2.564   4.376   1.574
27204WAT     H281855   2.578   4.258   1.687
27205WAT      O81856   4.174   7.330   1.962
27205WAT     H181857   4.078   7.337   1.988
27205WAT     H281858   4.231   7.337   2.044
27206WAT      O81859   5.848   1.629   0.631
27206WAT     H181860   5.905   1.607   0.551
27206WAT     H281861   5.824   1.726   0.629
27207WAT      O81862   0.308   5.512   5.019
27207WAT     H181863   0.314   5.413   5.007
27207WAT     H281864   0.393   5.546   5.058
27208WAT      O81865   5.105   4.006   7.145
27208WAT     H181866   5.022   3.976   7.192
27208WAT     H281867   5.181   4.008   7.211
27209WAT      O81868   7.292   9.206   2.367
27209WAT     H181869   7.340   9.120   2.350
27209WAT     H281870   7.344   9.262   2.432
27210WAT      O81871   7.494   3.995   1.528
27210WAT     H181872   7.569   4.056   1.503
27210WAT     H281873   7.415   4.049   1.556
27211WAT      O81874   1.427   1.121   8.653
27211WAT     H181875   1.336   1.151   8.622
27211WAT     H281876   1.416   1.041   8.713
27212WAT      O81877   4.312   5.561   3.862
27212WAT     H181878   4.231   5.504   3.882
27212WAT     H281879   4.329   5.560   3.763
27213WAT      O81880   5.746   0.265   5.870
27213WAT     H181881   5.750   0.169   5.841
27213WAT     H281882   5.789   0.274   5.960
27214WAT      O81883   6.591   5.702   2.075
27214WAT     H181884   6.522   5.751   2.023
27214WAT     H281885   6.574   5.715   2.173
27215WAT      O81886   2.348   7.999   7.495
27215WAT     H181887   2.370   7.913   7.448
27215WAT     H281888   2.267   7.985   7.552
27216WAT      O81889   1.629   7.634   0.861
27216WAT     H181890   1.601   7.557   0.804
27216WAT     H281891   1.571   7.637   0.943
27217WAT      O81892   3.302   0.346   6.154
27217WAT     H181893   3.216   0.387   6.186
27217WAT     H281894   3.359   0.321   6.232
27218WAT      O81895   9.399   4.744   9.161
27218WAT     H181896   9.454   4.827   9.153
27218WAT     H281897   9.434   4.674   9.099
27219WAT      O81898   4.382   6.170   9.054
27219WAT     H181899   4.296   6.174   9.106
27219WAT     H281900   4.459   6.190   9.115
27220WAT      O81901   1.637   4.842   7.062
27220WAT     H181902   1.627   4.746   7.091
27220WAT     H281903   1.692   4.845   6.978
27221WAT      O81904   2.834   6.074   4.439
27221WAT     H181905   2.764   6.142   4.463
27221WAT     H281906   2.790   5.984   4.429
27222WAT      O81907   3.865   4.187   7.264
27222WAT     H181908   3.949   4.137   7.243
27222WAT     H281909   3.885   4.285   7.270
27223WAT      O81910   4.452   7.227   9.051
27223WAT     H181911   4.452   7.289   9.130
27223WAT     H281912   4.543   7.228   9.009
27224WAT      O81913   5.526   3.527   0.763
27224WAT     H181914   5.443   3.488   0.803
27224WAT     H281915   5.503   3.614   0.717
27225WAT      O81916   2.459   9.690   4.410
27225WAT     H181917   2.372   9.700   4.361
27225WAT     H281918   2.442   9.648   4.499
27226WAT      O81919   6.821   5.845   8.956
27226WAT     H181920   6.750   5.884   9.014
27226WAT     H281921   6.898   5.909   8.951
27227WAT      O81922   5.094   3.035   1.088
27227WAT     H181923   5.174   3.011   1.033
27227WAT     H281924   5.117   3.033   1.185
27228WAT      O81925   8.907   6.200   8.355
27228WAT     H181926   8.830   6.234   8.301
27228WAT     H281927   8.887   6.106   8.385
27229WAT      O81928   5.570   8.273   5.649
27229WAT     H181929   5.585   8.219   5.566
27229WAT     H281930   5.500   8.229   5.705
27230WAT      O81931   3.256   4.330   0.878
27230WAT     H181932   3.224   4.347   0.785
27230WAT     H281933   3.329   4.394   0.900
27231WAT      O81934   8.108   1.586   0.217
27231WAT     H181935   8.020   1.621   0.186
27231WAT     H281936   8.181   1.648   0.188
27232WAT      O81937   9.419   0.649   3.450
27232WAT     H181938   9.388   0.563   3.410
27232WAT     H281939   9.432   0.717   3.378
27233WAT      O81940   3.981   1.751   4.251
27233WAT     H181941   3.888   1.789   4.246
27233WAT     H281942   4.046   1.825   4.269
27234WAT      O81943   8.751   8.035   7.801
27234WAT     H181944   8.698   7.956   7.769
27234WAT     H281945   8.844   8.030   7.764
27235WAT      O81946   1.908   4.669   7.493
27235WAT     H181947   1.965   4.596   7.533
27235WAT     H281948   1.813   4.638   7.488
27236WAT      O81949   4.798   7.935   4.608
27236WAT     H181950   4.883   7.889   4.634
27236WAT     H281951   4.732   7.929   4.683
27237WAT      O81952   5.164   9.631   5.643
27237WAT     H181953   5.248   9.668   5.683
27237WAT     H281954   5.085   9.677   5.682
27238WAT      O81955   4.802   0.695   6.650
27238WAT     H181956   4.843   0.785   6.641
27238WAT     H281957   4.702   0.702   6.646
27239WAT      O81958   5.089   9.684   0.549
27239WAT     H181959   5.162   9.734   0.502
27239WAT     H281960   5.127   9.606   0.597
27240WAT      O81961   6.135   2.139   4.113
27240WAT     H181962   6.155   2.047   4.078
27240WAT     H281963   6.200   2.204   4.073
27241WAT      O81964   7.029   5.107   8.366
27241WAT     H181965   7.117   5.154   8.373
27241WAT     H281966   7.009   5.061   8.452
27242WAT      O81967   7.235   3.617   6.372
27242WAT     H181968   7.293   3.552   6.421
27242WAT     H281969   7.156   3.569   6.333
27243WAT      O81970   1.145   3.066   5.400
27243WAT     H181971   1.128   3.142   5.462
27243WAT     H281972   1.126   3.096   5.306
27244WAT      O81973   2.392   1.442   5.431
27244WAT     H181974   2.330   1.380   5.480
27244WAT     H281975   2.344   1.527   5.410
27245WAT      O81976   8.756   9.356   3.573
27245WAT     H181977   8.684   9.310   3.625
27245WAT     H281978   8.787   9.437   3.623
27246WAT      O81979   1.078   3.961   2.978
27246WAT     H181980   1.115   4.034   3.034
27246WAT     H281981   1.149   3.892   2.962
27247WAT      O81982   9.673   0.882   1.836
27247WAT     H181983   9.643   0.807   1.896
27247WAT     H281984   9.710   0.956   1.891
27248WAT      O81985   4.522   4.353   6.291
27248WAT     H181986   4.593   4.354   6.220
27248WAT     H281987   4.564   4.356   6.381
27249WAT      O81988   9.773   2.911   7.291
27249WAT     H181989   9.748   2.923   7.195
27249WAT     H281990   9.810   2.819   7.304
27250WAT      O81991   5.391   8.797   2.896
27250WAT     H181992   5.429   8.775   2.985
27250WAT     H281993   5.310   8.855   2.908
27251WAT      O81994   1.923   1.477   6.550
27251WAT     H181995   1.950   1.554   6.492
27251WAT     H281996   1.914   1.507   6.644
27252WAT      O81997   3.144   4.134   1.932
27252WAT     H181998   3.080   4.194   1.883
27252WAT     H281999   3.219   4.189   1.969
27253WAT      O82000   8.627   3.094   0.623
27253WAT     H182001   8.714   3.131   0.593
27253WAT     H282002   8.641   3.042   0.708
27254WAT      O82003   4.545   5.692   8.505
27254WAT     H182004   4.550   5.782   8.462
27254WAT     H282005   4.535   5.621   8.436
27255WAT      O82006   1.172   9.651   0.028
27255WAT     H182007   1.261   9.616   0.000
27255WAT     H282008   1.142   9.721  -0.038
27256WAT      O82009   3.188   0.126   1.574
27256WAT     H182010   3.221   0.149   1.666
27256WAT     H282011   3.255   0.155   1.506
27257WAT      O82012   8.965   5.919   0.847
27257WAT     H182013   9.008   5.910   0.757
27257WAT     H282014   8.869   5.946   0.835
27258WAT      O82015   5.625   5.035   0.139
27258WAT     H182016   5.689   5.043   0.216
27258WAT     H282017   5.607   5.126   0.101
27259WAT      O82018   9.587   1.784   3.783
27259WAT     H182019   9.653   1.715   3.752
27259WAT     H282020   9.494   1.748   3.772
27260WAT      O82021   4.074   3.816   6.419
27260WAT     H182022   4.121   3.880   6.480
27260WAT     H282023   4.115   3.819   6.328
27261WAT      O82024   1.303   7.799   9.756
27261WAT     H182025   1.236   7.848   9.702
27261WAT     H282026   1.271   7.706   9.774
27262WAT      O82027   0.819   2.162   5.135
27262WAT     H182028   0.771   2.076   5.118
27262WAT     H282029   0.818   2.183   5.232
27263WAT      O82030   4.120   9.114   3.107
27263WAT     H182031   4.211   9.117   3.147
27263WAT     H282032   4.117   9.040   3.039
27264WAT      O82033   8.526   3.590   6.976
27264WAT     H182034   8.605   3.621   6.923
27264WAT     H282035   8.457   3.552   6.915
27265WAT      O82036   3.988   2.212   5.607
27265WAT     H182037   3.934   2.148   5.551
27265WAT     H282038   4.084   2.187   5.603
27266WAT      O82039   4.343   1.926   8.358
27266WAT     H182040   4.413   1.889   8.419
27266WAT     H282041   4.384   1.996   8.299
27267WAT      O82042   1.829   2.109   0.430
27267WAT     H182043   1.849   2.098   0.527
27267WAT     H282044   1.759   2.043   0.403
27268WAT      O82045   5.585   0.316   1.003
27268WAT     H182046   5.545   0.390   1.057
27268WAT     H282047   5.625   0.248   1.064
27269WAT      O82048   8.584   9.745   1.530
27269WAT     H182049   8.641   9.823   1.557
27269WAT     H282050   8.488   9.773   1.528
27270WAT      O82051   6.859   5.761   8.569
27270WAT     H182052   6.850   5.680   8.626
27270WAT     H282053   6.880   5.734   8.475
27271WAT      O82054   8.262   0.013   2.660
27271WAT     H182055   8.190   0.057   2.607
27271WAT     H282056   8.346   0.007   2.606
27272WAT      O82057   1.571   0.766   3.481
27272WAT     H182058   1.663   0.797   3.457
27272WAT     H282059   1.507   0.793   3.409
27273WAT      O82060   7.797   7.104   7.329
27273WAT     H182061   7.846   7.165   7.267
27273WAT     H282062   7.840   7.108   7.419
27274WAT      O82063   8.543   5.228   9.304
27274WAT     H182064   8.443   5.226   9.310
27274WAT     H282065   8.574   5.153   9.246
27275WAT      O82066   3.983   5.530   4.966
27275WAT     H182067   3.893   5.573   4.960
27275WAT     H282068   4.053   5.599   4.983
27276WAT      O82069   0.207   3.400   9.821
27276WAT     H182070   0.174   3.330   9.884
27276WAT     H282071   0.139   3.414   9.749
27277WAT      O82072   7.921   7.444   1.248
27277WAT     H182073   7.989   7.423   1.179
27277WAT     H282074   7.916   7.370   1.315
27278WAT      O82075   4.228   2.422   3.582
27278WAT     H182076   4.214   2.506   3.633
27278WAT     H282077   4.236   2.442   3.484
27279WAT      O82078   8.828   6.866   7.280
27279WAT     H182079   8.915   6.914   7.270
27279WAT     H282080   8.817   6.801   7.205
27280WAT      O82081   0.257   5.872   0.638
27280WAT     H182082   0.182   5.808   0.653
27280WAT     H282083   0.344   5.823   0.635
27281WAT      O82084   2.962   0.828   4.538
27281WAT     H182085   2.966   0.840   4.638
27281WAT     H282086   2.919   0.908   4.496
27282WAT      O82087   7.766   8.372   7.934
27282WAT     H182088   7.856   8.368   7.891
27282WAT     H282089   7.770   8.327   8.024
27283WAT      O82090   2.714   3.805   8.146
27283WAT     H182091   2.690   3.877   8.211
27283WAT     H282092   2.798   3.761   8.175
27284WAT      O82093   6.351   4.256   7.063
27284WAT     H182094   6.362   4.316   7.142
27284WAT     H282095   6.302   4.304   6.990
27285WAT      O82096   3.602   5.886   0.870
27285WAT     H182097   3.620   5.919   0.777
27285WAT     H282098   3.681   5.836   0.904
27286WAT      O82099   0.463   2.657   7.044
27286WAT     H182100   0.393   2.673   7.114
27286WAT     H282101   0.439   2.575   6.992
27287WAT      O82102   8.563   2.925   6.051
27287WAT     H182103   8.613   2.985   6.114
27287WAT     H282104   8.619   2.907   5.970
27288WAT      O82105   9.043   5.920   6.520
27288WAT     H182106   9.000   5.831   6.532
27288WAT     H282107   9.088   5.923   6.430
27289WAT      O82108   1.831   6.304   1.961
27289WAT     H182109   1.733   6.294   1.940
27289WAT     H282110   1.867   6.385   1.916
27290WAT      O82111   4.217   3.152   1.003
27290WAT     H182112   4.118   3.154   0.987
27290WAT     H282113   4.239   3.204   1.085
27291WAT      O82114   2.931   1.091   5.952
27291WAT     H182115   2.938   1.026   5.875
27291WAT     H282116   3.022   1.124   5.976
27292WAT      O82117   8.656   8.714   7.639
27292WAT     H182118   8.663   8.811   7.662
27292WAT     H282119   8.663   8.703   7.540
27293WAT      O82120   1.108   0.437   4.013
27293WAT     H182121   1.008   0.432   4.019
27293WAT     H282122   1.140   0.524   4.049
27294WAT      O82123   8.152   5.873   6.013
27294WAT     H182124   8.235   5.819   5.999
27294WAT     H282125   8.110   5.849   6.100
27295WAT      O82126   2.209   2.269   6.183
27295WAT     H182127   2.302   2.266   6.220
27295WAT     H282128   2.206   2.222   6.095
27296WAT      O82129   0.865   9.152   8.273
27296WAT     H182130   0.844   9.054   8.275
27296WAT     H282131   0.898   9.177   8.182
27297WAT      O82132   2.157   4.447   4.577
27297WAT     H182133   2.199   4.392   4.504
27297WAT     H282134   2.111   4.386   4.642
27298WAT      O82135   2.855   6.790   9.521
27298WAT     H182136   2.947   6.756   9.499
27298WAT     H282137   2.805   6.808   9.436
27299WAT      O82138   8.605   7.686   0.207
27299WAT     H182139   8.618   7.693   0.306
27299WAT     H282140   8.632   7.594   0.177
27300WAT      O82141   7.989   7.416   9.172
27300WAT     H182142   7.953   7.362   9.096
27300WAT     H282143   7.923   7.487   9.196
27301WAT      O82144   6.052   5.250   0.611
27301WAT     H182145   6.141   5.205   0.622
27301WAT     H282146   5.980   5.182   0.602
27302WAT      O82147   0.893   4.654   2.144
27302WAT     H182148   0.993   4.662   2.145
27302WAT     H282149   0.867   4.563   2.176
27303WAT      O82150   5.301   6.854   3.606
27303WAT     H182151   5.400   6.865   3.607
27303WAT     H282152   5.258   6.931   3.653
27304WAT      O82153   3.613   1.800   2.525
27304WAT     H182154   3.577   1.884   2.483
27304WAT     H282155   3.573   1.720   2.481
27305WAT      O82156   6.695   1.814   7.614
27305WAT     H182157   6.662   1.844   7.525
27305WAT     H282158   6.666   1.880   7.684
27306WAT      O82159   3.393   8.533   7.713
27306WAT     H182160   3.304   8.529   7.669
27306WAT     H282161   3.449   8.456   7.683
27307WAT      O82162   6.387   5.007   2.190
27307WAT     H182163   6.381   4.910   2.166
27307WAT     H282164   6.341   5.062   2.120
27308WAT      O82165   4.262   7.267   6.262
27308WAT     H182166   4.250   7.206   6.183
27308WAT     H282167   4.215   7.227   6.341
27309WAT      O82168   3.577   4.560   0.713
27309WAT     H182169   3.568   4.479   0.655
27309WAT     H282170   3.546   4.641   0.663
27310WAT      O82171   5.849   3.514   2.155
27310WAT     H182172   5.786   3.548   2.225
27310WAT     H282173   5.828   3.558   2.068
27311WAT      O82174   6.536   7.436   6.703
27311WAT     H182175   6.479   7.398   6.777
27311WAT     H282176   6.589   7.362   6.662
27312WAT      O82177   6.614   0.500   5.305
27312WAT     H182178   6.708   0.468   5.302
27312WAT     H282179   6.585   0.507   5.401
27313WAT      O82180   2.562   7.346   6.432
27313WAT     H182181   2.483   7.286   6.426
27313WAT     H282182   2.605   7.337   6.522
27314WAT      O82183   7.431   9.033   5.750
27314WAT     H182184   7.428   8.966   5.676
27314WAT     H282185   7.381   8.997   5.829
27315WAT      O82186   1.071   5.354   4.055
27315WAT     H182187   0.984   5.365   4.007
27315WAT     H282188   1.139   5.317   3.992
27316WAT      O82189   4.407   7.190   4.941
27316WAT     H182190   4.313   7.155   4.935
27316WAT     H282191   4.407   7.275   4.993
27317WAT      O82192   1.841   9.611   3.929
27317WAT     H182193   1.755   9.625   3.977
27317WAT     H282194   1.917   9.615   3.994
27318WAT      O82195   0.863   6.383   5.664
27318WAT     H182196   0.798   6.449   5.704
27318WAT     H282197   0.823   6.344   5.581
27319WAT      O82198   2.077   8.976   6.610
27319WAT     H182199   2.159   9.033   6.622
27319WAT     H282200   2.092   8.887   6.654
27320WAT      O82201   2.924   9.415   9.706
27320WAT     H182202   2.999   9.419   9.640
27320WAT     H282203   2.957   9.450   9.794
27321WAT      O82204   2.455   1.319   7.039
27321WAT     H182205   2.388   1.393   7.052
27321WAT     H282206   2.413   1.247   6.985
27322WAT      O82207   3.659   8.480   3.610
27322WAT     H182208   3.604   8.400   3.633
27322WAT     H282209   3.749   8.450   3.579
27323WAT      O82210   6.719   2.416   3.899
27323WAT     H182211   6.712   2.318   3.881
27323WAT     H282212   6.764   2.461   3.821
27324WAT      O82213   4.016   7.511   1.415
27324WAT     H182214   4.029   7.463   1.328
27324WAT     H282215   3.977   7.602   1.397
27325WAT      O82216   5.724   3.952   7.144
27325WAT     H182217   5.689   4.042   7.170
27325WAT     H282218   5.655   3.882   7.164
27326WAT      O82219   5.130   5.901   7.308
27326WAT     H182220   5.042   5.940   7.338
27326WAT     H282221   5.204   5.945   7.359
27327WAT      O82222   0.633   6.976   0.538
27327WAT     H182223   0.655   7.074   0.537
27327WAT     H282224   0.534   6.964   0.532
27328WAT      O82225   8.778   2.587   4.833
27328WAT     H182226   8.726   2.661   4.875
27328WAT     H282227   8.811   2.616   4.743
27329WAT      O82228   1.713   5.965   0.302
27329WAT     H182229   1.698   6.055   0.261
27329WAT     H282230   1.744   5.901   0.232
27330WAT      O82231   1.379   5.415   7.023
27330WAT     H182232   1.448   5.350   6.989
27330WAT     H282233   1.310   5.429   6.953
27331WAT      O82234   4.611   6.738   1.137
27331WAT     H182235   4.548   6.763   1.210
27331WAT     H282236   4.674   6.814   1.120
27332WAT      O82237   7.524   4.735   6.237
27332WAT     H182238   7.576   4.753   6.154
27332WAT     H282239   7.434   4.698   6.212
27333WAT      O82240   3.176   3.295   1.032
27333WAT     H182241   3.228   3.253   1.106
27333WAT     H282242   3.081   3.306   1.059
27334WAT      O82243   3.063   2.116   9.844
27334WAT     H182244   3.017   2.027   9.850
27334WAT     H282245   3.037   2.161   9.758
27335WAT      O82246   6.630   7.394   9.211
27335WAT     H182247   6.666   7.450   9.137
27335WAT     H282248   6.697   7.326   9.239
27336WAT      O82249   5.317   5.641   4.596
27336WAT     H182250   5.299   5.602   4.506
27336WAT     H282251   5.238   5.627   4.655
27337WAT      O82252   2.332   7.290   8.230
27337WAT     H182253   2.241   7.313   8.265
27337WAT     H282254   2.380   7.373   8.203
27338WAT      O82255   2.441   8.249   2.672
27338WAT     H182256   2.501   8.327   2.652
27338WAT     H282257   2.497   8.167   2.684
27339WAT      O82258   4.163   0.428   2.296
27339WAT     H182259   4.227   0.376   2.240
27339WAT     H282260   4.074   0.432   2.250
27340WAT      O82261   8.770   5.970   7.990
27340WAT     H182262   8.685   5.934   8.028
27340WAT     H282263   8.767   6.070   7.988
27341WAT      O82264   9.576   6.792   4.271
27341WAT     H182265   9.625   6.878   4.280
27341WAT     H282266   9.477   6.809   4.270
27342WAT      O82267   7.800   6.859   7.205
27342WAT     H182268   7.868   6.807   7.257
27342WAT     H282269   7.781   6.945   7.253
27343WAT      O82270   6.553   7.678   4.194
27343WAT     H182271   6.467   7.695   4.146
27343WAT     H282272   6.592   7.765   4.224
27344WAT      O82273   2.814   5.534   3.117
27344WAT     H182274   2.768   5.575   3.037
27344WAT     H282275   2.774   5.445   3.136
27345WAT      O82276   7.392   5.726   0.455
27345WAT     H182277   7.318   5.672   0.495
27345WAT     H282278   7.476   5.713   0.508
27346WAT      O82279   1.406   3.317   5.215
27346WAT     H182280   1.450   3.406   5.228
27346WAT     H282281   1.308   3.324   5.237
27347WAT      O82282   7.556   7.809   6.318
27347WAT     H182283   7.507   7.813   6.231
27347WAT     H282284   7.584   7.715   6.337
27348WAT      O82285   4.439   3.211   7.906
27348WAT     H182286   4.472   3.123   7.940
27348WAT     H282287   4.517   3.272   7.890
27349WAT      O82288   7.684   2.266   8.622
27349WAT     H182289   7.764   2.322   8.647
27349WAT     H282290   7.626   2.317   8.558
27350WAT      O82291   6.370   7.479   9.392
27350WAT     H182292   6.426   7.424   9.454
27350WAT     H282293   6.389   7.452   9.298
27351WAT      O82294   8.330   1.237   7.115
27351WAT     H182295   8.430   1.240   7.121
27351WAT     H282296   8.303   1.230   7.019
27352WAT      O82297   4.520   4.642   4.988
27352WAT     H182298   4.448   4.579   4.958
27352WAT     H282299   4.482   4.734   4.996
27353WAT      O82300   8.513   7.144   9.000
27353WAT     H182301   8.422   7.140   9.041
27353WAT     H282302   8.515   7.085   8.919
27354WAT      O82303   4.537   6.722   6.593
27354WAT     H182304   4.614   6.731   6.530
27354WAT     H282305   4.474   6.653   6.558
27355WAT      O82306   3.075   7.359   1.683
27355WAT     H182307   3.088   7.351   1.782
27355WAT     H282308   3.044   7.452   1.661
27356WAT      O82309   8.325   7.893   3.740
27356WAT     H182310   8.413   7.865   3.780
27356WAT     H282311   8.301   7.984   3.773
27357WAT      O82312   8.521   9.712   7.248
27357WAT     H182313   8.486   9.635   7.300
27357WAT     H282314   8.496   9.701   7.152
27358WAT      O82315   7.454   4.919   8.219
27358WAT     H182316   7.369   4.868   8.228
27358WAT     H282317   7.527   4.858   8.188
27359WAT      O82318   5.886   8.683   6.426
27359WAT     H182319   5.972   8.713   6.384
27359WAT     H282320   5.888   8.703   6.524
27360WAT      O82321   5.174   7.964   0.971
27360WAT     H182322   5.263   8.007   0.962
27360WAT     H282323   5.170   7.910   1.055
27361WAT      O82324   3.080   1.471   0.961
27361WAT     H182325   3.153   1.426   1.012
27361WAT     H282326   3.015   1.403   0.928
27362WAT      O82327   1.834   2.393   5.570
27362WAT     H182328   1.891   2.365   5.493
27362WAT     H282329   1.769   2.462   5.539
27363WAT      O82330   8.675   4.504   4.414
27363WAT     H182331   8.664   4.420   4.467
27363WAT     H282332   8.622   4.577   4.456
27364WAT      O82333   1.870   6.642   2.970
27364WAT     H182334   1.933   6.673   3.042
27364WAT     H282335   1.912   6.566   2.921
27365WAT      O82336   5.572   3.562   8.013
27365WAT     H182337   5.543   3.471   7.984
27365WAT     H282338   5.671   3.570   8.002
27366WAT      O82339   6.476   8.814   5.037
27366WAT     H182340   6.475   8.750   5.113
27366WAT     H282341   6.382   8.842   5.016
27367WAT      O82342   4.432   5.622   1.584
27367WAT     H182343   4.420   5.623   1.683
27367WAT     H282344   4.355   5.668   1.540
27368WAT      O82345   0.374   8.319   6.862
27368WAT     H182346   0.369   8.341   6.765
27368WAT     H282347   0.455   8.263   6.880
27369WAT      O82348   7.167   2.877   3.163
27369WAT     H182349   7.091   2.815   3.187
27369WAT     H282350   7.197   2.857   3.070
27370WAT      O82351   6.609   6.120   0.879
27370WAT     H182352   6.630   6.023   0.892
27370WAT     H282353   6.625   6.169   0.965
27371WAT      O82354   8.242   2.225   0.582
27371WAT     H182355   8.282   2.286   0.513
27371WAT     H282356   8.292   2.139   0.585
27372WAT      O82357   6.014   4.784   9.339
27372WAT     H182358   5.947   4.837   9.287
27372WAT     H282359   6.102   4.832   9.339
27373WAT      O82360   5.008   6.725   5.824
27373WAT     H182361   5.029   6.714   5.921
27373WAT     H282362   5.015   6.821   5.799
27374WAT      O82363   2.209   7.945   3.932
27374WAT     H182364   2.306   7.924   3.927
27374WAT     H282365   2.192   8.036   3.895
27375WAT      O82366   1.312   3.369   2.858
27375WAT     H182367   1.233   3.308   2.863
27375WAT     H282368   1.384   3.335   2.919
27376WAT      O82369   8.390   2.624   7.956
27376WAT     H182370   8.485   2.620   7.988
27376WAT     H282371   8.388   2.619   7.857
27377WAT      O82372   8.250   4.847   6.920
27377WAT     H182373   8.179   4.785   6.955
27377WAT     H282374   8.339   4.817   6.951
27378WAT      O82375   0.962   8.030   5.279
27378WAT     H182376   0.934   8.119   5.243
27378WAT     H282377   1.043   7.998   5.228
27379WAT      O82378   5.393   3.122   2.744
27379WAT     H182379   5.429   3.074   2.824
27379WAT     H282380   5.469   3.157   2.689
27380WAT      O82381   5.763   7.052   9.679
27380WAT     H182382   5.755   6.976   9.744
27380WAT     H282383   5.696   7.039   9.605
27381WAT      O82384   5.211   2.462   0.577
27381WAT     H182385   5.172   2.384   0.627
27381WAT     H282386   5.189   2.547   0.626
27382WAT      O82387   4.570   0.764   2.546
27382WAT     H182388   4.606   0.707   2.620
27382WAT     H282389   4.473   0.783   2.563
27383WAT      O82390   8.338   3.666   0.108
27383WAT     H182391   8.437   3.669   0.100
27383WAT     H282392   8.300   3.609   0.035
27384WAT      O82393   6.677   1.999   0.220
27384WAT     H182394   6.688   1.992   0.319
27384WAT     H282395   6.596   2.056   0.199
27385WAT      O82396   5.344   9.433   2.613
27385WAT     H182397   5.299   9.359   2.662
27385WAT     H282398   5.326   9.520   2.659
27386WAT      O82399   8.544   1.222   4.512
27386WAT     H182400   8.550   1.245   4.609
27386WAT     H282401   8.517   1.303   4.460
27387WAT      O82402   1.759   0.895   2.240
27387WAT     H182403   1.792   0.806   2.210
27387WAT     H282404   1.818   0.967   2.204
27388WAT      O82405   0.764   5.962   6.261
27388WAT     H182406   0.675   6.000   6.285
27388WAT     H282407   0.836   6.013   6.308
27389WAT      O82408   5.805   5.181   9.790
27389WAT     H182409   5.716   5.141   9.812
27389WAT     H282410   5.801   5.280   9.803
27390WAT      O82411   6.761   9.496   3.703
27390WAT     H182412   6.753   9.557   3.781
27390WAT     H282413   6.780   9.549   3.620
27391WAT      O82414   3.641   2.161   6.538
27391WAT     H182415   3.706   2.181   6.612
27391WAT     H282416   3.596   2.246   6.510
27392WAT      O82417   5.338   1.447   5.619
27392WAT     H182418   5.348   1.350   5.642
27392WAT     H282419   5.424   1.494   5.639
27393WAT      O82420   9.260   6.313   5.157
27393WAT     H182421   9.167   6.294   5.125
27393WAT     H282422   9.276   6.412   5.155
27394WAT      O82423   4.246   5.177   9.477
27394WAT     H182424   4.240   5.167   9.577
27394WAT     H282425   4.201   5.099   9.433
27395WAT      O82426   9.402   5.382   6.623
27395WAT     H182427   9.372   5.303   6.569
27395WAT     H282428   9.502   5.383   6.626
27396WAT      O82429   3.109   0.017   2.396
27396WAT     H182430   3.025   0.069   2.394
27396WAT     H282431   3.104  -0.059   2.330
27397WAT      O82432   4.976   3.386   0.111
27397WAT     H182433   5.072   3.362   0.098
27397WAT     H282434   4.969   3.465   0.171
27398WAT      O82435   6.708   7.402   7.426
27398WAT     H182436   6.630   7.401   7.364
27398WAT     H282437   6.703   7.324   7.488
27399WAT      O82438   5.128   3.609   7.264
27399WAT     H182439   5.172   3.565   7.186
27399WAT     H282440   5.031   3.623   7.244
27400WAT      O82441   1.709   5.855   5.499
27400WAT     H182442   1.693   5.895   5.590
27400WAT     H282443   1.621   5.841   5.454
27401WAT      O82444   1.660   9.374   5.418
27401WAT     H182445   1.618   9.464   5.410
27401WAT     H282446   1.694   9.361   5.512
27402WAT      O82447   7.942   0.647   3.592
27402WAT     H182448   7.924   0.578   3.522
27402WAT     H282449   7.863   0.706   3.602
27403WAT      O82450   7.441   9.587   4.742
27403WAT     H182451   7.534   9.594   4.706
27403WAT     H282452   7.442   9.609   4.839
27404WAT      O82453   6.013   9.641   1.056
27404WAT     H182454   6.005   9.719   1.117
27404WAT     H282455   6.025   9.673   0.962
27405WAT      O82456   1.852   6.169   9.310
27405WAT     H182457   1.858   6.228   9.390
27405WAT     H282458   1.944   6.151   9.275
27406WAT      O82459   7.677   1.418   7.524
27406WAT     H182460   7.728   1.365   7.455
27406WAT     H282461   7.727   1.503   7.543
27407WAT      O82462   4.139   9.639   3.850
27407WAT     H182463   4.102   9.731   3.835
27407WAT     H282464   4.096   9.599   3.931
27408WAT      O82465   3.130   5.781   0.149
27408WAT     H182466   3.188   5.862   0.148
27408WAT     H282467   3.037   5.808   0.176
27409WAT      O82468   9.355   8.015   4.812
27409WAT     H182469   9.447   8.008   4.774
27409WAT     H282470   9.322   7.923   4.837
27410WAT      O82471   2.365   8.919   6.056
27410WAT     H182472   2.351   8.920   6.155
27410WAT     H282473   2.420   8.840   6.031
27411WAT      O82474   9.659   3.321   7.358
27411WAT     H182475   9.599   3.385   7.310
27411WAT     H282476   9.604   3.252   7.405
27412WAT      O82477   7.397   8.180   0.420
27412WAT     H182478   7.480   8.215   0.376
27412WAT     H282479   7.420   8.101   0.477
27413WAT      O82480   4.574   3.041   1.592
27413WAT     H182481   4.500   3.052   1.658
27413WAT     H282482   4.539   2.997   1.509
27414WAT      O82483   0.016   8.153   2.086
27414WAT     H182484   0.081   8.151   2.162
27414WAT     H282485  -0.065   8.099   2.110
27415WAT      O82486   1.512   2.036   0.733
27415WAT     H182487   1.539   1.955   0.785
27415WAT     H282488   1.488   2.110   0.796
27416WAT      O82489   7.449   6.257   6.974
27416WAT     H182490   7.453   6.238   6.876
27416WAT     H282491   7.541   6.274   7.009
27417WAT      O82492   1.438   3.883   4.413
27417WAT     H182493   1.517   3.847   4.364
27417WAT     H282494   1.407   3.968   4.371
27418WAT      O82495   1.030   0.085   0.147
27418WAT     H182496   1.095   0.047   0.081
27418WAT     H282497   0.961   0.016   0.168
27419WAT      O82498   9.418   5.781   1.430
27419WAT     H182499   9.499   5.736   1.393
27419WAT     H282500   9.339   5.762   1.372
27420WAT      O82501   2.250   4.326   2.514
27420WAT     H182502   2.208   4.244   2.554
27420WAT     H282503   2.256   4.397   2.583
27421WAT      O82504   8.936   4.666   6.057
27421WAT     H182505   8.889   4.706   6.135
27421WAT     H282506   8.874   4.603   6.010
27422WAT      O82507   8.977   5.805   2.378
27422WAT     H182508   8.997   5.717   2.335
27422WAT     H282509   8.963   5.875   2.308
27423WAT      O82510   5.475   3.504   9.296
27423WAT     H182511   5.416   3.483   9.218
27423WAT     H282512   5.434   3.468   9.380
27424WAT      O82513   0.785   6.623   8.407
27424WAT     H182514   0.710   6.582   8.460
27424WAT     H282515   0.783   6.589   8.314
27425WAT      O82516   5.631   9.015   6.760
27425WAT     H182517   5.726   9.037   6.783
27425WAT     H282518   5.598   8.942   6.819
27426WAT      O82519   9.442   3.566   1.738
27426WAT     H182520   9.374   3.513   1.787
27426WAT     H282521   9.466   3.519   1.653
27427WAT      O82522   4.566   2.878   0.887
27427WAT     H182523   4.650   2.888   0.942
27427WAT     H282524   4.511   2.803   0.923
27428WAT      O82525   0.151   5.561   2.672
27428WAT     H182526   0.187   5.618   2.598
27428WAT     H282527   0.102   5.484   2.634
27429WAT      O82528   2.037   7.150   0.256
27429WAT     H182529   2.124   7.147   0.207
27429WAT     H282530   2.042   7.220   0.328
27430WAT      O82531   6.653   2.454   8.086
27430WAT     H182532   6.553   2.458   8.088
27430WAT     H282533   6.682   2.378   8.029
27431WAT      O82534   8.887   4.227   1.139
27431WAT     H182535   8.824   4.227   1.216
27431WAT     H282536   8.858   4.296   1.073
27432WAT      O82537   3.869   5.831   9.845
27432WAT     H182538   3.962   5.837   9.808
27432WAT     H282539   3.850   5.912   9.900
27433WAT      O82540   0.134   6.125   3.219
27433WAT     H182541   0.100   6.064   3.148
27433WAT     H282542   0.227   6.154   3.196
27434WAT      O82543   4.391   5.599   3.614
27434WAT     H182544   4.431   5.689   3.634
27434WAT     H282545   4.450   5.549   3.551
27435WAT      O82546   2.473   2.631   7.486
27435WAT     H182547   2.466   2.598   7.391
27435WAT     H282548   2.565   2.667   7.501
27436WAT      O82549   2.626   2.518   9.725
27436WAT     H182550   2.667   2.563   9.804
27436WAT     H282551   2.551   2.458   9.755
27437WAT      O82552   1.940   4.583   6.009
27437WAT     H182553   2.038   4.602   5.997
27437WAT     H282554   1.889   4.620   5.931
27438WAT      O82555   9.859   0.053   4.699
27438WAT     H182556   9.859  -0.017   4.627
27438WAT     H282557   9.945   0.104   4.696
27439WAT      O82558   4.860   4.230   0.263
27439WAT     H182559   4.956   4.258   0.262
27439WAT     H282560   4.853   4.136   0.228
27440WAT      O82561   1.072   5.053   5.804
27440WAT     H182562   1.023   5.139   5.791
27440WAT     H282563   1.060   5.022   5.898
27441WAT      O82564   4.960   9.147   7.995
27441WAT     H182565   4.950   9.204   8.077
27441WAT     H282566   4.927   9.055   8.014
27442WAT      O82567   8.954   7.088   2.351
27442WAT     H182568   8.979   7.053   2.441
27442WAT     H282569   9.036   7.098   2.295
27443WAT      O82570   5.760   2.002   6.556
27443WAT     H182571   5.663   2.020   6.572
27443WAT     H282572   5.772   1.909   6.522
27444WAT      O82573   0.029   4.098   5.582
27444WAT     H182574   0.062   4.026   5.521
27444WAT     H282575   0.084   4.180   5.570
27445WAT      O82576   1.714   5.812   1.061
27445WAT     H182577   1.751   5.868   1.135
27445WAT     H282578   1.775   5.817   0.982
27446WAT      O82579   6.642   5.489   0.031
27446WAT     H182580   6.677   5.396   0.023
27446WAT     H282581   6.588   5.511  -0.050
27447WAT      O82582   2.564   6.726   8.409
27447WAT     H182583   2.643   6.754   8.355
27447WAT     H282584   2.570   6.768   8.500
27448WAT      O82585   1.790   9.154   1.118
27448WAT     H182586   1.769   9.061   1.147
27448WAT     H282587   1.801   9.212   1.199
27449WAT      O82588   8.394   7.506   7.897
27449WAT     H182589   8.408   7.543   7.804
27449WAT     H282590   8.472   7.448   7.921
27450WAT      O82591   3.150   6.955   7.230
27450WAT     H182592   3.214   6.878   7.224
27450WAT     H282593   3.191   7.036   7.190
27451WAT      O82594   8.679   8.722   2.384
27451WAT     H182595   8.691   8.761   2.475
27451WAT     H282596   8.678   8.622   2.391
27452WAT      O82597   8.885   2.485   2.784
27452WAT     H182598   8.824   2.430   2.841
27452WAT     H282599   8.867   2.582   2.799
27453WAT      O82600   6.885   8.542   5.318
27453WAT     H182601   6.808   8.571   5.262
27453WAT     H282602   6.969   8.583   5.284
27454WAT      O82603   1.879   8.560   8.845
27454WAT     H182604   1.834   8.484   8.891
27454WAT     H282605   1.958   8.526   8.794
27455WAT      O82606   8.817   2.808   6.609
27455WAT     H182607   8.752   2.884   6.595
27455WAT     H282608   8.878   2.803   6.530
27456WAT      O82609   8.403   3.107   6.550
27456WAT     H182610   8.389   3.097   6.648
27456WAT     H282611   8.338   3.173   6.513
27457WAT      O82612   6.216   5.342   2.873
27457WAT     H182613   6.202   5.431   2.916
27457WAT     H282614   6.222   5.353   2.774
27458WAT      O82615   8.287   5.584   1.692
27458WAT     H182616   8.332   5.666   1.656
27458WAT     H282617   8.348   5.506   1.685
27459WAT      O82618   7.477   5.814   0.062
27459WAT     H182619   7.508   5.724   0.091
27459WAT     H282620   7.384   5.831   0.097
27460WAT      O82621   6.960   2.333   8.382
27460WAT     H182622   6.972   2.247   8.431
27460WAT     H282623   7.024   2.401   8.417
27461WAT      O82624   8.680   1.817   4.521
27461WAT     H182625   8.588   1.777   4.528
27461WAT     H282626   8.748   1.748   4.545
27462WAT      O82627   2.606   7.611   4.341
27462WAT     H182628   2.655   7.667   4.408
27462WAT     H282629   2.534   7.665   4.298
27463WAT      O82630   9.717   0.368   2.920
27463WAT     H182631   9.623   0.387   2.893
27463WAT     H282632   9.770   0.453   2.917
27464WAT      O82633   2.734   3.305   5.196
27464WAT     H182634   2.827   3.339   5.187
27464WAT     H282635   2.675   3.378   5.231
27465WAT      O82636   2.105   0.078   5.106
27465WAT     H182637   2.049   0.012   5.156
27465WAT     H282638   2.124   0.157   5.164
27466WAT      O82639   5.671   1.063   6.124
27466WAT     H182640   5.730   1.144   6.123
27466WAT     H282641   5.576   1.090   6.133
27467WAT      O82642   5.337   6.628   5.593
27467WAT     H182643   5.403   6.561   5.559
27467WAT     H282644   5.334   6.624   5.692
27468WAT      O82645   3.521   7.406   8.475
27468WAT     H182646   3.475   7.488   8.440
27468WAT     H282647   3.620   7.416   8.463
27469WAT      O82648   3.769   0.829   5.704
27469WAT     H182649   3.807   0.921   5.716
27469WAT     H282650   3.844   0.765   5.686
27470WAT      O82651   7.389   6.739   5.065
27470WAT     H182652   7.318   6.789   5.114
27470WAT     H282653   7.389   6.768   4.969
27471WAT      O82654   2.344   6.422   5.534
27471WAT     H182655   2.414   6.478   5.490
27471WAT     H282656   2.345   6.330   5.496
27472WAT      O82657   2.640   5.211   8.039
27472WAT     H182658   2.731   5.215   7.998
27472WAT     H282659   2.633   5.129   8.096
27473WAT      O82660   6.236  -0.000   7.564
27473WAT     H182661   6.266   0.087   7.526
27473WAT     H282662   6.253  -0.001   7.662
27474WAT      O82663   6.644   5.468   7.667
27474WAT     H182664   6.595   5.550   7.697
27474WAT     H282665   6.591   5.421   7.596
27475WAT      O82666   8.812   9.843   3.308
27475WAT     H182667   8.822   9.816   3.212
27475WAT     H282668   8.820   9.762   3.366
27476WAT      O82669   5.462   9.322   4.835
27476WAT     H182670   5.378   9.284   4.795
27476WAT     H282671   5.517   9.249   4.875
27477WAT      O82672   2.557   5.916   7.018
27477WAT     H182673   2.635   5.854   7.010
27477WAT     H282674   2.472   5.864   7.013
27478WAT      O82675   3.964   4.342   0.160
27478WAT     H182676   3.880   4.370   0.208
27478WAT     H282677   4.030   4.307   0.227
27479WAT      O82678   1.150   6.778   0.078
27479WAT     H182679   1.133   6.771   0.176
27479WAT     H282680   1.126   6.691   0.034
27480WAT      O82681   5.075   9.603   3.849
27480WAT     H182682   5.059   9.574   3.754
27480WAT     H282683   5.053   9.528   3.911
27481WAT      O82684   1.023   6.444   0.493
27481WAT     H182685   1.058   6.517   0.552
27481WAT     H282686   0.981   6.373   0.550
27482WAT      O82687   3.422   3.232   4.994
27482WAT     H182688   3.346   3.186   5.039
27482WAT     H282689   3.423   3.207   4.897
27483WAT      O82690   2.221   6.758   6.419
27483WAT     H182691   2.232   6.745   6.321
27483WAT     H282692   2.161   6.837   6.436
27484WAT      O82693   0.052   1.938   1.691
27484WAT     H182694   0.056   1.947   1.790
27484WAT     H282695  -0.043   1.942   1.661
27485WAT      O82696   1.893   9.772   0.402
27485WAT     H182697   1.829   9.702   0.433
27485WAT     H282698   1.899   9.845   0.470
27486WAT      O82699   0.030   5.784   2.803
27486WAT     H182700   0.078   5.697   2.793
27486WAT     H282701   0.096   5.859   2.805
27487WAT      O82702   4.487   3.064   7.391
27487WAT     H182703   4.457   3.109   7.475
27487WAT     H282704   4.577   3.098   7.365
27488WAT      O82705   8.385   3.233   8.813
27488WAT     H182706   8.312   3.169   8.789
27488WAT     H282707   8.405   3.226   8.910
27489WAT      O82708   2.751   2.439   6.836
27489WAT     H182709   2.710   2.349   6.824
27489WAT     H282710   2.849   2.429   6.851
27490WAT      O82711   5.813   2.021   2.842
27490WAT     H182712   5.771   2.064   2.762
27490WAT     H282713   5.792   1.923   2.842
27491WAT      O82714   7.518   4.763   4.663
27491WAT     H182715   7.579   4.842   4.667
27491WAT     H282716   7.445   4.773   4.730
27492WAT      O82717   9.865   3.916   5.324
27492WAT     H182718   9.792   3.849   5.336
27492WAT     H282719   9.953   3.869   5.314
27493WAT      O82720   2.055   5.260   1.678
27493WAT     H182721   1.975   5.314   1.653
27493WAT     H282722   2.078   5.276   1.774
27494WAT      O82723   4.398   6.103   7.346
27494WAT     H182724   4.316   6.113   7.290
27494WAT     H282725   4.475   6.146   7.301
27495WAT      O82726   7.371   3.249   2.185
27495WAT     H182727   7.457   3.295   2.209
27495WAT     H282728   7.316   3.235   2.267
27496WAT      O82729   5.819   1.621   8.346
27496WAT     H182730   5.735   1.607   8.397
27496WAT     H282731   5.810   1.579   8.255
27497WAT      O82732   2.691   2.391   8.528
27497WAT     H182733   2.631   2.464   8.496
27497WAT     H282734   2.785   2.423   8.532
27498WAT      O82735   6.768   4.611   0.949
27498WAT     H182736   6.868   4.603   0.955
27498WAT     H282737   6.737   4.685   1.009
27499WAT      O82738   1.769   8.132   7.477
27499WAT     H182739   1.765   8.041   7.435
27499WAT     H282740   1.751   8.124   7.575
27500WAT      O82741   7.587   7.353   5.635
27500WAT     H182742   7.599   7.259   5.666
27500WAT     H282743   7.596   7.357   5.536
27501WAT      O82744   7.358   7.723   7.501
27501WAT     H182745   7.430   7.698   7.567
27501WAT     H282746   7.400   7.753   7.416
27502WAT      O82747   9.363   8.907   2.535
27502WAT     H182748   9.439   8.948   2.484
27502WAT     H282749   9.341   8.818   2.495
27503WAT      O82750   3.106   0.910   8.297
27503WAT     H182751   3.050   0.906   8.380
27503WAT     H282752   3.083   0.993   8.246
27504WAT      O82753   2.336   5.891   1.194
27504WAT     H182754   2.433   5.912   1.180
27504WAT     H282755   2.327   5.803   1.240
27505WAT      O82756   6.211   3.756   7.522
27505WAT     H182757   6.144   3.819   7.482
27505WAT     H282758   6.303   3.795   7.513
27506WAT      O82759   5.888   8.182   6.225
27506WAT     H182760   5.960   8.121   6.191
27506WAT     H282761   5.929   8.265   6.262
27507WAT      O82762   2.226   2.184   7.584
27507WAT     H182763   2.282   2.112   7.626
27507WAT     H282764   2.151   2.142   7.533
27508WAT      O82765   0.466   8.867   9.162
27508WAT     H182766   0.523   8.809   9.104
27508WAT     H282767   0.378   8.883   9.117
27509WAT      O82768   3.402   3.183   4.724
27509WAT     H182769   3.361   3.264   4.681
27509WAT     H282770   3.483   3.155   4.673
27510WAT      O82771   3.612   3.015   4.241
27510WAT     H182772   3.686   2.948   4.242
27510WAT     H282773   3.588   3.036   4.146
27511WAT      O82774   1.927   7.879   3.285
27511WAT     H182775   1.910   7.976   3.269
27511WAT     H282776   1.860   7.843   3.349
27512WAT      O82777   6.713   5.559   9.557
27512WAT     H182778   6.710   5.530   9.462
27512WAT     H282779   6.809   5.568   9.586
27513WAT      O82780   8.791   6.566   9.253
27513WAT     H182781   8.815   6.567   9.350
27513WAT     H282782   8.749   6.654   9.228
27514WAT      O82783   2.089   5.802   1.728
27514WAT     H182784   2.162   5.748   1.771
27514WAT     H282785   2.053   5.752   1.650
27515WAT      O82786   0.729   3.558   5.337
27515WAT     H182787   0.666   3.550   5.414
27515WAT     H282788   0.769   3.468   5.318
27516WAT      O82789   8.654   2.901   3.357
27516WAT     H182790   8.732   2.946   3.401
27516WAT     H282791   8.590   2.868   3.427
27517WAT      O82792   3.832   5.581   6.391
27517WAT     H182793   3.772   5.558   6.314
27517WAT     H282794   3.811   5.521   6.468
27518WAT      O82795   4.579   3.167   2.452
27518WAT     H182796   4.517   3.243   2.469
27518WAT     H282797   4.673   3.201   2.446
27519WAT      O82798   6.366   7.058   8.852
27519WAT     H182799   6.432   6.986   8.830
27519WAT     H282800   6.292   7.020   8.908
27520WAT      O82801   6.297   2.868   0.308
27520WAT     H182802   6.374   2.885   0.368
27520WAT     H282803   6.330   2.852   0.215
27521WAT      O82804   6.047   8.173   3.815
27521WAT     H182805   5.979   8.240   3.788
27521WAT     H282806   6.130   8.219   3.845
27522WAT      O82807   1.399   4.925   0.506
27522WAT     H182808   1.357   5.010   0.538
27522WAT     H282809   1.334   4.850   0.515
27523WAT      O82810   8.676   0.205   2.555
27523WAT     H182811   8.650   0.297   2.586
27523WAT     H282812   8.596   0.145   2.558
27524WAT      O82813   8.052   4.866   5.784
27524WAT     H182814   8.146   4.896   5.767
27524WAT     H282815   8.051   4.767   5.800
27525WAT      O82816   6.157   0.115   3.970
27525WAT     H182817   6.169   0.172   3.889
27525WAT     H282818   6.207   0.155   4.047
27526WAT      O82819   5.955   5.000   7.190
27526WAT     H182820   5.882   4.952   7.239
27526WAT     H282821   5.923   5.092   7.165
27527WAT      O82822   5.281   6.798   7.119
27527WAT     H182823   5.240   6.847   7.043
27527WAT     H282824   5.314   6.863   7.187
27528WAT      O82825   1.225   8.751   4.561
27528WAT     H182826   1.280   8.762   4.478
27528WAT     H282827   1.228   8.656   4.592
27529WAT      O82828   5.738   4.738   1.134
27529WAT     H182829   5.833   4.745   1.164
27529WAT     H282830   5.727   4.787   1.047
27530WAT      O82831   5.339   7.727   0.472
27530WAT     H182832   5.417   7.667   0.490
27530WAT     H282833   5.269   7.714   0.542
27531WAT      O82834   5.165   3.886   3.081
27531WAT     H182835   5.255   3.852   3.109
27531WAT     H282836   5.120   3.929   3.159
27532WAT      O82837   4.422   1.890   5.067
27532WAT     H182838   4.418   1.823   4.993
27532WAT     H282839   4.497   1.867   5.129
27533WAT      O82840   7.348   2.020   2.018
27533WAT     H182841   7.335   1.929   1.979
27533WAT     H282842   7.307   2.088   1.957
27534WAT      O82843   3.274   0.755   1.290
27534WAT     H182844   3.320   0.835   1.252
27534WAT     H282845   3.179   0.776   1.312
27535WAT      O82846   3.927   8.332   3.258
27535WAT     H182847   3.886   8.422   3.248
27535WAT     H282848   3.904   8.294   3.347
27536WAT      O82849   0.903   4.329   6.251
27536WAT     H182850   0.901   4.349   6.153
27536WAT     H282851   0.922   4.232   6.265
27537WAT      O82852   8.268   1.896   4.793
27537WAT     H182853   8.363   1.871   4.811
27537WAT     H282854   8.208   1.820   4.818
27538WAT      O82855   7.854   2.622   3.893
27538WAT     H182856   7.933   2.562   3.886
27538WAT     H282857   7.815   2.616   3.985
27539WAT      O82858   6.935   8.418   1.457
27539WAT     H182859   6.889   8.458   1.377
27539WAT     H282860   7.022   8.377   1.428
27540WAT      O82861   0.496   8.771   0.853
27540WAT     H182862   0.442   8.745   0.774
27540WAT     H282863   0.578   8.713   0.859
27541WAT      O82864   2.334   8.095   7.072
27541WAT     H182865   2.351   8.021   7.007
27541WAT     H282866   2.371   8.180   7.036
27542WAT      O82867   6.549   5.229   0.266
27542WAT     H182868   6.604   5.249   0.184
27542WAT     H282869   6.465   5.182   0.239
27543WAT      O82870   8.196   9.170   4.922
27543WAT     H182871   8.228   9.175   4.828
27543WAT     H282872   8.138   9.248   4.942
27544WAT      O82873   5.922   3.991   9.887
27544WAT     H182874   5.915   3.987   9.788
27544WAT     H282875   5.831   3.989   9.927
27545WAT      O82876   0.232   4.995   2.840
27545WAT     H182877   0.263   4.904   2.811
27545WAT     H282878   0.308   5.060   2.830
27546WAT      O82879   3.308   6.007   7.001
27546WAT     H182880   3.344   6.087   7.049
27546WAT     H282881   3.379   5.938   6.992
27547WAT      O82882   9.472   2.300   2.585
27547WAT     H182883   9.544   2.283   2.518
27547WAT     H282884   9.384   2.274   2.546
27548WAT      O82885   4.087   6.556   7.251
27548WAT     H182886   4.169   6.499   7.238
27548WAT     H282887   4.064   6.600   7.165
27549WAT      O82888   6.120   0.791   3.769
27549WAT     H182889   6.147   0.823   3.860
27549WAT     H282890   6.086   0.867   3.715
27550WAT      O82891   7.038   1.835   3.066
27550WAT     H182892   6.979   1.802   3.140
27550WAT     H282893   7.124   1.785   3.067
27551WAT      O82894   2.143   5.281   9.257
27551WAT     H182895   2.118   5.217   9.184
27551WAT     H282896   2.233   5.257   9.292
27552WAT      O82897   7.633   5.273   9.630
27552WAT     H182898   7.677   5.304   9.714
27552WAT     H282899   7.676   5.187   9.601
27553WAT      O82900   6.795   9.403   9.247
27553WAT     H182901   6.724   9.336   9.267
27553WAT     H282902   6.763   9.464   9.175
27554WAT      O82903   0.415   8.675   6.010
27554WAT     H182904   0.421   8.621   5.926
27554WAT     H282905   0.445   8.620   6.088
27555WAT      O82906   3.311   0.076   9.079
27555WAT     H182907   3.293   0.094   9.175
27555WAT     H282908   3.350  -0.016   9.069
27556WAT      O82909   8.014   7.144   0.462
27556WAT     H182910   8.043   7.074   0.526
27556WAT     H282911   8.055   7.232   0.488
27557WAT      O82912   5.024   1.834   1.412
27557WAT     H182913   5.052   1.900   1.342
27557WAT     H282914   4.995   1.749   1.368
27558WAT      O82915   5.235   5.195   8.022
27558WAT     H182916   5.171   5.163   7.952
27558WAT     H282917   5.228   5.295   8.031
27559WAT      O82918   9.819   5.997   0.569
27559WAT     H182919   9.886   5.965   0.636
27559WAT     H282920   9.742   5.933   0.566
27560WAT      O82921   8.746   4.458   3.018
27560WAT     H182922   8.820   4.392   3.032
27560WAT     H282923   8.709   4.486   3.106
27561WAT      O82924   0.488   9.023   8.852
27561WAT     H182925   0.437   8.941   8.826
27561WAT     H282926   0.448   9.063   8.934
27562WAT      O82927   5.502   7.604   4.881
27562WAT     H182928   5.484   7.674   4.812
27562WAT     H282929   5.580   7.632   4.937
27563WAT      O82930   5.683   2.757   2.029
27563WAT     H182931   5.721   2.850   2.030
27563WAT     H282932   5.738   2.698   2.088
27564WAT      O82933   2.321   5.575   7.609
27564WAT     H182934   2.233   5.621   7.602
27564WAT     H282935   2.390   5.627   7.558
27565WAT      O82936   7.971   1.957   4.788
27565WAT     H182937   7.992   1.897   4.866
27565WAT     H282938   8.042   2.026   4.779
27566WAT      O82939   5.335   0.247   1.224
27566WAT     H182940   5.403   0.195   1.172
27566WAT     H282941   5.312   0.197   1.308
27567WAT      O82942   2.387   4.968   3.986
27567WAT     H182943   2.298   5.007   4.011
27567WAT     H282944   2.373   4.886   3.930
27568WAT      O82945   8.700   3.842   7.677
27568WAT     H182946   8.660   3.923   7.635
27568WAT     H282947   8.760   3.871   7.753
27569WAT      O82948   9.222   8.760   3.193
27569WAT     H182949   9.155   8.833   3.182
27569WAT     H282950   9.314   8.800   3.196
27570WAT      O82951   0.689   2.025   3.133
27570WAT     H182952   0.737   2.022   3.220
27570WAT     H282953   0.662   1.933   3.107
27571WAT      O82954   5.454   5.717   1.814
27571WAT     H182955   5.542   5.764   1.806
27571WAT     H282956   5.462   5.642   1.880
27572WAT      O82957   6.113   5.460   3.422
27572WAT     H182958   6.160   5.546   3.439
27572WAT     H282959   6.016   5.477   3.406
27573WAT      O82960   1.702   7.304   4.862
27573WAT     H182961   1.709   7.401   4.838
27573WAT     H282962   1.731   7.249   4.784
27574WAT      O82963   5.852   8.916   0.739
27574WAT     H182964   5.886   8.992   0.794
27574WAT     H282965   5.752   8.918   0.737
27575WAT      O82966   8.089   2.101   5.213
27575WAT     H182967   8.063   2.197   5.204
27575WAT     H282968   8.154   2.077   5.140
27576WAT      O82969   4.258   4.012   3.798
27576WAT     H182970   4.237   4.094   3.852
27576WAT     H282971   4.332   3.962   3.842
27577WAT      O82972   4.571   7.909   1.775
27577WAT     H182973   4.644   7.862   1.824
27577WAT     H282974   4.605   7.997   1.740
27578WAT      O82975   8.457   4.510   4.952
27578WAT     H182976   8.387   4.471   5.012
27578WAT     H282977   8.413   4.554   4.873
27579WAT      O82978   7.598   8.278   2.845
27579WAT     H182979   7.517   8.233   2.882
27579WAT     H282980   7.677   8.259   2.903
27580WAT      O82981   5.176   5.964   7.038
27580WAT     H182982   5.147   5.945   7.132
27580WAT     H282983   5.260   5.914   7.018
27581WAT      O82984   4.046   0.187   4.407
27581WAT     H182985   4.073   0.143   4.493
27581WAT     H282986   4.117   0.172   4.339
27582WAT      O82987   6.354   6.030   2.085
27582WAT     H182988   6.374   5.955   2.022
27582WAT     H282989   6.361   5.997   2.179
27583WAT      O82990   3.623   3.389   9.612
27583WAT     H182991   3.620   3.297   9.650
27583WAT     H282992   3.707   3.401   9.559
27584WAT      O82993   5.375   6.920   6.268
27584WAT     H182994   5.357   6.984   6.193
27584WAT     H282995   5.408   6.971   6.347
27585WAT      O82996   5.272   5.836   4.198
27585WAT     H182997   5.272   5.912   4.133
27585WAT     H282998   5.179   5.822   4.232
27586WAT      O82999   8.538   3.124   7.585
27586WAT     H183000   8.490   3.114   7.497
27586WAT     H283001   8.490   3.072   7.655
27587WAT      O83002   6.217   2.419   0.858
27587WAT     H183003   6.216   2.423   0.758
27587WAT     H283004   6.251   2.506   0.894
27588WAT      O83005   9.220   7.412   2.792
27588WAT     H183006   9.193   7.319   2.818
27588WAT     H283007   9.223   7.470   2.873
27589WAT      O83008   6.042   6.418   1.851
27589WAT     H183009   6.086   6.347   1.906
27589WAT     H283010   6.078   6.508   1.877
27590WAT      O83011   3.573   6.554   7.720
27590WAT     H183012   3.591   6.647   7.688
27590WAT     H283013   3.504   6.556   7.793
27591WAT      O83014   9.710   0.701   6.719
27591WAT     H183015   9.695   0.629   6.651
27591WAT     H283016   9.794   0.682   6.769
27592WAT      O83017   5.204   1.457   0.379
27592WAT     H183018   5.297   1.491   0.386
27592WAT     H283019   5.171   1.429   0.469
27593WAT      O83020   6.529   2.298   8.522
27593WAT     H183021   6.592   2.352   8.465
27593WAT     H283022   6.557   2.304   8.617
27594WAT      O83023   9.357   4.787   1.545
27594WAT     H183024   9.361   4.687   1.543
27594WAT     H283025   9.414   4.824   1.471
27595WAT      O83026   1.669   8.148   1.609
27595WAT     H183027   1.710   8.235   1.583
27595WAT     H283028   1.600   8.163   1.680
27596WAT      O83029   2.363   6.988   3.833
27596WAT     H183030   2.365   7.062   3.900
27596WAT     H283031   2.398   7.022   3.746
27597WAT      O83032   1.367   4.582   2.729
27597WAT     H183033   1.311   4.609   2.808
27597WAT     H283034   1.453   4.631   2.731
27598WAT      O83035   4.217   6.821   8.252
27598WAT     H183036   4.278   6.759   8.200
27598WAT     H283037   4.125   6.815   8.214
27599WAT      O83038   7.976   5.880   0.861
27599WAT     H183039   7.948   5.975   0.857
27599WAT     H283040   8.007   5.858   0.953
27600WAT      O83041   8.845   1.677   8.366
27600WAT     H183042   8.840   1.622   8.449
27600WAT     H283043   8.844   1.617   8.286
27601WAT      O83044   9.667   4.635   7.952
27601WAT     H183045   9.766   4.619   7.947
27601WAT     H283046   9.646   4.726   7.916
27602WAT      O83047   3.657   2.703   1.254
27602WAT     H183048   3.685   2.610   1.232
27602WAT     H283049   3.585   2.701   1.323
27603WAT      O83050   7.098   7.351   0.439
27603WAT     H183051   7.146   7.295   0.506
27603WAT     H283052   7.104   7.307   0.349
27604WAT      O83053   3.114   6.780   0.535
27604WAT     H183054   3.022   6.808   0.561
27604WAT     H283055   3.181   6.839   0.581
27605WAT      O83056   1.145   3.326   0.705
27605WAT     H183057   1.123   3.230   0.687
27605WAT     H283058   1.062   3.375   0.731
27606WAT      O83059   8.393   3.517   8.809
27606WAT     H183060   8.483   3.561   8.798
27606WAT     H283061   8.405   3.418   8.816
27607WAT      O83062   6.906   4.950   2.399
27607WAT     H183063   6.966   4.941   2.320
27607WAT     H283064   6.814   4.920   2.374
27608WAT      O83065   4.919   4.446   3.713
27608WAT     H183066   4.945   4.352   3.733
27608WAT     H283067   4.986   4.487   3.652
27609WAT      O83068   3.990   3.226   8.917
27609WAT     H183069   3.929   3.207   8.840
27609WAT     H283070   3.998   3.144   8.974
27610WAT      O83071   6.969   5.875   4.706
27610WAT     H183072   7.044   5.892   4.642
27610WAT     H283073   6.900   5.819   4.662
27611WAT      O83074   4.273   4.577   2.369
27611WAT     H183075   4.238   4.669   2.388
27611WAT     H283076   4.373   4.577   2.373
27612WAT      O83077   2.516   8.619   5.231
27612WAT     H183078   2.482   8.526   5.215
27612WAT     H283079   2.564   8.623   5.319
27613WAT      O83080   4.029   7.775   5.990
27613WAT     H183081   3.958   7.817   6.047
27613WAT     H283082   4.006   7.679   5.973
27614WAT      O83083   3.092   2.895   4.087
27614WAT     H183084   3.178   2.878   4.039
27614WAT     H283085   3.090   2.989   4.119
27615WAT      O83086   5.747   6.265   2.161
27615WAT     H183087   5.841   6.232   2.165
27615WAT     H283088   5.745   6.359   2.127
27616WAT      O83089   1.233   8.348   4.158
27616WAT     H183090   1.308   8.335   4.092
27616WAT     H283091   1.153   8.296   4.128
27617WAT      O83092   0.763   0.004   6.589
27617WAT     H183093   0.743  -0.072   6.650
27617WAT     H283094   0.714   0.086   6.619
27618WAT      O83095   2.704   0.660   5.189
27618WAT     H183096   2.781   0.669   5.126
27618WAT     H283097   2.698   0.565   5.221
27619WAT      O83098   4.122   4.947   9.419
27619WAT     H183099   4.205   4.897   9.395
27619WAT     H283100   4.062   4.888   9.474
27620WAT      O83101   1.450   6.431   8.799
27620WAT     H183102   1.358   6.470   8.793
27620WAT     H283103   1.515   6.503   8.826
27621WAT      O83104   2.098   5.078   6.180
27621WAT     H183105   2.007   5.115   6.199
27621WAT     H283106   2.127   5.106   6.089
27622WAT      O83107   8.704   5.750   1.111
27622WAT     H183108   8.716   5.832   1.167
27622WAT     H283109   8.606   5.735   1.094
27623WAT      O83110   5.368   6.543   1.917
27623WAT     H183111   5.315   6.550   2.003
27623WAT     H283112   5.364   6.450   1.883
27624WAT      O83113   6.634   2.571   0.182
27624WAT     H183114   6.536   2.556   0.194
27624WAT     H283115   6.659   2.662   0.216
27625WAT      O83116   6.911   9.497   6.034
27625WAT     H183117   6.845   9.563   5.997
27625WAT     H283118   6.928   9.517   6.130
27626WAT      O83119   8.130   2.040   3.729
27626WAT     H183120   8.205   2.080   3.675
27626WAT     H283121   8.079   2.114   3.774
27627WAT      O83122   9.867   7.983   3.728
27627WAT     H183123   9.937   7.951   3.664
27627WAT     H283124   9.907   8.050   3.791
27628WAT      O83125   2.245   8.299   8.922
27628WAT     H183126   2.342   8.272   8.925
27628WAT     H283127   2.200   8.271   9.007
27629WAT      O83128   3.447   7.280   2.754
27629WAT     H183129   3.497   7.226   2.821
27629WAT     H283130   3.452   7.235   2.664
27630WAT      O83131   2.986   4.847   6.793
27630WAT     H183132   2.900   4.823   6.747
27630WAT     H283133   3.054   4.776   6.777
27631WAT      O83134   7.907   1.771   6.666
27631WAT     H183135   7.867   1.713   6.595
27631WAT     H283136   7.839   1.787   6.738
27632WAT      O83137   2.033   8.436   6.461
27632WAT     H183138   1.937   8.442   6.487
27632WAT     H283139   2.085   8.394   6.536
27633WAT      O83140   4.505   6.788   7.981
27633WAT     H183141   4.449   6.739   8.049
27633WAT     H283142   4.489   6.749   7.890
27634WAT      O83143   6.341   3.372   3.409
27634WAT     H183144   6.251   3.335   3.386
27634WAT     H283145   6.387   3.310   3.472
27635WAT      O83146   8.359   5.698   6.062
27635WAT     H183147   8.334   5.620   6.120
27635WAT     H283148   8.429   5.753   6.107
27636WAT      O83149   2.241   7.547   6.644
27636WAT     H183150   2.156   7.494   6.645
27636WAT     H283151   2.319   7.486   6.656
27637WAT      O83152   9.719   2.174   0.849
27637WAT     H183153   9.684   2.265   0.871
27637WAT     H283154   9.651   2.105   0.873
27638WAT      O83155   8.316   3.829   0.919
27638WAT     H183156   8.272   3.830   1.008
27638WAT     H283157   8.330   3.734   0.889
27639WAT      O83158   6.842   9.751   4.407
27639WAT     H183159   6.888   9.667   4.377
27639WAT     H283160   6.743   9.741   4.393
27640WAT      O83161   5.947   7.374   2.867
27640WAT     H183162   6.045   7.356   2.867
27640WAT     H283163   5.905   7.334   2.948
27641WAT      O83164   2.784   0.935   7.875
27641WAT     H183165   2.785   0.900   7.782
27641WAT     H283166   2.876   0.966   7.900
27642WAT      O83167   4.584   1.846   6.486
27642WAT     H183168   4.487   1.837   6.511
27642WAT     H283169   4.599   1.805   6.396
27643WAT      O83170   1.213   8.220   8.757
27643WAT     H183171   1.233   8.143   8.818
27643WAT     H283172   1.157   8.188   8.681
27644WAT      O83173   5.797   3.901   1.183
27644WAT     H183174   5.757   3.966   1.118
27644WAT     H283175   5.831   3.821   1.134
27645WAT      O83176   0.272   9.428   8.375
27645WAT     H183177   0.319   9.512   8.399
27645WAT     H283178   0.328   9.349   8.402
27646WAT      O83179   5.687   4.193   9.151
27646WAT     H183180   5.774   4.235   9.124
27646WAT     H283181   5.625   4.264   9.185
27647WAT      O83182   5.689   3.646   9.450
27647WAT     H183183   5.629   3.575   9.413
27647WAT     H283184   5.648   3.736   9.438
27648WAT      O83185   5.520   6.238   1.978
27648WAT     H183186   5.586   6.237   2.052
27648WAT     H283187   5.565   6.214   1.892
27649WAT      O83188   1.398   1.605   4.380
27649WAT     H183189   1.431   1.658   4.459
27649WAT     H283190   1.476   1.579   4.323
27650WAT      O83191   3.752   7.273   1.469
27650WAT     H183192   3.713   7.313   1.552
27650WAT     H283193   3.851   7.275   1.474
27651WAT      O83194   4.300   1.641   9.303
27651WAT     H183195   4.270   1.553   9.266
27651WAT     H283196   4.379   1.627   9.363
27652WAT      O83197   8.732   1.955   0.991
27652WAT     H183198   8.800   1.903   0.939
27652WAT     H283199   8.742   2.053   0.971
27653WAT      O83200   8.583   6.799   2.081
27653WAT     H183201   8.555   6.730   2.015
27653WAT     H283202   8.505   6.824   2.139
27654WAT      O83203   0.263   4.819   8.012
27654WAT     H183204   0.355   4.783   8.025
27654WAT     H283205   0.267   4.903   7.958
27655WAT      O83206   4.402   2.948   1.128
27655WAT     H183207   4.394   2.865   1.073
27655WAT     H283208   4.321   3.005   1.113
27656WAT      O83209   2.296   9.355   5.003
27656WAT     H183210   2.274   9.294   4.927
27656WAT     H283211   2.385   9.398   4.985
27657WAT      O83212   1.903   4.571   0.118
27657WAT     H183213   1.894   4.502   0.190
27657WAT     H283214   1.963   4.535   0.046
27658WAT      O83215   0.276   9.825   5.702
27658WAT     H183216   0.312   9.895   5.765
27658WAT     H283217   0.226   9.870   5.628
27659WAT      O83218   3.265   8.208   6.852
27659WAT     H183219   3.339   8.214   6.918
27659WAT     H283220   3.256   8.294   6.803
27660WAT      O83221   8.607   2.529   5.364
27660WAT     H183222   8.551   2.574   5.433
27660WAT     H283223   8.637   2.596   5.296
27661WAT      O83224   9.575   2.594   5.952
27661WAT     H183225   9.642   2.557   6.016
27661WAT     H283226   9.621   2.617   5.866
27662WAT      O83227   8.378   4.796   0.285
27662WAT     H183228   8.391   4.862   0.212
27662WAT     H283229   8.280   4.776   0.295
27663WAT      O83230   4.583   8.876   8.522
27663WAT     H183231   4.617   8.916   8.607
27663WAT     H283232   4.635   8.793   8.502
27664WAT      O83233   1.657   4.960   0.464
27664WAT     H183234   1.676   4.968   0.366
27664WAT     H283235   1.559   4.947   0.477
27665WAT      O83236   9.487   0.909   4.623
27665WAT     H183237   9.524   0.835   4.567
27665WAT     H283238   9.445   0.871   4.706
27666WAT      O83239   4.010   6.952   6.571
27666WAT     H183240   3.912   6.961   6.586
27666WAT     H283241   4.046   6.880   6.630
27667WAT      O83242   0.241   8.441   1.410
27667WAT     H183243   0.286   8.422   1.497
27667WAT     H283244   0.181   8.521   1.421
27668WAT      O83245   7.662   0.797   4.903
27668WAT     H183246   7.648   0.816   5.001
27668WAT     H283247   7.657   0.883   4.852
27669WAT      O83248   5.972   2.338   6.259
27669WAT     H183249   5.994   2.245   6.290
27669WAT     H283250   6.047   2.399   6.283
27670WAT      O83251   3.244   5.876   4.119
27670WAT     H183252   3.274   5.835   4.033
27670WAT     H283253   3.273   5.972   4.122
27671WAT      O83254   4.835   5.890   1.238
27671WAT     H183255   4.806   5.841   1.156
27671WAT     H283256   4.766   5.880   1.310
27672WAT      O83257   3.317   2.447   4.099
27672WAT     H183258   3.386   2.378   4.078
27672WAT     H283259   3.271   2.423   4.185
27673WAT      O83260   5.467   2.820   6.531
27673WAT     H183261   5.562   2.794   6.550
27673WAT     H283262   5.408   2.741   6.548
27674WAT      O83263   0.357   2.972   2.499
27674WAT     H183264   0.434   3.026   2.532
27674WAT     H283265   0.279   2.985   2.561
27675WAT      O83266   5.055   0.442   2.584
27675WAT     H183267   5.131   0.387   2.547
27675WAT     H283268   4.995   0.470   2.510
27676WAT      O83269   3.373   8.972   3.305
27676WAT     H183270   3.274   8.986   3.304
27676WAT     H283271   3.419   9.060   3.313
27677WAT      O83272   9.777   4.344   7.618
27677WAT     H183273   9.751   4.342   7.521
27677WAT     H283274   9.696   4.363   7.673
27678WAT      O83275   6.661   6.412   2.014
27678WAT     H183276   6.634   6.316   2.011
27678WAT     H283277   6.652   6.447   2.107
27679WAT      O83278   5.368   8.169   1.633
27679WAT     H183279   5.425   8.249   1.614
27679WAT     H283280   5.278   8.199   1.664
27680WAT      O83281   4.310   2.525   6.570
27680WAT     H183282   4.310   2.427   6.551
27680WAT     H283283   4.360   2.542   6.654
27681WAT      O83284   2.482   9.297   2.561
27681WAT     H183285   2.487   9.353   2.479
27681WAT     H283286   2.390   9.259   2.570
27682WAT      O83287   8.605   3.284   4.477
27682WAT     H183288   8.608   3.266   4.576
27682WAT     H283289   8.532   3.350   4.458
27683WAT      O83290   9.677   4.753   3.712
27683WAT     H183291   9.599   4.797   3.756
27683WAT     H283292   9.711   4.680   3.771
27684WAT      O83293   6.318   7.887   0.985
27684WAT     H183294   6.411   7.918   1.002
27684WAT     H283295   6.280   7.937   0.907
27685WAT      O83296   6.494   8.061   8.225
27685WAT     H183297   6.579   8.071   8.276
27685WAT     H283298   6.420   8.040   8.287
27686WAT      O83299   2.171   7.770   4.816
27686WAT     H183300   2.239   7.758   4.744
27686WAT     H283301   2.208   7.739   4.904
27687WAT      O83302   1.579   4.528   8.532
27687WAT     H183303   1.519   4.579   8.593
27687WAT     H283304   1.674   4.552   8.551
27688WAT      O83305   0.389   2.540   1.183
27688WAT     H183306   0.468   2.484   1.155
27688WAT     H283307   0.356   2.592   1.104
27689WAT      O83308   9.655   7.519   3.290
27689WAT     H183309   9.736   7.573   3.265
27689WAT     H283310   9.583   7.535   3.223
27690WAT      O83311   5.015   8.200   4.401
27690WAT     H183312   4.953   8.171   4.328
27690WAT     H283313   5.106   8.214   4.363
27691WAT      O83314   7.286   6.439   8.324
27691WAT     H183315   7.253   6.391   8.405
27691WAT     H283316   7.383   6.423   8.312
27692WAT      O83317   0.198   5.516   0.814
27692WAT     H183318   0.195   5.520   0.914
27692WAT     H283319   0.242   5.430   0.786
27693WAT      O83320   1.578   5.335   4.719
27693WAT     H183321   1.614   5.414   4.670
27693WAT     H283322   1.478   5.333   4.710
27694WAT      O83323   8.254   6.285   8.362
27694WAT     H183324   8.246   6.326   8.453
27694WAT     H283325   8.275   6.188   8.371
27695WAT      O83326   0.238   3.599   3.163
27695WAT     H183327   0.173   3.639   3.099
27695WAT     H283328   0.290   3.527   3.118
27696WAT      O83329   2.420   5.702   9.488
27696WAT     H183330   2.469   5.722   9.573
27696WAT     H283331   2.439   5.774   9.421
27697WAT      O83332   9.117   6.269   6.559
27697WAT     H183333   9.067   6.291   6.642
27697WAT     H283334   9.055   6.228   6.492
27698WAT      O83335   2.847   5.777   0.228
27698WAT     H183336   2.793   5.830   0.293
27698WAT     H283337   2.789   5.706   0.187
27699WAT      O83338   1.858   4.763   8.009
27699WAT     H183339   1.780   4.703   7.994
27699WAT     H283340   1.836   4.856   7.977
27700WAT      O83341   2.530   1.061   2.393
27700WAT     H183342   2.503   1.072   2.489
27700WAT     H283343   2.516   0.966   2.366
27701WAT      O83344   3.046   3.060   9.365
27701WAT     H183345   3.059   3.149   9.321
27701WAT     H283346   3.135   3.017   9.380
27702WAT      O83347   5.629   9.130   6.510
27702WAT     H183348   5.558   9.199   6.494
27702WAT     H283349   5.618   9.090   6.601
27703WAT      O83350   9.733   7.429   2.402
27703WAT     H183351   9.784   7.399   2.483
27703WAT     H283352   9.797   7.447   2.327
27704WAT      O83353   2.406   8.816   3.099
27704WAT     H183354   2.323   8.863   3.130
27704WAT     H283355   2.464   8.796   3.178
27705WAT      O83356   8.082   4.338   2.947
27705WAT     H183357   8.093   4.355   2.849
27705WAT     H283358   8.140   4.401   2.999
27706WAT      O83359   4.903   4.528   9.628
27706WAT     H183360   4.938   4.621   9.642
27706WAT     H283361   4.803   4.532   9.617
27707WAT      O83362   8.972   4.292   0.682
27707WAT     H183363   8.946   4.340   0.766
27707WAT     H283364   9.008   4.358   0.616
27708WAT      O83365   4.313   7.981   8.852
27708WAT     H183366   4.223   7.940   8.862
27708WAT     H283367   4.320   8.062   8.911
27709WAT      O83368   1.122   6.433   4.415
27709WAT     H183369   1.034   6.468   4.383
27709WAT     H283370   1.147   6.478   4.501
27710WAT      O83371   7.747   1.439   5.717
27710WAT     H183372   7.696   1.517   5.753
27710WAT     H283373   7.682   1.369   5.686
27711WAT      O83374   0.735   8.497   6.150
27711WAT     H183375   0.649   8.532   6.189
27711WAT     H283376   0.717   8.411   6.102
27712WAT      O83377   4.273   3.715   9.326
27712WAT     H183378   4.290   3.631   9.378
27712WAT     H283379   4.234   3.784   9.386
27713WAT      O83380   5.414   0.651   4.812
27713WAT     H183381   5.325   0.630   4.853
27713WAT     H283382   5.428   0.593   4.732
27714WAT      O83383   8.343   0.255   1.321
27714WAT     H183384   8.343   0.327   1.252
27714WAT     H283385   8.365   0.167   1.279
27715WAT      O83386   4.123   2.354   2.432
27715WAT     H183387   4.149   2.317   2.521
27715WAT     H283388   4.166   2.443   2.419
27716WAT      O83389   9.622   3.639   9.331
27716WAT     H183390   9.563   3.716   9.355
27716WAT     H283391   9.704   3.672   9.285
27717WAT      O83392   6.972   2.436   9.244
27717WAT     H183393   6.988   2.344   9.206
27717WAT     H283394   6.885   2.436   9.294
27718WAT      O83395   8.944   4.201   9.851
27718WAT     H183396   8.847   4.175   9.855
27718WAT     H283397   8.970   4.243   9.938
27719WAT      O83398   1.365   1.245   5.925
27719WAT     H183399   1.447   1.235   5.983
27719WAT     H283400   1.285   1.210   5.974
27720WAT      O83401   4.187   2.582   0.463
27720WAT     H183402   4.144   2.493   0.481
27720WAT     H283403   4.149   2.621   0.379
27721WAT      O83404   1.040   2.678   9.585
27721WAT     H183405   0.998   2.588   9.588
27721WAT     H283406   1.067   2.706   9.677
27722WAT      O83407   8.746   2.978   8.858
27722WAT     H183408   8.800   2.986   8.774
27722WAT     H283409   8.806   2.979   8.937
27723WAT      O83410   0.644   8.557   4.090
27723WAT     H183411   0.615   8.613   4.168
27723WAT     H283412   0.706   8.610   4.033
27724WAT      O83413   2.843   0.271   6.499
27724WAT     H183414   2.796   0.203   6.555
27724WAT     H283415   2.775   0.334   6.460
27725WAT      O83416   0.202   0.869   5.389
27725WAT     H183417   0.229   0.946   5.446
27725WAT     H283418   0.102   0.860   5.389
27726WAT      O83419   8.074   3.176   9.215
27726WAT     H183420   8.085   3.155   9.313
27726WAT     H283421   8.150   3.233   9.184
27727WAT      O83422   7.591   2.715   9.419
27727WAT     H183423   7.548   2.805   9.419
27727WAT     H283424   7.550   2.658   9.348
27728WAT      O83425   1.423   9.403   5.099
27728WAT     H183426   1.363   9.396   5.019
27728WAT     H283427   1.468   9.492   5.098
27729WAT      O83428   0.802   6.600   0.736
27729WAT     H183429   0.768   6.638   0.651
27729WAT     H283430   0.789   6.501   0.736
27730WAT      O83431   1.396   4.083   6.160
27730WAT     H183432   1.461   4.042   6.223
27730WAT     H283433   1.303   4.070   6.195
27731WAT      O83434   1.786   0.245   3.422
27731WAT     H183435   1.726   0.325   3.424
27731WAT     H283436   1.732   0.162   3.414
27732WAT      O83437   7.605   0.237   3.524
27732WAT     H183438   7.682   0.228   3.587
27732WAT     H283439   7.607   0.327   3.480
27733WAT      O83440   7.543   5.275   8.639
27733WAT     H183441   7.604   5.278   8.718
27733WAT     H283442   7.585   5.219   8.567
27734WAT      O83443   9.705   9.224   7.751
27734WAT     H183444   9.674   9.218   7.655
27734WAT     H283445   9.681   9.314   7.788
27735WAT      O83446   4.844   0.463   0.792
27735WAT     H183447   4.909   0.534   0.765
27735WAT     H283448   4.751   0.494   0.772
27736WAT      O83449   1.746   7.164   9.163
27736WAT     H183450   1.833   7.210   9.177
27736WAT     H283451   1.722   7.167   9.066
27737WAT      O83452   8.328   0.787   7.047
27737WAT     H183453   8.251   0.811   7.107
27737WAT     H283454   8.350   0.690   7.059
27738WAT      O83455   8.564   3.744   2.284
27738WAT     H183456   8.613   3.761   2.369
27738WAT     H283457   8.575   3.822   2.223
27739WAT      O83458   5.777   8.627   8.816
27739WAT     H183459   5.734   8.702   8.866
27739WAT     H283460   5.742   8.540   8.850
27740WAT      O83461   7.096   9.700   8.716
27740WAT     H183462   7.169   9.723   8.780
27740WAT     H283463   7.024   9.768   8.722
27741WAT      O83464   6.536   2.251   4.370
27741WAT     H183465   6.440   2.279   4.363
27741WAT     H283466   6.568   2.219   4.281
27742WAT      O83467   1.938   2.462   3.548
27742WAT     H183468   1.903   2.451   3.455
27742WAT     H283469   1.975   2.554   3.559
27743WAT      O83470   1.100   9.400   5.651
27743WAT     H183471   1.120   9.469   5.721
27743WAT     H283472   1.092   9.310   5.694
27744WAT      O83473   2.537   8.242   8.474
27744WAT     H183474   2.592   8.191   8.409
27744WAT     H283475   2.472   8.181   8.518
27745WAT      O83476   2.980   0.658   6.517
27745WAT     H183477   3.026   0.571   6.503
27745WAT     H283478   3.036   0.717   6.576
27746WAT      O83479   1.774   2.916   1.598
27746WAT     H183480   1.834   2.996   1.606
27746WAT     H283481   1.790   2.854   1.675
27747WAT      O83482   7.174   9.241   3.541
27747WAT     H183483   7.116   9.313   3.502
27747WAT     H283484   7.172   9.162   3.481
27748WAT      O83485   0.528   0.476   7.902
27748WAT     H183486   0.469   0.498   7.980
27748WAT     H283487   0.540   0.377   7.897
27749WAT      O83488   6.449   0.814   4.366
27749WAT     H183489   6.542   0.821   4.402
27749WAT     H283490   6.432   0.890   4.303
27750WAT      O83491   6.472   7.373   0.347
27750WAT     H183492   6.493   7.398   0.441
27750WAT     H283493   6.553   7.333   0.304
27751WAT      O83494   5.288   3.956   7.330
27751WAT     H183495   5.311   4.000   7.417
27751WAT     H283496   5.372   3.934   7.281
27752WAT      O83497   8.214   6.523   9.623
27752WAT     H183498   8.123   6.526   9.666
27752WAT     H283499   8.284   6.513   9.694
27753WAT      O83500   7.962   7.520   1.686
27753WAT     H183501   7.917   7.483   1.767
27753WAT     H283502   7.894   7.568   1.629
27754WAT      O83503   1.358   4.233   0.821
27754WAT     H183504   1.457   4.232   0.832
27754WAT     H283505   1.334   4.277   0.734
27755WAT      O83506   4.472   7.415   5.923
27755WAT     H183507   4.415   7.341   5.887
27755WAT     H283508   4.433   7.503   5.899
27756WAT      O83509   2.812   2.097   9.240
27756WAT     H183510   2.855   2.069   9.153
27756WAT     H283511   2.799   2.016   9.298
27757WAT      O83512   6.603   4.965   7.661
27757WAT     H183513   6.562   5.013   7.584
27757WAT     H283514   6.694   4.933   7.636
27758WAT      O83515   8.215   8.727   2.266
27758WAT     H183516   8.304   8.764   2.291
27758WAT     H283517   8.184   8.770   2.181
27759WAT      O83518   4.757   0.811   0.492
27759WAT     H183519   4.745   0.796   0.590
27759WAT     H283520   4.668   0.833   0.451
27760WAT      O83521   6.200   8.636   5.393
27760WAT     H183522   6.257   8.657   5.473
27760WAT     H283523   6.150   8.551   5.409
27761WAT      O83524   0.102   1.643   9.655
27761WAT     H183525   0.038   1.642   9.578
27761WAT     H283526   0.114   1.550   9.689
27762WAT      O83527   4.265   0.751   0.680
27762WAT     H183528   4.286   0.767   0.583
27762WAT     H283529   4.307   0.665   0.710
27763WAT      O83530   4.411   7.201   7.252
27763WAT     H183531   4.419   7.264   7.175
27763WAT     H283532   4.469   7.121   7.234
27764WAT      O83533   7.244   2.977   7.385
27764WAT     H183534   7.290   3.066   7.380
27764WAT     H283535   7.149   2.991   7.412
27765WAT      O83536   3.160   5.584   3.547
27765WAT     H183537   3.150   5.489   3.518
27765WAT     H283538   3.077   5.635   3.523
27766WAT      O83539   7.117   7.790   5.059
27766WAT     H183540   7.173   7.851   5.002
27766WAT     H283541   7.147   7.796   5.154
27767WAT      O83542   3.770   1.938   9.359
27767WAT     H183543   3.686   1.923   9.308
27767WAT     H283544   3.788   1.859   9.418
27768WAT      O83545   3.890   8.819   9.691
27768WAT     H183546   3.890   8.743   9.756
27768WAT     H283547   3.941   8.896   9.729
27769WAT      O83548   3.676   1.229   7.094
27769WAT     H183549   3.675   1.328   7.103
27769WAT     H283550   3.651   1.187   7.182
27770WAT      O83551   3.922   1.013   8.357
27770WAT     H183552   3.886   0.936   8.303
27770WAT     H283553   3.847   1.055   8.408
27771WAT      O83554   2.227   5.036   2.045
27771WAT     H183555   2.307   4.976   2.036
27771WAT     H283556   2.221   5.068   2.139
27772WAT      O83557   3.478   3.132   7.612
27772WAT     H183558   3.512   3.226   7.608
27772WAT     H283559   3.513   3.088   7.695
27773WAT      O83560   0.777   5.032   6.317
27773WAT     H183561   0.838   5.107   6.292
27773WAT     H283562   0.831   4.950   6.335
27774WAT      O83563   4.983   9.802   8.161
27774WAT     H183564   5.072   9.761   8.181
27774WAT     H283565   4.995   9.896   8.131
27775WAT      O83566   6.313   4.892   2.782
27775WAT     H183567   6.361   4.978   2.801
27775WAT     H283568   6.346   4.855   2.695
27776WAT      O83569   8.400   4.268   5.566
27776WAT     H183570   8.331   4.336   5.540
27776WAT     H283571   8.488   4.314   5.581
27777WAT      O83572   9.616   3.463   4.207
27777WAT     H183573   9.686   3.533   4.205
27777WAT     H283574   9.553   3.481   4.282
27778WAT      O83575   9.667   0.069   3.256
27778WAT     H183576   9.582   0.121   3.243
27778WAT     H283577   9.677   0.003   3.182
27779WAT      O83578   7.770   9.429   8.362
27779WAT     H183579   7.849   9.482   8.331
27779WAT     H283580   7.779   9.334   8.331
27780WAT      O83581   7.375   6.046   5.584
27780WAT     H183582   7.398   6.142   5.605
27780WAT     H283583   7.359   6.037   5.486
27781WAT      O83584   9.386   6.000   6.003
27781WAT     H183585   9.324   5.922   6.016
27781WAT     H283586   9.436   6.017   6.089
27782WAT      O83587   3.269   5.482   9.555
27782WAT     H183588   3.331   5.518   9.625
27782WAT     H283589   3.177   5.476   9.593
27783WAT      O83590   6.854   3.522   0.616
27783WAT     H183591   6.931   3.572   0.657
27783WAT     H283592   6.888   3.439   0.572
27784WAT      O83593   4.340   9.149   0.680
27784WAT     H183594   4.242   9.131   0.673
27784WAT     H283595   4.372   9.195   0.598
27785WAT      O83596   1.302   1.375   3.284
27785WAT     H183597   1.305   1.377   3.184
27785WAT     H283598   1.236   1.442   3.317
27786WAT      O83599   3.413   7.434   1.141
27786WAT     H183600   3.500   7.456   1.098
27786WAT     H283601   3.355   7.385   1.076
27787WAT      O83602   0.460   5.505   1.205
27787WAT     H183603   0.400   5.427   1.193
27787WAT     H283604   0.470   5.553   1.118
27788WAT      O83605   0.266   6.874   7.643
27788WAT     H183606   0.250   6.795   7.702
27788WAT     H283607   0.295   6.844   7.553
27789WAT      O83608   0.708   8.680   9.441
27789WAT     H183609   0.728   8.582   9.432
27789WAT     H283610   0.793   8.732   9.436
27790WAT      O83611   9.758   7.966   2.650
27790WAT     H183612   9.759   7.872   2.615
27790WAT     H283613   9.842   8.012   2.621
27791WAT      O83614   9.419   2.188   7.059
27791WAT     H183615   9.470   2.203   6.974
27791WAT     H283616   9.471   2.226   7.136
27792WAT      O83617   3.944   8.930   5.509
27792WAT     H183618   3.996   8.849   5.534
27792WAT     H283619   3.963   9.003   5.574
27793WAT      O83620   7.505   5.142   5.726
27793WAT     H183621   7.582   5.118   5.667
27793WAT     H283622   7.498   5.076   5.800
27794WAT      O83623   9.761   9.015   1.117
27794WAT     H183624   9.736   9.065   1.035
27794WAT     H283625   9.841   8.959   1.099
27795WAT      O83626   6.291   8.030   4.103
27795WAT     H183627   6.301   7.973   4.185
27795WAT     H283628   6.380   8.067   4.078
27796WAT      O83629   4.282   2.589   4.407
27796WAT     H183630   4.253   2.678   4.441
27796WAT     H283631   4.356   2.601   4.340
27797WAT      O83632   3.087   5.082   6.811
27797WAT     H183633   3.180   5.070   6.778
27797WAT     H283634   3.037   4.996   6.803
27798WAT      O83635   5.936   2.620   6.116
27798WAT     H183636   5.935   2.553   6.042
27798WAT     H283637   5.881   2.586   6.192
27799WAT      O83638   3.245   8.448   6.763
27799WAT     H183639   3.282   8.471   6.673
27799WAT     H283640   3.201   8.528   6.802
27800WAT      O83641   6.809   5.042   3.715
27800WAT     H183642   6.847   4.978   3.781
27800WAT     H283643   6.740   4.996   3.660
27801WAT      O83644   2.583   8.333   3.778
27801WAT     H183645   2.678   8.340   3.747
27801WAT     H283646   2.559   8.413   3.833
27802WAT      O83647   3.484   4.408   7.520
27802WAT     H183648   3.452   4.327   7.470
27802WAT     H283649   3.428   4.487   7.496
27803WAT      O83650   6.451   3.454   8.287
27803WAT     H183651   6.470   3.541   8.332
27803WAT     H283652   6.369   3.413   8.328
27804WAT      O83653   5.837   6.855   8.100
27804WAT     H183654   5.927   6.831   8.064
27804WAT     H283655   5.829   6.955   8.105
27805WAT      O83656   6.341   3.273   1.722
27805WAT     H183657   6.432   3.238   1.699
27805WAT     H283658   6.273   3.229   1.664
27806WAT      O83659   0.354   4.893   5.151
27806WAT     H183660   0.332   4.932   5.061
27806WAT     H283661   0.326   4.957   5.223
27807WAT      O83662   7.246   2.528   6.857
27807WAT     H183663   7.150   2.545   6.878
27807WAT     H283664   7.300   2.535   6.941
27808WAT      O83665   5.758   0.364   2.592
27808WAT     H183666   5.837   0.304   2.601
27808WAT     H283667   5.783   0.444   2.538
27809WAT      O83668   6.566   7.271   8.632
27809WAT     H183669   6.657   7.230   8.624
27809WAT     H283670   6.506   7.233   8.562
27810WAT      O83671   8.821   1.402   5.266
27810WAT     H183672   8.823   1.381   5.168
27810WAT     H283673   8.758   1.340   5.312
27811WAT      O83674   1.494   9.807   4.677
27811WAT     H183675   1.426   9.761   4.734
27811WAT     H283676   1.579   9.818   4.728
27812WAT      O83677   8.307   1.157   3.597
27812WAT     H183678   8.239   1.145   3.669
27812WAT     H283679   8.283   1.237   3.542
27813WAT      O83680   2.774   5.453   2.242
27813WAT     H183681   2.780   5.424   2.146
27813WAT     H283682   2.836   5.397   2.297
27814WAT      O83683   9.115   3.570   8.099
27814WAT     H183684   9.136   3.490   8.154
27814WAT     H283685   9.199   3.602   8.054
27815WAT      O83686   2.088   7.055   1.418
27815WAT     H183687   2.008   7.003   1.449
27815WAT     H283688   2.165   7.036   1.479
27816WAT      O83689   0.380   5.356   7.674
27816WAT     H183690   0.410   5.345   7.579
27816WAT     H283691   0.287   5.321   7.684
27817WAT      O83692   8.856   7.454   4.994
27817WAT     H183693   8.884   7.361   4.971
27817WAT     H283694   8.772   7.452   5.047
27818WAT      O83695   7.990   9.536   5.194
27818WAT     H183696   8.046   9.469   5.242
27818WAT     H283697   7.894   9.522   5.217
27819WAT      O83698   6.552   4.701   0.487
27819WAT     H183699   6.628   4.687   0.550
27819WAT     H283700   6.497   4.618   0.482
27820WAT      O83701   7.561   9.573   3.968
27820WAT     H183702   7.496   9.497   3.976
27820WAT     H283703   7.558   9.628   4.051
27821WAT      O83704   3.200   0.471   7.728
27821WAT     H183705   3.284   0.426   7.758
27821WAT     H283706   3.203   0.567   7.755
27822WAT      O83707   6.795   7.712   8.156
27822WAT     H183708   6.792   7.644   8.229
27822WAT     H283709   6.715   7.701   8.096
27823WAT      O83710   3.126   5.384   5.846
27823WAT     H183711   3.147   5.432   5.931
27823WAT     H283712   3.075   5.301   5.866
27824WAT      O83713   4.313   6.821   3.508
27824WAT     H183714   4.403   6.863   3.503
27824WAT     H283715   4.313   6.734   3.459
27825WAT      O83716   0.682   1.128   3.796
27825WAT     H183717   0.687   1.228   3.790
27825WAT     H283718   0.770   1.091   3.824
27826WAT      O83719   1.429   0.105   5.109
27826WAT     H183720   1.455   0.140   5.199
27826WAT     H283721   1.444   0.176   5.040
27827WAT      O83722   1.033   3.330   5.523
27827WAT     H183723   1.117   3.371   5.489
27827WAT     H283724   0.961   3.341   5.454
27828WAT      O83725   4.648   1.674   1.964
27828WAT     H183726   4.733   1.725   1.949
27828WAT     H283727   4.657   1.582   1.924
27829WAT      O83728   6.422   6.091   1.524
27829WAT     H183729   6.322   6.098   1.520
27829WAT     H283730   6.453   6.027   1.454
27830WAT      O83731   8.761   6.424   6.204
27830WAT     H183732   8.840   6.366   6.185
27830WAT     H283733   8.677   6.370   6.199
27831WAT      O83734   7.828   9.087   7.552
27831WAT     H183735   7.741   9.037   7.561
27831WAT     H283736   7.825   9.145   7.470
27832WAT      O83737   6.356   6.037   4.006
27832WAT     H183738   6.302   6.054   3.923
27832WAT     H283739   6.331   5.948   4.044
27833WAT      O83740   4.898   3.307   3.163
27833WAT     H183741   4.937   3.240   3.226
27833WAT     H283742   4.923   3.400   3.193
27834WAT      O83743   0.449   1.028   5.301
27834WAT     H183744   0.376   0.976   5.256
27834WAT     H283745   0.410   1.111   5.341
27835WAT      O83746   7.705   6.113   5.396
27835WAT     H183747   7.654   6.030   5.415
27835WAT     H283748   7.692   6.139   5.300
27836WAT      O83749   2.214   0.283   8.470
27836WAT     H183750   2.170   0.207   8.518
27836WAT     H283751   2.279   0.246   8.404
27837WAT      O83752   6.889   7.985   2.846
27837WAT     H183753   6.812   7.939   2.802
27837WAT     H283754   6.910   8.069   2.796
27838WAT      O83755   8.249   8.869   2.963
27838WAT     H183756   8.344   8.856   2.937
27838WAT     H283757   8.190   8.846   2.886
27839WAT      O83758   8.953   4.500   8.965
27839WAT     H183759   8.853   4.501   8.974
27839WAT     H283760   8.989   4.590   8.990
27840WAT      O83761   9.522   2.410   7.505
27840WAT     H183762   9.513   2.501   7.463
27840WAT     H283763   9.568   2.349   7.441
27841WAT      O83764   8.991   6.985   0.892
27841WAT     H183765   8.893   6.999   0.874
27841WAT     H283766   9.022   6.901   0.847
27842WAT      O83767   7.398   6.232   5.976
27842WAT     H183768   7.471   6.194   5.919
27842WAT     H283769   7.348   6.158   6.020
27843WAT      O83770   2.534   0.038   2.776
27843WAT     H183771   2.478   0.121   2.777
27843WAT     H283772   2.597   0.040   2.699
27844WAT      O83773   5.986   5.983   0.913
27844WAT     H183774   6.063   5.992   0.850
27844WAT     H283775   5.924   6.061   0.902
27845WAT      O83776   0.033   1.725   7.978
27845WAT     H183777  -0.008   1.814   8.001
27845WAT     H283778  -0.037   1.666   7.936
27846WAT      O83779   9.509   0.925   2.145
27846WAT     H183780   9.544   1.019   2.142
27846WAT     H283781   9.443   0.911   2.072
27847WAT      O83782   8.816   0.391   9.787
27847WAT     H183783   8.782   0.415   9.696
27847WAT     H283784   8.811   0.292   9.799
27848WAT      O83785   8.510   6.064   8.148
27848WAT     H183786   8.442   6.068   8.074
27848WAT     H283787   8.477   6.005   8.221
27849WAT      O83788   1.972   1.055   9.757
27849WAT     H183789   1.953   1.055   9.855
27849WAT     H283790   1.917   0.984   9.712
27850WAT      O83791   4.800   3.318   5.246
27850WAT     H183792   4.704   3.299   5.264
27850WAT     H283793   4.808   3.391   5.178
27851WAT      O83794   1.591   4.305   9.198
27851WAT     H183795   1.587   4.210   9.228
27851WAT     H283796   1.658   4.355   9.253
27852WAT      O83797   1.708   0.332   5.169
27852WAT     H183798   1.629   0.282   5.206
27852WAT     H283799   1.777   0.343   5.242
27853WAT      O83800   1.618   9.249   8.863
27853WAT     H183801   1.523   9.257   8.834
27853WAT     H283802   1.676   9.301   8.801
27854WAT      O83803   5.116   9.227   7.540
27854WAT     H183804   5.110   9.323   7.514
27854WAT     H283805   5.152   9.174   7.464
27855WAT      O83806   8.923   3.420   1.505
27855WAT     H183807   8.908   3.326   1.477
27855WAT     H283808   9.014   3.450   1.477
27856WAT      O83809   6.593   5.629   0.288
27856WAT     H183810   6.502   5.607   0.324
27856WAT     H283811   6.617   5.565   0.216
27857WAT      O83812   4.975   2.965   4.058
27857WAT     H183813   4.914   2.961   4.137
27857WAT     H283814   4.925   2.940   3.975
27858WAT      O83815   5.723   4.383   5.926
27858WAT     H183816   5.709   4.376   6.025
27858WAT     H283817   5.816   4.415   5.908
27859WAT      O83818   4.250   8.503   4.260
27859WAT     H183819   4.198   8.588   4.270
27859WAT     H283820   4.202   8.429   4.307
27860WAT      O83821   2.364   6.891   0.039
27860WAT     H183822   2.443   6.921  -0.013
27860WAT     H283823   2.373   6.794   0.061
27861WAT      O83824   6.836   7.457   6.728
27861WAT     H183825   6.868   7.406   6.808
27861WAT     H283826   6.764   7.521   6.756
27862WAT      O83827   1.627   7.803   6.438
27862WAT     H183828   1.660   7.887   6.481
27862WAT     H283829   1.556   7.762   6.495
27863WAT      O83830   4.047   0.911   7.621
27863WAT     H183831   4.084   0.819   7.609
27863WAT     H283832   4.051   0.937   7.717
27864WAT      O83833   5.121   6.777   6.139
27864WAT     H183834   5.039   6.792   6.195
27864WAT     H283835   5.202   6.777   6.199
27865WAT      O83836   2.347   5.331   3.312
27865WAT     H183837   2.403   5.248   3.301
27865WAT     H283838   2.323   5.342   3.408
27866WAT      O83839   0.227   5.679   7.232
27866WAT     H183840   0.141   5.716   7.195
27866WAT     H283841   0.206   5.610   7.301
27867WAT      O83842   4.009   1.533   6.134
27867WAT     H183843   3.975   1.466   6.201
27867WAT     H283844   4.029   1.619   6.181
27868WAT      O83845   9.299   8.641   7.188
27868WAT     H183846   9.388   8.604   7.213
27868WAT     H283847   9.229   8.601   7.247
27869WAT      O83848   9.330   7.371   6.530
27869WAT     H183849   9.257   7.337   6.471
27869WAT     H283850   9.343   7.469   6.515
27870WAT      O83851   6.238   6.937   6.789
27870WAT     H183852   6.334   6.954   6.810
27870WAT     H283853   6.231   6.869   6.715
27871WAT      O83854   9.531   6.493   1.858
27871WAT     H183855   9.598   6.517   1.927
27871WAT     H283856   9.577   6.475   1.771
27872WAT      O83857   7.362   6.104   8.329
27872WAT     H183858   7.355   6.093   8.428
27872WAT     H283859   7.410   6.189   8.308
27873WAT      O83860   9.613   1.404   5.538
27873WAT     H183861   9.589   1.393   5.635
27873WAT     H283862   9.562   1.336   5.484
27874WAT      O83863   8.497   7.661   9.725
27874WAT     H183864   8.439   7.580   9.728
27874WAT     H283865   8.472   7.722   9.801
27875WAT      O83866   7.802   7.967   5.033
27875WAT     H183867   7.797   7.942   4.936
27875WAT     H283868   7.863   8.046   5.044
27876WAT      O83869   4.569   3.824   2.265
27876WAT     H183870   4.623   3.818   2.181
27876WAT     H283871   4.624   3.863   2.338
27877WAT      O83872   5.384   6.165   8.620
27877WAT     H183873   5.404   6.112   8.702
27877WAT     H283874   5.341   6.251   8.645
27878WAT      O83875   9.338   1.577   5.892
27878WAT     H183876   9.254   1.546   5.846
27878WAT     H283877   9.315   1.610   5.984
27879WAT      O83878   8.904   3.079   5.696
27879WAT     H183879   8.854   2.998   5.727
27879WAT     H283880   8.858   3.161   5.728
27880WAT      O83881   3.189   4.079   6.282
27880WAT     H183882   3.161   4.131   6.200
27880WAT     H283883   3.153   4.123   6.363
27881WAT      O83884   3.056   3.683   6.530
27881WAT     H183885   2.966   3.726   6.538
27881WAT     H283886   3.101   3.715   6.447
27882WAT      O83887   2.178   3.369   9.512
27882WAT     H183888   2.250   3.304   9.535
27882WAT     H283889   2.124   3.390   9.593
27883WAT      O83890   5.471   1.051   5.295
27883WAT     H183891   5.470   0.979   5.225
27883WAT     H283892   5.397   1.116   5.277
27884WAT      O83893   0.030   8.849   2.528
27884WAT     H183894   0.054   8.940   2.493
27884WAT     H283895   0.100   8.819   2.594
27885WAT      O83896   6.487   9.506   1.822
27885WAT     H183897   6.470   9.574   1.893
27885WAT     H283898   6.577   9.523   1.781
27886WAT      O83899   6.916   1.197   9.630
27886WAT     H183900   6.865   1.183   9.545
27886WAT     H283901   6.946   1.109   9.666
27887WAT      O83902   8.133   6.487   7.885
27887WAT     H183903   8.141   6.448   7.976
27887WAT     H283904   8.221   6.482   7.838
27888WAT      O83905   2.330   9.049   7.671
27888WAT     H183906   2.330   8.973   7.736
27888WAT     H283907   2.251   9.108   7.689
27889WAT      O83908   8.277   1.412   4.835
27889WAT     H183909   8.255   1.315   4.842
27889WAT     H283910   8.327   1.429   4.750
27890WAT      O83911   1.438   9.288   0.875
27890WAT     H183912   1.463   9.195   0.900
27890WAT     H283913   1.481   9.352   0.940
27891WAT      O83914   9.584   5.675   2.565
27891WAT     H183915   9.647   5.751   2.583
27891WAT     H283916   9.630   5.588   2.584
27892WAT      O83917   1.507   9.840   1.532
27892WAT     H183918   1.445   9.892   1.473
27892WAT     H283919   1.601   9.848   1.497
27893WAT      O83920   4.843   5.818   4.022
27893WAT     H183921   4.923   5.757   4.020
27893WAT     H283922   4.819   5.844   3.928
27894WAT      O83923   1.780   7.003   6.624
27894WAT     H183924   1.722   6.923   6.637
27894WAT     H283925   1.871   6.974   6.595
27895WAT      O83926   8.561   9.023   8.339
27895WAT     H183927   8.533   9.091   8.407
27895WAT     H283928   8.587   8.939   8.386
27896WAT      O83929   0.418   5.922   5.372
27896WAT     H183930   0.346   5.977   5.328
27896WAT     H283931   0.376   5.858   5.436
27897WAT      O83932   1.477   1.957   5.880
27897WAT     H183933   1.402   1.894   5.900
27897WAT     H283934   1.443   2.031   5.821
27898WAT      O83935   6.891   5.645   8.325
27898WAT     H183936   6.813   5.613   8.271
27898WAT     H283937   6.914   5.739   8.297
27899WAT      O83938   6.568   6.302   9.281
27899WAT     H183939   6.498   6.276   9.347
27899WAT     H283940   6.524   6.324   9.193
27900WAT      O83941   0.038   8.285   1.282
27900WAT     H183942   0.011   8.238   1.366
27900WAT     H283943   0.118   8.343   1.300
27901WAT      O83944   1.901   2.950   3.288
27901WAT     H183945   1.840   2.902   3.351
27901WAT     H283946   1.874   3.046   3.282
27902WAT      O83947   3.158   1.940   3.801
27902WAT     H183948   3.151   1.995   3.884
27902WAT     H283949   3.239   1.968   3.750
27903WAT      O83950   1.182   4.612   3.227
27903WAT     H183951   1.241   4.544   3.270
27903WAT     H283952   1.102   4.567   3.189
27904WAT      O83953   3.312   8.661   0.531
27904WAT     H183954   3.283   8.726   0.600
27904WAT     H283955   3.400   8.620   0.558
27905WAT      O83956   8.504   6.643   3.650
27905WAT     H183957   8.537   6.737   3.644
27905WAT     H283958   8.432   6.637   3.720
27906WAT      O83959   0.020   0.302   1.336
27906WAT     H183960   0.070   0.216   1.322
27906WAT     H283961  -0.061   0.303   1.278
27907WAT      O83962   7.508   6.592   1.731
27907WAT     H183963   7.599   6.552   1.723
27907WAT     H283964   7.457   6.544   1.803
27908WAT      O83965   8.994   3.693   6.721
27908WAT     H183966   8.953   3.776   6.684
27908WAT     H283967   9.092   3.693   6.702
27909WAT      O83968   1.046   4.308   8.370
27909WAT     H183969   1.127   4.249   8.366
27909WAT     H283970   1.072   4.403   8.353
27910WAT      O83971   5.343   8.710   0.115
27910WAT     H183972   5.335   8.620   0.073
27910WAT     H283973   5.272   8.771   0.078
27911WAT      O83974   6.495   7.951   7.275
27911WAT     H183975   6.558   7.873   7.280
27911WAT     H283976   6.405   7.919   7.245
27912WAT      O83977   5.407   3.687   6.392
27912WAT     H183978   5.501   3.714   6.415
27912WAT     H283979   5.401   3.669   6.294
27913WAT      O83980   7.699   9.678   9.733
27913WAT     H183981   7.680   9.609   9.663
27913WAT     H283982   7.732   9.633   9.816
27914WAT      O83983   8.403   1.223   3.888
27914WAT     H183984   8.320   1.194   3.840
27914WAT     H283985   8.443   1.302   3.842
27915WAT      O83986   5.854   6.185   9.306
27915WAT     H183987   5.777   6.136   9.267
27915WAT     H283988   5.913   6.120   9.355
27916WAT      O83989   9.576   3.718   8.115
27916WAT     H183990   9.500   3.661   8.084
27916WAT     H283991   9.614   3.768   8.037
27917WAT      O83992   7.900   7.158   3.993
27917WAT     H183993   7.927   7.254   3.991
27917WAT     H283994   7.804   7.151   4.020
27918WAT      O83995   6.368   9.225   3.910
27918WAT     H183996   6.276   9.265   3.902
27918WAT     H283997   6.404   9.205   3.820
27919WAT      O83998   8.458   7.598   6.000
27919WAT     H183999   8.512   7.573   5.919
27919WAT     H284000   8.392   7.525   6.020
27920WAT      O84001   8.754   7.043   4.769
27920WAT     H184002   8.739   7.138   4.744
27920WAT     H284003   8.850   7.019   4.757
27921WAT      O84004   1.884   4.029   7.521
27921WAT     H184005   1.810   3.983   7.473
27921WAT     H284006   1.847   4.076   7.601
27922WAT      O84007   8.262   8.183   1.492
27922WAT     H184008   8.301   8.108   1.439
27922WAT     H284009   8.266   8.160   1.590
27923WAT      O84010   2.315   9.658   5.140
27923WAT     H184011   2.251   9.699   5.074
27923WAT     H284012   2.287   9.682   5.233
27924WAT      O84013   9.489   4.226   9.196
27924WAT     H184014   9.551   4.277   9.136
27924WAT     H284015   9.484   4.271   9.285
27925WAT      O84016   6.137   9.244   6.542
27925WAT     H184017   6.100   9.290   6.461
27925WAT     H284018   6.103   9.290   6.624
27926WAT      O84019   3.005   1.040   1.058
27926WAT     H184020   2.930   0.989   1.100
27926WAT     H284021   3.070   1.068   1.129
27927WAT      O84022   8.470   9.247   4.195
27927WAT     H184023   8.415   9.265   4.113
27927WAT     H284024   8.559   9.211   4.167
27928WAT      O84025   3.367   0.366   3.470
27928WAT     H184026   3.372   0.364   3.370
27928WAT     H284027   3.359   0.461   3.501
27929WAT      O84028   3.705   1.136   8.451
27929WAT     H184029   3.655   1.170   8.371
27929WAT     H284030   3.664   1.174   8.534
27930WAT      O84031   5.505   4.780   1.297
27930WAT     H184032   5.454   4.842   1.238
27930WAT     H284033   5.597   4.767   1.259
27931WAT      O84034   9.650   4.888   7.862
27931WAT     H184035   9.701   4.948   7.800
27931WAT     H284036   9.636   4.934   7.950
27932WAT      O84037   4.491   7.851   2.535
27932WAT     H184038   4.473   7.945   2.505
27932WAT     H284039   4.457   7.787   2.467
27933WAT      O84040   1.355   1.775   5.237
27933WAT     H184041   1.264   1.733   5.240
27933WAT     H284042   1.375   1.817   5.325
27934WAT      O84043   4.068   4.689   9.003
27934WAT     H184044   4.166   4.694   9.019
27934WAT     H284045   4.020   4.720   9.086
27935WAT      O84046   9.273   3.394   3.096
27935WAT     H184047   9.237   3.337   3.170
27935WAT     H284048   9.371   3.411   3.112
27936WAT      O84049   1.232   4.863   4.258
27936WAT     H184050   1.321   4.902   4.282
27936WAT     H284051   1.160   4.920   4.297
27937WAT      O84052   8.367   0.199   0.163
27937WAT     H184053   8.362   0.132   0.089
27937WAT     H284054   8.286   0.191   0.220
27938WAT      O84055   5.503   6.024   8.822
27938WAT     H184056   5.580   5.990   8.768
27938WAT     H284057   5.527   6.113   8.862
27939WAT      O84058   3.492   4.927   6.021
27939WAT     H184059   3.474   4.888   6.112
27939WAT     H284060   3.569   4.990   6.026
27940WAT      O84061   2.010   4.916   8.171
27940WAT     H184062   1.943   4.863   8.119
27940WAT     H284063   2.092   4.930   8.116
27941WAT      O84064   0.276   3.434   2.583
27941WAT     H184065   0.316   3.401   2.498
27941WAT     H284066   0.221   3.362   2.624
27942WAT      O84067   3.010   4.500   4.553
27942WAT     H184068   2.969   4.569   4.493
27942WAT     H284069   2.968   4.411   4.535
27943WAT      O84070   7.464   3.944   8.928
27943WAT     H184071   7.459   3.942   9.028
27943WAT     H284072   7.413   4.023   8.894
27944WAT      O84073   3.117   6.768   9.744
27944WAT     H184074   3.113   6.668   9.735
27944WAT     H284075   3.051   6.797   9.813
27945WAT      O84076   1.198   5.614   7.342
27945WAT     H184077   1.136   5.655   7.275
27945WAT     H284078   1.285   5.663   7.340
27946WAT      O84079   8.508   1.177   0.160
27946WAT     H184080   8.506   1.124   0.244
27946WAT     H284081   8.519   1.116   0.082
27947WAT      O84082   1.972   2.372   7.608
27947WAT     H184083   1.929   2.457   7.580
27947WAT     H284084   2.068   2.371   7.578
27948WAT      O84085   4.091   9.033   5.271
27948WAT     H184086   4.133   8.968   5.209
27948WAT     H284087   4.018   8.988   5.323
27949WAT      O84088   6.091   8.406   0.495
27949WAT     H184089   6.014   8.418   0.557
27949WAT     H284090   6.057   8.389   0.402
27950WAT      O84091   4.614   4.345   1.306
27950WAT     H184092   4.564   4.265   1.340
27950WAT     H284093   4.571   4.377   1.222
27951WAT      O84094   3.921   0.348   9.823
27951WAT     H184095   4.013   0.386   9.835
27951WAT     H284096   3.869   0.359   9.908
27952WAT      O84097   7.614   6.042   7.936
27952WAT     H184098   7.658   6.008   7.852
27952WAT     H284099   7.639   5.983   8.012
27953WAT      O84100   8.944   4.647   1.030
27953WAT     H184101   8.962   4.691   1.118
27953WAT     H284102   9.001   4.689   0.959
27954WAT      O84103   1.216   1.550   2.207
27954WAT     H184104   1.117   1.564   2.200
27954WAT     H284105   1.257   1.557   2.115
27955WAT      O84106   7.819   4.674   6.460
27955WAT     H184107   7.726   4.705   6.480
27955WAT     H284108   7.820   4.623   6.374
27956WAT      O84109   2.210   5.934   9.361
27956WAT     H184110   2.179   5.901   9.451
27956WAT     H284111   2.306   5.908   9.347
27957WAT      O84112   9.466   2.422   9.026
27957WAT     H184113   9.552   2.409   8.975
27957WAT     H284114   9.487   2.452   9.119
27958WAT      O84115   7.605   1.390   8.166
27958WAT     H184116   7.592   1.448   8.246
27958WAT     H284117   7.702   1.375   8.150
27959WAT      O84118   0.075   4.649   8.306
27959WAT     H184119   0.048   4.721   8.242
27959WAT     H284120   0.166   4.670   8.342
27960WAT      O84121   4.270   9.048   2.141
27960WAT     H184122   4.312   8.967   2.183
27960WAT     H284123   4.327   9.079   2.065
27961WAT      O84124   0.877   0.034   5.152
27961WAT     H184125   0.949   0.089   5.109
27961WAT     H284126   0.830  -0.020   5.082
27962WAT      O84127   4.744   8.913   4.316
27962WAT     H184128   4.663   8.881   4.365
27962WAT     H284129   4.803   8.963   4.380
27963WAT      O84130   0.840   6.819   7.880
27963WAT     H184131   0.821   6.860   7.791
27963WAT     H284132   0.870   6.725   7.868
27964WAT      O84133   8.847   2.825   5.808
27964WAT     H184134   8.903   2.816   5.890
27964WAT     H284135   8.876   2.758   5.740
27965WAT      O84136   9.174   7.332   4.866
27965WAT     H184137   9.089   7.315   4.915
27965WAT     H284138   9.164   7.303   4.771
27966WAT      O84139   8.876   6.564   8.355
27966WAT     H184140   8.800   6.566   8.289
27966WAT     H284141   8.863   6.487   8.418
27967WAT      O84142   6.615   7.708   9.324
27967WAT     H184143   6.591   7.616   9.354
27967WAT     H284144   6.699   7.704   9.269
27968WAT      O84145   6.875   6.301   0.263
27968WAT     H184146   6.819   6.223   0.236
27968WAT     H284147   6.850   6.330   0.355
27969WAT      O84148   6.212   0.894   2.066
27969WAT     H184149   6.157   0.976   2.048
27969WAT     H284150   6.224   0.843   1.981
27970WAT      O84151   0.579   8.978   8.253
27970WAT     H184152   0.637   8.975   8.172
27970WAT     H284153   0.629   8.937   8.330
27971WAT      O84154   6.682   6.232   7.995
27971WAT     H184155   6.600   6.288   7.998
27971WAT     H284156   6.682   6.168   8.073
27972WAT      O84157   4.110   3.210   8.071
27972WAT     H184158   4.116   3.272   7.993
27972WAT     H284159   4.093   3.264   8.154
27973WAT      O84160   4.435   7.012   0.383
27973WAT     H184161   4.426   7.110   0.364
27973WAT     H284162   4.532   6.988   0.390
27974WAT      O84163   0.647   9.311   5.609
27974WAT     H184164   0.588   9.297   5.688
27974WAT     H284165   0.716   9.381   5.630
27975WAT      O84166   6.101   1.955   5.841
27975WAT     H184167   6.095   1.861   5.808
27975WAT     H284168   6.048   2.015   5.781
27976WAT      O84169   9.835   1.348   3.239
27976WAT     H184170   9.752   1.404   3.235
27976WAT     H284171   9.867   1.343   3.334
27977WAT      O84172   5.920   9.290   9.869
27977WAT     H184173   5.863   9.262   9.946
27977WAT     H284174   6.016   9.288   9.895
27978WAT      O84175   1.226   0.281   1.121
27978WAT     H184176   1.269   0.342   1.054
27978WAT     H284177   1.196   0.198   1.075
27979WAT      O84178   0.620   8.160   8.490
27979WAT     H184179   0.680   8.190   8.565
27979WAT     H284180   0.569   8.238   8.455
27980WAT      O84181   9.792   4.347   5.363
27980WAT     H184182   9.830   4.316   5.450
27980WAT     H284183   9.768   4.267   5.307
27981WAT      O84184   6.281   7.635   1.641
27981WAT     H184185   6.353   7.682   1.691
27981WAT     H284186   6.212   7.601   1.705
27982WAT      O84187   0.816   3.979   4.678
27982WAT     H184188   0.893   4.030   4.640
27982WAT     H284189   0.828   3.881   4.657
27983WAT      O84190   1.564   4.057   3.652
27983WAT     H184191   1.625   4.023   3.723
27983WAT     H284192   1.470   4.027   3.671
27984WAT      O84193   6.140   1.740   4.657
27984WAT     H184194   6.075   1.797   4.707
27984WAT     H284195   6.225   1.790   4.643
27985WAT      O84196   6.692   7.956   9.699
27985WAT     H184197   6.677   7.859   9.718
27985WAT     H284198   6.638   7.983   9.619
27986WAT      O84199   6.815   1.980   7.373
27986WAT     H184200   6.742   1.929   7.326
27986WAT     H284201   6.782   2.071   7.399
27987WAT      O84202   6.534   5.122   1.133
27987WAT     H184203   6.441   5.146   1.105
27987WAT     H284204   6.542   5.129   1.232
27988WAT      O84205   2.599   1.275   9.654
27988WAT     H184206   2.593   1.182   9.688
27988WAT     H284207   2.592   1.339   9.731
27989WAT      O84208   4.265   9.274   7.268
27989WAT     H184209   4.213   9.323   7.337
27989WAT     H284210   4.285   9.181   7.300
27990WAT      O84211   6.387   6.036   2.733
27990WAT     H184212   6.290   6.052   2.752
27990WAT     H284213   6.411   6.077   2.645
27991WAT      O84214   2.471   4.901   3.107
27991WAT     H184215   2.385   4.849   3.114
27991WAT     H284216   2.480   4.961   3.187
27992WAT      O84217   8.671   4.349   4.890
27992WAT     H184218   8.580   4.391   4.894
27992WAT     H284219   8.666   4.263   4.840
27993WAT      O84220   6.151   8.483   0.008
27993WAT     H184221   6.079   8.536  -0.038
27993WAT     H284222   6.238   8.530  -0.002
27994WAT      O84223   1.566   2.464   4.667
27994WAT     H184224   1.494   2.518   4.710
27994WAT     H284225   1.592   2.388   4.728
27995WAT      O84226   6.007   6.957   3.163
27995WAT     H184227   5.990   7.018   3.241
27995WAT     H284228   6.091   6.905   3.178
27996WAT      O84229   7.714   5.884   3.114
27996WAT     H184230   7.800   5.929   3.140
27996WAT     H284231   7.725   5.844   3.023
27997WAT      O84232   3.669   9.715   6.384
27997WAT     H184233   3.766   9.708   6.403
27997WAT     H284234   3.635   9.627   6.351
27998WAT      O84235   2.052   2.444   8.746
27998WAT     H184236   2.047   2.471   8.842
27998WAT     H284237   2.146   2.453   8.714
27999WAT      O84238   8.684   4.004   6.496
27999WAT     H184239   8.613   3.985   6.564
27999WAT     H284240   8.665   3.953   6.413
28000WAT      O84241   2.859   9.385   3.449
28000WAT     H184242   2.948   9.345   3.428
28000WAT     H284243   2.812   9.410   3.365
28001WAT      O84244   9.806   6.192   1.716
28001WAT     H184245   9.833   6.185   1.620
28001WAT     H284246   9.714   6.154   1.728
28002WAT      O84247   6.168   3.636   3.987
28002WAT     H184248   6.144   3.567   3.919
28002WAT     H284249   6.089   3.693   4.005
28003WAT      O84250   2.687   0.955   5.017
28003WAT     H184251   2.670   0.948   5.115
28003WAT     H284252   2.602   0.935   4.967
28004WAT      O84253   2.083   2.008   2.822
28004WAT     H184254   1.984   2.008   2.809
28004WAT     H284255   2.122   2.091   2.781
28005WAT      O84256   3.031   7.451   3.715
28005WAT     H184257   3.058   7.357   3.694
28005WAT     H284258   3.054   7.511   3.638
28006WAT      O84259   2.009   1.253   7.837
28006WAT     H184260   2.015   1.242   7.738
28006WAT     H284261   1.984   1.166   7.879
28007WAT      O84262   1.333   8.817   8.320
28007WAT     H184263   1.344   8.788   8.224
28007WAT     H284264   1.351   8.739   8.380
28008WAT      O84265   8.923   8.391   5.821
28008WAT     H184266   8.834   8.398   5.865
28008WAT     H284267   8.992   8.366   5.889
28009WAT      O84268   9.762   7.215   3.298
28009WAT     H184269   9.691   7.152   3.329
28009WAT     H284270   9.722   7.305   3.281
28010WAT      O84271   0.036   0.959   5.682
28010WAT     H184272   0.067   0.874   5.725
28010WAT     H284273   0.114   1.009   5.645
28011WAT      O84274   4.103   4.945   0.847
28011WAT     H184275   4.095   4.865   0.789
28011WAT     H284276   4.114   5.027   0.790
28012WAT      O84277   5.485   0.610   6.618
28012WAT     H184278   5.580   0.614   6.589
28012WAT     H284279   5.429   0.570   6.545
28013WAT      O84280   6.600   6.414   4.728
28013WAT     H184281   6.548   6.398   4.644
28013WAT     H284282   6.598   6.511   4.750
28014WAT      O84283   8.818   1.116   1.555
28014WAT     H184284   8.900   1.127   1.612
28014WAT     H284285   8.836   1.051   1.481
28015WAT      O84286   8.941   0.448   3.994
28015WAT     H184287   9.028   0.482   4.032
28015WAT     H284288   8.950   0.440   3.895
28016WAT      O84289   1.544   7.676   8.101
28016WAT     H184290   1.496   7.621   8.032
28016WAT     H284291   1.483   7.691   8.179
28017WAT      O84292   5.396   0.017   2.146
28017WAT     H184293   5.468   0.075   2.185
28017WAT     H284294   5.342   0.071   2.081
28018WAT      O84295   4.815   4.041   9.030
28018WAT     H184296   4.898   3.985   9.039
28018WAT     H284297   4.764   4.037   9.116
28019WAT      O84298   6.656   9.332   1.081
28019WAT     H184299   6.613   9.263   1.138
28019WAT     H284300   6.715   9.390   1.138
28020WAT      O84301   5.559   8.912   5.480
28020WAT     H184302   5.459   8.918   5.481
28020WAT     H284303   5.587   8.841   5.415
28021WAT      O84304   4.297   9.608   6.195
28021WAT     H184305   4.369   9.626   6.262
28021WAT     H284306   4.241   9.690   6.184
28022WAT      O84307   3.292   2.163   2.569
28022WAT     H184308   3.378   2.112   2.569
28022WAT     H284309   3.226   2.120   2.508
28023WAT      O84310   5.847   1.867   7.019
28023WAT     H184311   5.799   1.953   7.037
28023WAT     H284312   5.890   1.834   7.103
28024WAT      O84313   4.208   3.114   0.577
28024WAT     H184314   4.234   3.090   0.671
28024WAT     H284315   4.108   3.117   0.571
28025WAT      O84316   5.112   9.743   4.782
28025WAT     H184317   5.173   9.667   4.759
28025WAT     H284318   5.117   9.812   4.710
28026WAT      O84319   0.869   8.530   8.454
28026WAT     H184320   0.902   8.474   8.378
28026WAT     H284321   0.932   8.522   8.531
28027WAT      O84322   0.414   1.818   6.584
28027WAT     H184323   0.316   1.835   6.594
28027WAT     H284324   0.455   1.805   6.675
28028WAT      O84325   3.220   4.829   7.936
28028WAT     H184326   3.258   4.900   7.877
28028WAT     H284327   3.127   4.806   7.905
28029WAT      O84328   9.062   6.743   3.053
28029WAT     H184329   9.109   6.670   3.102
28029WAT     H284330   9.117   6.827   3.057
28030WAT      O84331   1.069   0.742   2.900
28030WAT     H184332   1.028   0.785   2.820
28030WAT     H284333   1.033   0.649   2.910
28031WAT      O84334   3.628   6.456   9.663
28031WAT     H184335   3.530   6.439   9.667
28031WAT     H284336   3.654   6.482   9.570
28032WAT      O84337   8.039   2.295   2.542
28032WAT     H184338   8.095   2.322   2.620
28032WAT     H284339   8.083   2.221   2.492
28033WAT      O84340   2.745   0.295   1.242
28033WAT     H184341   2.662   0.282   1.297
28033WAT     H284342   2.799   0.211   1.243
28034WAT      O84343   6.902   8.355   3.769
28034WAT     H184344   6.986   8.340   3.717
28034WAT     H284345   6.899   8.292   3.846
28035WAT      O84346   1.398   4.393   1.304
28035WAT     H184347   1.442   4.358   1.221
28035WAT     H284348   1.340   4.471   1.280
28036WAT      O84349   9.320   5.865   7.320
28036WAT     H184350   9.220   5.869   7.308
28036WAT     H284351   9.345   5.918   7.401
28037WAT      O84352   1.761   8.490   6.485
28037WAT     H184353   1.719   8.572   6.447
28037WAT     H284354   1.702   8.411   6.468
28038WAT      O84355   1.364   0.149   1.358
28038WAT     H184356   1.272   0.141   1.394
28038WAT     H284357   1.360   0.176   1.262
28039WAT      O84358   0.023   3.409   5.755
28039WAT     H184359   0.093   3.460   5.705
28039WAT     H284360   0.066   3.358   5.829
28040WAT      O84361   0.885   7.094   7.506
28040WAT     H184362   0.949   7.065   7.435
28040WAT     H284363   0.930   7.158   7.568
28041WAT      O84364   7.076   9.744   5.662
28041WAT     H184365   7.145   9.790   5.605
28041WAT     H284366   7.078   9.783   5.754
28042WAT      O84367   3.749   9.728   1.324
28042WAT     H184368   3.729   9.731   1.422
28042WAT     H284369   3.800   9.645   1.302
28043WAT      O84370   4.396   9.530   8.814
28043WAT     H184371   4.405   9.493   8.721
28043WAT     H284372   4.449   9.473   8.877
28044WAT      O84373   6.794   7.067   4.778
28044WAT     H184374   6.712   7.116   4.808
28044WAT     H284375   6.789   7.049   4.680
28045WAT      O84376   1.689   8.739   6.379
28045WAT     H184377   1.760   8.803   6.409
28045WAT     H284378   1.649   8.772   6.293
28046WAT      O84379   8.904   8.626   4.303
28046WAT     H184380   8.807   8.642   4.281
28046WAT     H284381   8.958   8.629   4.219
28047WAT      O84382   8.715   5.378   9.163
28047WAT     H184383   8.681   5.458   9.113
28047WAT     H284384   8.638   5.328   9.203
28048WAT      O84385   9.464   6.492   3.172
28048WAT     H184386   9.501   6.399   3.175
28048WAT     H284387   9.437   6.514   3.078
28049WAT      O84388   2.032   0.098   4.355
28049WAT     H184389   2.080   0.184   4.366
28049WAT     H284390   1.964   0.106   4.282
28050WAT      O84391   2.676   3.279   2.963
28050WAT     H184392   2.687   3.354   3.029
28050WAT     H284393   2.753   3.215   2.973
28051WAT      O84394   0.813   8.354   0.931
28051WAT     H184395   0.750   8.417   0.885
28051WAT     H284396   0.856   8.295   0.864
28052WAT      O84397   7.601   8.017   3.740
28052WAT     H184398   7.551   8.068   3.670
28052WAT     H284399   7.649   8.081   3.800
28053WAT      O84400   2.010   2.984   8.710
28053WAT     H184401   2.028   3.011   8.805
28053WAT     H284402   2.093   2.999   8.655
28054WAT      O84403   4.352   5.493   5.093
28054WAT     H184404   4.441   5.478   5.138
28054WAT     H284405   4.367   5.534   5.003
28055WAT      O84406   1.674   6.387   1.058
28055WAT     H184407   1.700   6.309   1.115
28055WAT     H284408   1.668   6.358   0.963
28056WAT      O84409   3.137   3.170   3.222
28056WAT     H184410   3.166   3.102   3.290
28056WAT     H284411   3.193   3.160   3.140
28057WAT      O84412   9.677   1.015   2.817
28057WAT     H184413   9.721   1.095   2.777
28057WAT     H284414   9.586   1.040   2.851
28058WAT      O84415   1.563   1.959   1.100
28058WAT     H184416   1.544   1.892   1.171
28058WAT     H284417   1.517   2.045   1.122
28059WAT      O84418   9.838   3.592   1.637
28059WAT     H184419   9.799   3.505   1.668
28059WAT     H284420   9.935   3.595   1.661
28060WAT      O84421   5.184   1.234   9.065
28060WAT     H184422   5.139   1.213   8.978
28060WAT     H284423   5.236   1.155   9.096
28061WAT      O84424   3.961   8.032   0.602
28061WAT     H184425   3.960   7.972   0.682
28061WAT     H284426   3.959   8.128   0.632
28062WAT      O84427   4.219   3.382   6.500
28062WAT     H184428   4.233   3.291   6.540
28062WAT     H284429   4.124   3.392   6.471
28063WAT      O84430   6.277   5.721   2.584
28063WAT     H184431   6.327   5.682   2.662
28063WAT     H284432   6.182   5.737   2.611
28064WAT      O84433   3.913   4.975   9.804
28064WAT     H184434   3.895   4.908   9.876
28064WAT     H284435   3.949   5.059   9.845
28065WAT      O84436   4.010   6.864   2.120
28065WAT     H184437   4.033   6.920   2.040
28065WAT     H284438   4.017   6.767   2.096
28066WAT      O84439   7.266   9.380   3.205
28066WAT     H184440   7.171   9.408   3.194
28066WAT     H284441   7.319   9.454   3.248
28067WAT      O84442   5.035   9.624   0.112
28067WAT     H184443   5.076   9.536   0.134
28067WAT     H284444   4.968   9.648   0.182
28068WAT      O84445   3.972   8.952   2.469
28068WAT     H184446   3.898   8.950   2.536
28068WAT     H284447   4.030   8.872   2.481
28069WAT      O84448   0.914   9.144   5.824
28069WAT     H184449   0.865   9.229   5.807
28069WAT     H284450   1.008   9.165   5.854
28070WAT      O84451   1.929   4.250   8.389
28070WAT     H184452   1.953   4.316   8.318
28070WAT     H284453   1.832   4.226   8.380
28071WAT      O84454   6.259   3.327   1.096
28071WAT     H184455   6.215   3.338   1.185
28071WAT     H284456   6.241   3.235   1.061
28072WAT      O84457   1.628   5.803   2.194
28072WAT     H184458   1.718   5.838   2.221
28072WAT     H284459   1.595   5.852   2.114
28073WAT      O84460   7.873   7.758   2.176
28073WAT     H184461   7.795   7.737   2.116
28073WAT     H284462   7.840   7.805   2.258
28074WAT      O84463   4.241   5.585   8.106
28074WAT     H184464   4.243   5.626   8.014
28074WAT     H284465   4.326   5.606   8.154
28075WAT      O84466   6.142   3.528   8.463
28075WAT     H184467   6.231   3.512   8.507
28075WAT     H284468   6.119   3.448   8.407
28076WAT      O84469   8.216   1.999   6.117
28076WAT     H184470   8.295   1.995   6.057
28076WAT     H284471   8.244   1.977   6.211
28077WAT      O84472   6.891   1.458   3.677
28077WAT     H184473   6.869   1.383   3.615
28077WAT     H284474   6.808   1.491   3.721
28078WAT      O84475   5.326   4.494   4.875
28078WAT     H184476   5.367   4.449   4.955
28078WAT     H284477   5.388   4.566   4.842
28079WAT      O84478   6.271   1.887   4.023
28079WAT     H184479   6.296   1.849   4.112
28079WAT     H284480   6.344   1.869   3.958
28080WAT      O84481   1.378   7.811   7.712
28080WAT     H184482   1.425   7.883   7.763
28080WAT     H284483   1.286   7.798   7.749
28081WAT      O84484   4.618   6.908   0.775
28081WAT     H184485   4.608   6.817   0.737
28081WAT     H284486   4.529   6.942   0.804
28082WAT      O84487   2.401   3.891   8.844
28082WAT     H184488   2.484   3.836   8.850
28082WAT     H284489   2.389   3.942   8.929
28083WAT      O84490   1.344   7.592   5.994
28083WAT     H184491   1.374   7.527   6.064
28083WAT     H284492   1.253   7.625   6.016
28084WAT      O84493   8.354   2.997   2.909
28084WAT     H184494   8.311   2.917   2.868
28084WAT     H284495   8.308   3.080   2.876
28085WAT      O84496   4.890   1.694   8.330
28085WAT     H184497   4.852   1.648   8.249
28085WAT     H284498   4.989   1.678   8.334
28086WAT      O84499   7.516   9.364   7.448
28086WAT     H184500   7.583   9.412   7.391
28086WAT     H284501   7.564   9.316   7.521
28087WAT      O84502   6.664   0.071   3.567
28087WAT     H184503   6.687   0.059   3.470
28087WAT     H284504   6.618   0.159   3.580
28088WAT      O84505   1.200   7.004   7.888
28088WAT     H184506   1.111   7.045   7.906
28088WAT     H284507   1.244   6.982   7.975
28089WAT      O84508   4.978   1.740   4.456
28089WAT     H184509   4.930   1.716   4.541
28089WAT     H284510   4.930   1.699   4.378
28090WAT      O84511   3.576   7.848   3.105
28090WAT     H184512   3.539   7.928   3.058
28090WAT     H284513   3.646   7.805   3.047
28091WAT      O84514   7.903   9.711   8.115
28091WAT     H184515   7.945   9.667   8.193
28091WAT     H284516   7.949   9.798   8.097
28092WAT      O84517   5.579   3.063   0.274
28092WAT     H184518   5.483   3.076   0.299
28092WAT     H284519   5.618   2.991   0.330
28093WAT      O84520   4.318   0.851   8.182
28093WAT     H184521   4.348   0.859   8.278
28093WAT     H284522   4.251   0.923   8.162
28094WAT      O84523   8.329   2.228   1.451
28094WAT     H184524   8.308   2.298   1.383
28094WAT     H284525   8.256   2.160   1.453
28095WAT      O84526   9.014   1.717   9.659
28095WAT     H184527   8.920   1.698   9.631
28095WAT     H284528   9.075   1.709   9.579
28096WAT      O84529   7.918   2.686   1.071
28096WAT     H184530   7.953   2.729   1.155
28096WAT     H284531   7.841   2.739   1.037
28097WAT      O84532   4.694   2.947   4.821
28097WAT     H184533   4.608   2.942   4.771
28097WAT     H284534   4.693   2.881   4.896
28098WAT      O84535   0.405   7.037   5.088
28098WAT     H184536   0.471   7.101   5.049
28098WAT     H284537   0.324   7.034   5.030
28099WAT      O84538   3.411   4.756   0.055
28099WAT     H184539   3.478   4.735   0.126
28099WAT     H284540   3.436   4.842   0.010
28100WAT      O84541   5.389   4.103   4.828
28100WAT     H184542   5.404   4.130   4.733
28100WAT     H284543   5.295   4.124   4.855
28101WAT      O84544   3.642   2.237   4.513
28101WAT     H184545   3.733   2.201   4.533
28101WAT     H284546   3.608   2.289   4.591
28102WAT      O84547   1.423   0.907   8.825
28102WAT     H184548   1.449   0.831   8.884
28102WAT     H284549   1.331   0.891   8.788
28103WAT      O84550   8.310   2.720   4.451
28103WAT     H184551   8.259   2.659   4.392
28103WAT     H284552   8.247   2.773   4.508
28104WAT      O84553   1.919   6.321   8.025
28104WAT     H184554   2.003   6.304   7.973
28104WAT     H284555   1.900   6.243   8.085
28105WAT      O84556   9.057   5.315   7.199
28105WAT     H184557   9.000   5.387   7.239
28105WAT     H284558   9.035   5.227   7.241
28106WAT      O84559   1.535   5.910   4.689
28106WAT     H184560   1.510   5.874   4.779
28106WAT     H284561   1.629   5.945   4.691
28107WAT      O84562   8.143   0.279   6.915
28107WAT     H184563   8.200   0.197   6.926
28107WAT     H284564   8.052   0.251   6.882
28108WAT      O84565   7.748   3.135   2.189
28108WAT     H184566   7.803   3.153   2.107
28108WAT     H284567   7.695   3.217   2.212
28109WAT      O84568   2.176   4.575   2.959
28109WAT     H184569   2.200   4.568   2.863
28109WAT     H284570   2.077   4.588   2.968
28110WAT      O84571   9.253   5.259   8.321
28110WAT     H184572   9.284   5.164   8.316
28110WAT     H284573   9.283   5.300   8.407
28111WAT      O84574   3.268   6.947   0.701
28111WAT     H184575   3.297   7.008   0.627
28111WAT     H284576   3.346   6.894   0.733
28112WAT      O84577   6.757   1.504   7.530
28112WAT     H184578   6.818   1.430   7.501
28112WAT     H284579   6.779   1.529   7.624
28113WAT      O84580   1.620   7.519   5.203
28113WAT     H184581   1.608   7.599   5.145
28113WAT     H284582   1.561   7.526   5.284
28114WAT      O84583   4.925   7.088   1.306
28114WAT     H184584   4.921   6.988   1.304
28114WAT     H284585   5.015   7.117   1.340
28115WAT      O84586   8.220   6.206   4.124
28115WAT     H184587   8.301   6.153   4.150
28115WAT     H284588   8.194   6.183   4.031
28116WAT      O84589   8.377   6.977   8.282
28116WAT     H184590   8.282   7.011   8.279
28116WAT     H284591   8.429   7.032   8.347
28117WAT      O84592   0.783   7.703   9.869
28117WAT     H184593   0.870   7.751   9.858
28117WAT     H284594   0.799   7.615   9.914
28118WAT      O84595   0.167   3.369   3.286
28118WAT     H184596   0.224   3.371   3.368
28118WAT     H284597   0.180   3.453   3.233
28119WAT      O84598   9.605   3.128   2.411
28119WAT     H184599   9.673   3.201   2.417
28119WAT     H284600   9.649   3.040   2.427
28120WAT      O84601   0.800   9.337   9.553
28120WAT     H184602   0.839   9.344   9.645
28120WAT     H284603   0.730   9.266   9.552
28121WAT      O84604   7.849   4.197   5.806
28121WAT     H184605   7.901   4.112   5.795
28121WAT     H284606   7.911   4.275   5.805
28122WAT      O84607   6.860   4.937   9.235
28122WAT     H184608   6.949   4.926   9.279
28122WAT     H284609   6.802   4.996   9.291
28123WAT      O84610   6.362   5.154   1.895
28123WAT     H184611   6.384   5.209   1.815
28123WAT     H284612   6.334   5.213   1.971
28124WAT      O84613   4.438   3.884   0.038
28124WAT     H184614   4.394   3.969   0.065
28124WAT     H284615   4.532   3.882   0.072
28125WAT      O84616   6.695   1.446   0.229
28125WAT     H184617   6.731   1.539   0.220
28125WAT     H284618   6.702   1.398   0.142
28126WAT      O84619   0.504   0.691   8.706
28126WAT     H184620   0.424   0.746   8.682
28126WAT     H284621   0.521   0.624   8.633
28127WAT      O84622   1.434   5.581   0.878
28127WAT     H184623   1.359   5.520   0.855
28127WAT     H284624   1.424   5.613   0.972
28128WAT      O84625   3.924   1.348   8.224
28128WAT     H184626   3.931   1.404   8.306
28128WAT     H284627   3.854   1.278   8.237
28129WAT      O84628   8.942   8.588   7.950
28129WAT     H184629   8.853   8.580   7.905
28129WAT     H284630   8.995   8.660   7.906
28130WAT      O84631   1.794   1.775   5.494
28130WAT     H184632   1.778   1.872   5.509
28130WAT     H284633   1.773   1.751   5.399
28131WAT      O84634   2.943   0.955   5.716
28131WAT     H184635   2.959   0.879   5.653
28131WAT     H284636   2.937   1.040   5.664
28132WAT      O84637   8.206   3.825   9.732
28132WAT     H184638   8.138   3.875   9.678
28132WAT     H284639   8.286   3.883   9.745
28133WAT      O84640   9.203   0.927   8.132
28133WAT     H184641   9.121   0.944   8.078
28133WAT     H284642   9.221   0.829   8.137
28134WAT      O84643   4.403   3.115   9.122
28134WAT     H184644   4.370   3.187   9.060
28134WAT     H284645   4.354   3.121   9.209
28135WAT      O84646   3.818   9.070   8.289
28135WAT     H184647   3.805   9.046   8.385
28135WAT     H284648   3.910   9.045   8.260
28136WAT      O84649   4.398   7.443   9.233
28136WAT     H184650   4.309   7.399   9.222
28136WAT     H284651   4.389   7.541   9.217
28137WAT      O84652   8.639   7.894   6.976
28137WAT     H184653   8.679   7.929   6.891
28137WAT     H284654   8.706   7.838   7.024
28138WAT      O84655   8.253   1.896   8.557
28138WAT     H184656   8.157   1.876   8.536
28138WAT     H284657   8.301   1.811   8.578
28139WAT      O84658   4.135   0.267   4.002
28139WAT     H184659   4.037   0.261   4.023
28139WAT     H284660   4.158   0.361   3.977
28140WAT      O84661   2.606   0.710   1.167
28140WAT     H184662   2.648   0.637   1.113
28140WAT     H284663   2.511   0.721   1.140
28141WAT      O84664   8.789   6.286   0.749
28141WAT     H184665   8.877   6.262   0.791
28141WAT     H284666   8.724   6.211   0.763
28142WAT      O84667   5.562   4.032   8.391
28142WAT     H184668   5.645   4.039   8.336
28142WAT     H284669   5.540   3.936   8.407
28143WAT      O84670   0.522   5.548   4.571
28143WAT     H184671   0.581   5.577   4.647
28143WAT     H284672   0.494   5.628   4.518
28144WAT      O84673   1.347   1.195   6.833
28144WAT     H184674   1.330   1.274   6.775
28144WAT     H284675   1.269   1.132   6.828
28145WAT      O84676   0.956   5.110   1.475
28145WAT     H184677   0.996   5.136   1.387
28145WAT     H284678   1.028   5.101   1.544
28146WAT      O84679   8.434   5.437   4.358
28146WAT     H184680   8.480   5.470   4.440
28146WAT     H284681   8.429   5.337   4.360
28147WAT      O84682   0.285   4.387   3.388
28147WAT     H184683   0.274   4.324   3.465
28147WAT     H284684   0.296   4.334   3.304
28148WAT      O84685   0.766   6.068   2.264
28148WAT     H184686   0.686   6.030   2.311
28148WAT     H284687   0.746   6.077   2.167
28149WAT      O84688   5.316   9.370   9.821
28149WAT     H184689   5.406   9.331   9.841
28149WAT     H284690   5.265   9.381   9.906
28150WAT      O84691   8.482   7.719   4.188
28150WAT     H184692   8.558   7.684   4.242
28150WAT     H284693   8.456   7.652   4.119
28151WAT      O84694   8.832   8.948   6.281
28151WAT     H184695   8.862   9.043   6.269
28151WAT     H284696   8.889   8.888   6.226
28152WAT      O84697   5.582   8.356   9.647
28152WAT     H184698   5.592   8.256   9.645
28152WAT     H284699   5.671   8.399   9.634
28153WAT      O84700   8.632   0.485   1.172
28153WAT     H184701   8.595   0.418   1.107
28153WAT     H284702   8.595   0.576   1.151
28154WAT      O84703   1.511   9.191   8.482
28154WAT     H184704   1.455   9.129   8.536
28154WAT     H284705   1.452   9.252   8.428
28155WAT      O84706   0.904   3.029   1.542
28155WAT     H184707   0.808   3.024   1.569
28155WAT     H284708   0.912   3.010   1.444
28156WAT      O84709   8.899   0.794   6.841
28156WAT     H184710   8.825   0.801   6.908
28156WAT     H284711   8.876   0.849   6.761
28157WAT      O84712   0.659   5.197   9.795
28157WAT     H184713   0.632   5.103   9.816
28157WAT     H284714   0.692   5.201   9.701
28158WAT      O84715   6.277   1.360   6.902
28158WAT     H184716   6.285   1.356   7.002
28158WAT     H284717   6.368   1.354   6.861
28159WAT      O84718   2.805   2.572   8.095
28159WAT     H184719   2.795   2.646   8.028
28159WAT     H284720   2.725   2.512   8.091
28160WAT      O84721   6.087   4.257   5.178
28160WAT     H184722   6.037   4.186   5.229
28160WAT     H284723   6.143   4.311   5.241
28161WAT      O84724   2.582   7.070   4.806
28161WAT     H184725   2.668   7.024   4.829
28161WAT     H284726   2.521   7.004   4.761
28162WAT      O84727   7.204   0.168   6.717
28162WAT     H184728   7.210   0.107   6.796
28162WAT     H284729   7.239   0.120   6.636
28163WAT      O84730   8.080   2.734   1.973
28163WAT     H184731   8.023   2.813   1.996
28163WAT     H284732   8.167   2.767   1.936
28164WAT      O84733   5.613   6.270   5.912
28164WAT     H184734   5.626   6.338   5.984
28164WAT     H284735   5.515   6.248   5.904
28165WAT      O84736   6.976   2.039   1.979
28165WAT     H184737   6.915   1.982   1.924
28165WAT     H284738   6.924   2.082   2.053
28166WAT      O84739   8.667   8.914   3.533
28166WAT     H184740   8.746   8.852   3.538
28166WAT     H284741   8.655   8.959   3.622
28167WAT      O84742   2.998   0.534   1.712
28167WAT     H184743   2.952   0.524   1.800
28167WAT     H284744   2.932   0.523   1.638
28168WAT      O84745   8.276   3.187   2.446
28168WAT     H184746   8.329   3.219   2.368
28168WAT     H284747   8.330   3.195   2.530
28169WAT      O84748   0.738   6.480   8.916
28169WAT     H184749   0.685   6.508   8.996
28169WAT     H284750   0.675   6.447   8.845
28170WAT      O84751   2.105   7.738   0.848
28170WAT     H184752   2.093   7.770   0.942
28170WAT     H284753   2.016   7.711   0.811
28171WAT      O84754   2.300   7.134   5.711
28171WAT     H184755   2.205   7.104   5.722
28171WAT     H284756   2.352   7.113   5.793
28172WAT      O84757   7.081   9.533   9.001
28172WAT     H184758   7.029   9.493   8.925
28172WAT     H284759   7.175   9.500   8.999
28173WAT      O84760   4.495   6.447   0.671
28173WAT     H184761   4.549   6.362   0.675
28173WAT     H284762   4.407   6.432   0.715
28174WAT      O84763   0.260   5.490   8.039
28174WAT     H184764   0.323   5.414   8.032
28174WAT     H284765   0.208   5.484   8.124
28175WAT      O84766   2.220   3.858   7.132
28175WAT     H184767   2.189   3.896   7.219
28175WAT     H284768   2.148   3.871   7.063
28176WAT      O84769   4.026   7.897   0.860
28176WAT     H184770   4.115   7.853   0.876
28176WAT     H284771   4.015   7.973   0.923
28177WAT      O84772   0.615   2.752   3.922
28177WAT     H184773   0.678   2.822   3.889
28177WAT     H284774   0.602   2.682   3.851
28178WAT      O84775   7.416   3.897   3.781
28178WAT     H184776   7.436   3.827   3.713
28178WAT     H284777   7.371   3.855   3.860
28179WAT      O84778   7.868   3.455   6.880
28179WAT     H184779   7.889   3.505   6.963
28179WAT     H284780   7.802   3.382   6.900
28180WAT      O84781   8.401   7.347   3.589
28180WAT     H184782   8.463   7.269   3.578
28180WAT     H284783   8.418   7.391   3.677
28181WAT      O84784   4.690   6.014   4.851
28181WAT     H184785   4.605   5.971   4.882
28181WAT     H284786   4.749   6.031   4.929
28182WAT      O84787   6.479   7.900   4.873
28182WAT     H184788   6.528   7.924   4.957
28182WAT     H284789   6.530   7.931   4.793
28183WAT      O84790   6.371   9.841   6.425
28183WAT     H184791   6.328   9.752   6.409
28183WAT     H284792   6.314   9.913   6.385
28184WAT      O84793   4.467   3.974   6.925
28184WAT     H184794   4.482   4.061   6.878
28184WAT     H284795   4.381   3.979   6.977
28185WAT      O84796   7.908   0.848   5.392
28185WAT     H184797   7.893   0.782   5.465
28185WAT     H284798   7.823   0.861   5.341
28186WAT      O84799   5.546   8.715   4.303
28186WAT     H184800   5.570   8.647   4.373
28186WAT     H284801   5.630   8.758   4.269
28187WAT      O84802   5.341   7.008   3.178
28187WAT     H184803   5.403   6.929   3.186
28187WAT     H284804   5.372   7.066   3.103
28188WAT      O84805   6.306   8.775   5.906
28188WAT     H184806   6.301   8.868   5.871
28188WAT     H284807   6.357   8.775   5.993
28189WAT      O84808   5.130   0.949   8.518
28189WAT     H184809   5.149   0.901   8.604
28189WAT     H284810   5.190   1.029   8.510
28190WAT      O84811   4.378   8.087   6.272
28190WAT     H184812   4.402   8.162   6.333
28190WAT     H284813   4.308   8.119   6.208
28191WAT      O84814   3.190   2.153   4.999
28191WAT     H184815   3.100   2.113   4.982
28191WAT     H284816   3.218   2.207   4.919
28192WAT      O84817   9.317   4.642   1.945
28192WAT     H184818   9.380   4.624   2.021
28192WAT     H284819   9.342   4.585   1.867
28193WAT      O84820   8.835   5.718   0.159
28193WAT     H184821   8.884   5.723   0.246
28193WAT     H284822   8.799   5.626   0.147
28194WAT      O84823   4.101   7.597   7.338
28194WAT     H184824   4.104   7.569   7.242
28194WAT     H284825   4.027   7.663   7.352
28195WAT      O84826   2.104   7.565   1.232
28195WAT     H184827   2.050   7.518   1.162
28195WAT     H284828   2.188   7.513   1.250
28196WAT      O84829   6.728   7.070   5.820
28196WAT     H184830   6.719   7.165   5.849
28196WAT     H284831   6.641   7.037   5.785
28197WAT      O84832   8.586   2.570   9.147
28197WAT     H184833   8.658   2.602   9.086
28197WAT     H284834   8.592   2.618   9.234
28198WAT      O84835   6.665   4.820   1.727
28198WAT     H184836   6.751   4.780   1.760
28198WAT     H284837   6.613   4.854   1.805
28199WAT      O84838   4.017   8.167   8.314
28199WAT     H184839   3.973   8.219   8.388
28199WAT     H284840   4.084   8.104   8.353
28200WAT      O84841   5.700   1.660   4.500
28200WAT     H184842   5.633   1.638   4.430
28200WAT     H284843   5.779   1.600   4.491
28201WAT      O84844   5.915   7.483   7.346
28201WAT     H184845   5.988   7.487   7.277
28201WAT     H284846   5.917   7.566   7.401
28202WAT      O84847   0.311   4.175   8.738
28202WAT     H184848   0.388   4.169   8.675
28202WAT     H284849   0.327   4.113   8.815
28203WAT      O84850   0.914   7.019   4.288
28203WAT     H184851   0.953   7.007   4.379
28203WAT     H284852   0.987   7.021   4.220
28204WAT      O84853   4.472   3.069   8.171
28204WAT     H184854   4.467   3.004   8.095
28204WAT     H284855   4.413   3.038   8.245
28205WAT      O84856   0.398   1.527   6.550
28205WAT     H184857   0.411   1.620   6.584
28205WAT     H284858   0.475   1.470   6.578
28206WAT      O84859   1.931   8.220   6.991
28206WAT     H184860   1.845   8.239   6.943
28206WAT     H284861   1.921   8.243   7.088
28207WAT      O84862   8.006   6.138   5.467
28207WAT     H184863   7.916   6.104   5.440
28207WAT     H284864   8.030   6.218   5.412
28208WAT      O84865   2.717   2.844   5.477
28208WAT     H184866   2.661   2.766   5.452
28208WAT     H284867   2.752   2.888   5.395
28209WAT      O84868   9.880   9.100   2.735
28209WAT     H184869   9.863   9.147   2.821
28209WAT     H284870   9.968   9.053   2.739
28210WAT      O84871   8.062   1.019   7.433
28210WAT     H184872   8.030   1.008   7.340
28210WAT     H284873   8.056   1.115   7.460
28211WAT      O84874   0.869   7.986   9.720
28211WAT     H184875   0.899   7.962   9.812
28211WAT     H284876   0.842   8.082   9.717
28212WAT      O84877   0.590   4.887   7.867
28212WAT     H184878   0.605   4.849   7.958
28212WAT     H284879   0.675   4.927   7.833
28213WAT      O84880   1.664   0.569   5.654
28213WAT     H184881   1.757   0.598   5.677
28213WAT     H284882   1.649   0.582   5.556
28214WAT      O84883   4.351   4.617   7.694
28214WAT     H184884   4.370   4.698   7.750
28214WAT     H284885   4.262   4.579   7.720
28215WAT      O84886   9.323   5.989   2.954
28215WAT     H184887   9.419   5.965   2.968
28215WAT     H284888   9.265   5.921   2.999
28216WAT      O84889   0.115   3.515   0.627
28216WAT     H184890   0.121   3.571   0.544
28216WAT     H284891   0.155   3.426   0.610
28217WAT      O84892   3.906   4.997   7.756
28217WAT     H184893   3.894   5.083   7.706
28217WAT     H284894   3.948   4.929   7.696
28218WAT      O84895   8.021   6.771   3.806
28218WAT     H184896   8.120   6.780   3.812
28218WAT     H284897   7.987   6.726   3.889
28219WAT      O84898   4.020   5.044   4.368
28219WAT     H184899   4.018   4.953   4.410
28219WAT     H284900   4.077   5.105   4.422
28220WAT      O84901   0.175   8.910   5.129
28220WAT     H184902   0.092   8.956   5.097
28220WAT     H284903   0.247   8.922   5.061
28221WAT      O84904   0.269   2.498   4.430
28221WAT     H184905   0.292   2.405   4.402
28221WAT     H284906   0.176   2.499   4.467
28222WAT      O84907   2.911   4.098   6.081
28222WAT     H184908   2.974   4.172   6.057
28222WAT     H284909   2.870   4.060   5.998
28223WAT      O84910   1.476   4.278   7.232
28223WAT     H184911   1.478   4.291   7.133
28223WAT     H284912   1.558   4.318   7.273
28224WAT      O84913   5.835   3.195   5.165
28224WAT     H184914   5.908   3.263   5.164
28224WAT     H284915   5.766   3.219   5.097
28225WAT      O84916   0.345   8.421   0.262
28225WAT     H184917   0.407   8.343   0.261
28225WAT     H284918   0.253   8.391   0.237
28226WAT      O84919   2.493   2.001   1.171
28226WAT     H184920   2.531   1.983   1.262
28226WAT     H284921   2.449   1.919   1.137
28227WAT      O84922   7.695   0.633   1.989
28227WAT     H184923   7.678   0.721   2.034
28227WAT     H284924   7.792   0.610   1.995
28228WAT      O84925   7.924   1.014   9.154
28228WAT     H184926   7.862   0.975   9.222
28228WAT     H284927   8.017   0.979   9.169
28229WAT      O84928   1.664   1.544   7.045
28229WAT     H184929   1.739   1.487   7.078
28229WAT     H284930   1.664   1.630   7.096
28230WAT      O84931   6.774   0.653   1.515
28230WAT     H184932   6.832   0.580   1.479
28230WAT     H284933   6.830   0.716   1.569
28231WAT      O84934   9.806   8.441   4.701
28231WAT     H184935   9.858   8.480   4.777
28231WAT     H284936   9.868   8.393   4.639
28232WAT      O84937   5.218   0.711   8.380
28232WAT     H184938   5.167   0.654   8.316
28232WAT     H284939   5.166   0.795   8.397
28233WAT      O84940   5.017   7.052   2.922
28233WAT     H184941   5.071   7.136   2.912
28233WAT     H284942   5.061   6.992   2.989
28234WAT      O84943   2.767   9.675   8.265
28234WAT     H184944   2.674   9.638   8.261
28234WAT     H284945   2.776   9.732   8.347
28235WAT      O84946   7.226   8.861   5.230
28235WAT     H184947   7.318   8.823   5.216
28235WAT     H284948   7.228   8.960   5.212
28236WAT      O84949   9.068   7.357   6.394
28236WAT     H184950   9.012   7.435   6.423
28236WAT     H284951   9.103   7.375   6.302
28237WAT      O84952   6.188   6.700   4.862
28237WAT     H184953   6.145   6.630   4.919
28237WAT     H284954   6.139   6.707   4.775
28238WAT      O84955   9.582   8.116   5.740
28238WAT     H184956   9.544   8.043   5.797
28238WAT     H284957   9.576   8.203   5.789
28239WAT      O84958   5.628   3.025   1.235
28239WAT     H184959   5.670   3.048   1.147
28239WAT     H284960   5.596   3.109   1.279
28240WAT      O84961   4.174   7.912   2.704
28240WAT     H184962   4.095   7.915   2.765
28240WAT     H284963   4.190   7.818   2.674
28241WAT      O84964   4.550   8.501   8.606
28241WAT     H184965   4.499   8.432   8.556
28241WAT     H284966   4.595   8.563   8.542
28242WAT      O84967   4.916   3.522   7.825
28242WAT     H184968   4.905   3.548   7.921
28242WAT     H284969   4.997   3.568   7.787
28243WAT      O84970   1.739   7.756   3.436
28243WAT     H184971   1.651   7.797   3.459
28243WAT     H284972   1.752   7.671   3.487
28244WAT      O84973   4.763   8.004   5.935
28244WAT     H184974   4.699   7.930   5.919
28244WAT     H284975   4.713   8.088   5.955
28245WAT      O84976   5.905   3.143   4.799
28245WAT     H184977   5.814   3.104   4.807
28245WAT     H284978   5.965   3.101   4.867
28246WAT      O84979   0.192   7.647   4.743
28246WAT     H184980   0.267   7.597   4.786
28246WAT     H284981   0.228   7.701   4.667
28247WAT      O84982   4.682   0.838   7.339
28247WAT     H184983   4.633   0.825   7.253
28247WAT     H284984   4.761   0.777   7.342
28248WAT      O84985   7.017   4.513   4.424
28248WAT     H184986   6.924   4.529   4.458
28248WAT     H284987   7.013   4.498   4.325
28249WAT      O84988   3.912   1.457   2.372
28249WAT     H184989   3.910   1.542   2.423
28249WAT     H284990   3.937   1.475   2.277
28250WAT      O84991   4.464   3.690   6.317
28250WAT     H184992   4.534   3.731   6.375
28250WAT     H284993   4.508   3.645   6.239
28251WAT      O84994   9.879   7.649   6.764
28251WAT     H184995   9.972   7.634   6.797
28251WAT     H284996   9.828   7.704   6.830
28252WAT      O84997   7.696   5.917   3.397
28252WAT     H184998   7.657   5.826   3.414
28252WAT     H284999   7.718   5.926   3.300
28253WAT      O85000   7.652   1.970   7.546
28253WAT     H185001   7.635   1.874   7.567
28253WAT     H285002   7.577   2.026   7.581
28254WAT      O85003   5.890   2.736   6.995
28254WAT     H185004   5.898   2.792   6.912
28254WAT     H285005   5.813   2.769   7.050
28255WAT      O85006   6.873   5.585   7.849
28255WAT     H185007   6.786   5.620   7.882
28255WAT     H285008   6.882   5.488   7.872
28256WAT      O85009   3.962   4.218   1.665
28256WAT     H185010   3.920   4.165   1.739
28256WAT     H285011   4.020   4.290   1.703
28257WAT      O85012   2.707   4.069   5.648
28257WAT     H185013   2.743   4.030   5.564
28257WAT     H285014   2.607   4.070   5.645
28258WAT      O85015   3.295   8.423   2.241
28258WAT     H185016   3.210   8.435   2.293
28258WAT     H285017   3.293   8.482   2.160
28259WAT      O85018   0.907   5.204   8.009
28259WAT     H185019   0.933   5.251   7.924
28259WAT     H285020   0.987   5.157   8.046
28260WAT      O85021   1.966   1.682   6.332
28260WAT     H185022   2.038   1.746   6.304
28260WAT     H285023   1.940   1.625   6.254
28261WAT      O85024   0.737   3.969   5.945
28261WAT     H185025   0.702   4.058   5.974
28261WAT     H285026   0.693   3.942   5.860
28262WAT      O85027   8.679   4.634   0.968
28262WAT     H185028   8.777   4.627   0.985
28262WAT     H285029   8.656   4.728   0.945
28263WAT      O85030   5.488   6.600   1.208
28263WAT     H185031   5.443   6.544   1.138
28263WAT     H285032   5.472   6.558   1.298
28264WAT      O85033   0.107   1.262   4.906
28264WAT     H185034   0.053   1.189   4.864
28264WAT     H285035   0.046   1.328   4.949
28265WAT      O85036   4.345   9.365   1.815
28265WAT     H185037   4.349   9.456   1.857
28265WAT     H285038   4.252   9.330   1.820
28266WAT      O85039   9.198   7.691   4.153
28266WAT     H185040   9.193   7.593   4.133
28266WAT     H285041   9.250   7.705   4.237
28267WAT      O85042   5.082   8.704   5.624
28267WAT     H185043   5.086   8.611   5.588
28267WAT     H285044   5.135   8.765   5.565
28268WAT      O85045   7.343   8.020   4.467
28268WAT     H185046   7.350   7.957   4.389
28268WAT     H285047   7.339   7.968   4.552
28269WAT      O85048   7.563   5.095   9.287
28269WAT     H185049   7.615   5.016   9.320
28269WAT     H285050   7.561   5.094   9.187
28270WAT      O85051   0.097   8.602   3.567
28270WAT     H185052   0.045   8.528   3.609
28270WAT     H285053   0.042   8.648   3.498
28271WAT      O85054   9.481   5.562   8.008
28271WAT     H185055   9.525   5.648   7.982
28271WAT     H285056   9.541   5.512   8.071
28272WAT      O85057   6.458   4.191   5.876
28272WAT     H185058   6.529   4.261   5.887
28272WAT     H285059   6.469   4.147   5.787
28273WAT      O85060   7.741   5.810   1.561
28273WAT     H185061   7.651   5.788   1.601
28273WAT     H285062   7.737   5.899   1.517
28274WAT      O85063   9.205   3.055   2.997
28274WAT     H185064   9.187   3.125   2.928
28274WAT     H285065   9.295   3.014   2.980
28275WAT      O85066   1.994   4.032   3.270
28275WAT     H185067   1.983   4.107   3.335
28275WAT     H285068   1.908   4.020   3.219
28276WAT      O85069   3.209   0.060   7.494
28276WAT     H185070   3.129   0.026   7.444
28276WAT     H285071   3.228   0.154   7.466
28277WAT      O85072   6.856   5.042   6.504
28277WAT     H185073   6.844   5.074   6.598
28277WAT     H285074   6.941   4.989   6.497
28278WAT      O85075   9.055   1.727   7.318
28278WAT     H185076   9.076   1.791   7.392
28278WAT     H285077   9.059   1.633   7.352
28279WAT      O85078   9.820   3.110   6.107
28279WAT     H185079   9.796   3.141   6.199
28279WAT     H285080   9.904   3.056   6.111
28280WAT      O85081   8.981   7.207   4.987
28280WAT     H185082   8.996   7.132   4.923
28280WAT     H285083   8.963   7.170   5.078
28281WAT      O85084   6.520   1.301   2.958
28281WAT     H185085   6.519   1.335   2.864
28281WAT     H285086   6.531   1.201   2.957
28282WAT      O85087   2.756   6.430   3.082
28282WAT     H185088   2.686   6.476   3.136
28282WAT     H285089   2.835   6.491   3.072
28283WAT      O85090   9.551   5.074   0.086
28283WAT     H185091   9.625   5.099   0.024
28283WAT     H285092   9.529   4.977   0.075
28284WAT      O85093   6.404   4.442   2.341
28284WAT     H185094   6.385   4.431   2.244
28284WAT     H285095   6.328   4.404   2.394
28285WAT      O85096   2.298   2.266   8.206
28285WAT     H185097   2.264   2.344   8.257
28285WAT     H285098   2.331   2.196   8.269
28286WAT      O85099   8.192   7.751   0.029
28286WAT     H185100   8.289   7.775   0.025
28286WAT     H285101   8.179   7.672   0.089
28287WAT      O85102   6.166   1.221   1.798
28287WAT     H185103   6.150   1.123   1.784
28287WAT     H285104   6.090   1.273   1.760
28288WAT      O85105   3.796   0.651   9.162
28288WAT     H185106   3.846   0.619   9.242
28288WAT     H285107   3.724   0.715   9.190
28289WAT      O85108   6.518   3.277   5.458
28289WAT     H185109   6.527   3.212   5.383
28289WAT     H285110   6.422   3.305   5.466
28290WAT      O85111   7.337   1.041   0.907
28290WAT     H185112   7.294   1.112   0.851
28290WAT     H285113   7.401   0.988   0.850
28291WAT      O85114   8.613   2.654   9.394
28291WAT     H185115   8.674   2.690   9.465
28291WAT     H285116   8.539   2.602   9.436
28292WAT      O85117   9.793   8.304   1.539
28292WAT     H185118   9.811   8.306   1.637
28292WAT     H285119   9.709   8.356   1.520
28293WAT      O85120   0.917   8.476   8.189
28293WAT     H185121   0.987   8.502   8.123
28293WAT     H285122   0.829   8.468   8.142
28294WAT      O85123   9.700   9.443   0.603
28294WAT     H185124   9.668   9.515   0.541
28294WAT     H285125   9.772   9.480   0.661
28295WAT      O85126   7.279   8.716   2.210
28295WAT     H185127   7.209   8.750   2.273
28295WAT     H285128   7.282   8.616   2.214
28296WAT      O85129   5.981   1.348   6.322
28296WAT     H185130   5.903   1.401   6.356
28296WAT     H285131   6.047   1.410   6.279
28297WAT      O85132   3.641   7.529   9.469
28297WAT     H185133   3.616   7.449   9.524
28297WAT     H285134   3.740   7.534   9.460
28298WAT      O85135   6.752   2.932   1.273
28298WAT     H185136   6.813   2.866   1.230
28298WAT     H285137   6.659   2.894   1.278
28299WAT      O85138   8.038   4.031   1.671
28299WAT     H185139   7.941   4.014   1.654
28299WAT     H285140   8.082   4.058   1.585
28300WAT      O85141   5.748   3.022   6.456
28300WAT     H185142   5.790   3.070   6.533
28300WAT     H285143   5.790   3.052   6.371
28301WAT      O85144   3.736   1.699   0.091
28301WAT     H185145   3.728   1.770   0.161
28301WAT     H285146   3.717   1.739   0.001
28302WAT      O85147   2.503   1.108   6.342
28302WAT     H185148   2.453   1.034   6.296
28302WAT     H285149   2.598   1.109   6.312
28303WAT      O85150   6.045   3.922   4.477
28303WAT     H185151   5.999   3.968   4.401
28303WAT     H285152   6.018   3.966   4.563
28304WAT      O85153   8.545   5.146   1.018
28304WAT     H185154   8.467   5.206   1.002
28304WAT     H285155   8.629   5.193   0.988
28305WAT      O85156   9.701   3.192   7.898
28305WAT     H185157   9.721   3.254   7.975
28305WAT     H285158   9.770   3.205   7.827
28306WAT      O85159   9.261   7.076   9.672
28306WAT     H185160   9.180   7.023   9.697
28306WAT     H285161   9.235   7.172   9.659
28307WAT      O85162   4.988   6.976   7.139
28307WAT     H185163   4.960   7.064   7.101
28307WAT     H285164   5.047   6.928   7.074
28308WAT      O85165   0.444   4.684   5.003
28308WAT     H185166   0.410   4.763   5.054
28308WAT     H285167   0.369   4.646   4.948
28309WAT      O85168   2.562   2.995   1.608
28309WAT     H185169   2.627   2.996   1.684
28309WAT     H285170   2.607   2.960   1.526
28310WAT      O85171   4.175   7.533   7.584
28310WAT     H185172   4.136   7.540   7.492
28310WAT     H285173   4.137   7.604   7.643
28311WAT      O85174   6.552   6.098   8.873
28311WAT     H185175   6.605   6.168   8.922
28311WAT     H285176   6.611   6.053   8.806
28312WAT      O85177   6.931   8.164   3.980
28312WAT     H185178   6.883   8.238   4.028
28312WAT     H285179   6.887   8.077   4.000
28313WAT      O85180   0.165   1.116   2.083
28313WAT     H185181   0.162   1.111   2.183
28313WAT     H285182   0.187   1.026   2.046
28314WAT      O85183   3.994   5.800   2.613
28314WAT     H185184   3.967   5.896   2.624
28314WAT     H285185   3.924   5.751   2.561
28315WAT      O85186   1.232   2.499   2.536
28315WAT     H185187   1.256   2.520   2.631
28315WAT     H285188   1.132   2.499   2.526
28316WAT      O85189   6.337   4.328   8.260
28316WAT     H185190   6.262   4.263   8.259
28316WAT     H285191   6.421   4.284   8.228
28317WAT      O85192   5.484   9.269   7.647
28317WAT     H185193   5.551   9.311   7.709
28317WAT     H285194   5.393   9.274   7.688
28318WAT      O85195   2.864   3.771   3.812
28318WAT     H185196   2.907   3.843   3.757
28318WAT     H285197   2.920   3.754   3.893
28319WAT      O85198   2.852   4.887   1.053
28319WAT     H185199   2.794   4.805   1.050
28319WAT     H285200   2.824   4.950   0.980
28320WAT      O85201   6.138   2.741   5.631
28320WAT     H185202   6.097   2.652   5.610
28320WAT     H285203   6.232   2.727   5.664
28321WAT      O85204   6.015   1.338   3.727
28321WAT     H185205   6.022   1.242   3.754
28321WAT     H285206   5.936   1.379   3.773
28322WAT      O85207   8.370   6.832   6.165
28322WAT     H185208   8.429   6.907   6.193
28322WAT     H285209   8.422   6.770   6.106
28323WAT      O85210   4.458   5.702   5.625
28323WAT     H185211   4.458   5.756   5.709
28323WAT     H285212   4.482   5.761   5.547
28324WAT      O85213   7.531   8.340   9.254
28324WAT     H185214   7.443   8.320   9.212
28324WAT     H285215   7.605   8.308   9.195
28325WAT      O85216   6.737   7.004   6.453
28325WAT     H185217   6.722   6.962   6.364
28325WAT     H285218   6.735   6.933   6.524
28326WAT      O85219   2.134   0.196   5.823
28326WAT     H185220   2.064   0.247   5.873
28326WAT     H285221   2.110   0.099   5.822
28327WAT      O85222   4.885   4.834   9.708
28327WAT     H185223   4.951   4.862   9.778
28327WAT     H285224   4.887   4.899   9.632
28328WAT      O85225   6.794   3.344   4.677
28328WAT     H185226   6.706   3.362   4.721
28328WAT     H285227   6.779   3.319   4.581
28329WAT      O85228   1.263   7.562   6.923
28329WAT     H185229   1.178   7.604   6.890
28329WAT     H285230   1.300   7.502   6.853
28330WAT      O85231   0.341   5.251   5.072
28330WAT     H185232   0.254   5.208   5.048
28330WAT     H285233   0.357   5.239   5.170
28331WAT      O85234   0.203   0.645   5.551
28331WAT     H185235   0.199   0.728   5.496
28331WAT     H285236   0.195   0.669   5.648
28332WAT      O85237   7.164   8.194   5.535
28332WAT     H185238   7.141   8.165   5.442
28332WAT     H285239   7.092   8.254   5.570
28333WAT      O85240   0.770   3.727   9.048
28333WAT     H185241   0.777   3.764   9.140
28333WAT     H285242   0.682   3.680   9.038
28334WAT      O85243   3.581   5.222   5.798
28334WAT     H185244   3.534   5.303   5.831
28334WAT     H285245   3.534   5.187   5.716
28335WAT      O85246   0.717   9.004   7.480
28335WAT     H185247   0.657   9.077   7.514
28335WAT     H285248   0.803   9.005   7.531
28336WAT      O85249   5.781   1.117   8.266
28336WAT     H185250   5.740   1.030   8.238
28336WAT     H285251   5.709   1.179   8.297
28337WAT      O85252   4.554   6.036   1.584
28337WAT     H185253   4.609   6.022   1.667
28337WAT     H285254   4.478   6.098   1.604
28338WAT      O85255   1.272   6.142   0.374
28338WAT     H185256   1.257   6.114   0.279
28338WAT     H285257   1.336   6.220   0.376
28339WAT      O85258   2.003   7.258   7.890
28339WAT     H185259   1.944   7.185   7.856
28339WAT     H285260   2.098   7.235   7.870
28340WAT      O85261   9.000   0.969   5.578
28340WAT     H185262   8.977   1.051   5.525
28340WAT     H285263   9.100   0.961   5.586
28341WAT      O85264   4.017   2.727   0.269
28341WAT     H185265   4.060   2.814   0.248
28341WAT     H285266   3.919   2.740   0.282
28342WAT      O85267   7.260   3.418   4.934
28342WAT     H185268   7.252   3.323   4.966
28342WAT     H285269   7.202   3.431   4.854
28343WAT      O85270   4.575   1.581   9.397
28343WAT     H185271   4.570   1.637   9.480
28343WAT     H285272   4.657   1.606   9.346
28344WAT      O85273   4.457   3.180   0.609
28344WAT     H185274   4.376   3.161   0.554
28344WAT     H285275   4.432   3.238   0.687
28345WAT      O85276   7.453   0.612   2.984
28345WAT     H185277   7.355   0.613   2.966
28345WAT     H285278   7.477   0.531   3.037
28346WAT      O85279   6.355   4.003   7.774
28346WAT     H185280   6.265   4.044   7.763
28346WAT     H285281   6.396   3.987   7.684
28347WAT      O85282   2.956   7.449   2.839
28347WAT     H185283   3.035   7.392   2.863
28347WAT     H285284   2.980   7.545   2.852
28348WAT      O85285   6.374   1.786   5.645
28348WAT     H185286   6.333   1.808   5.557
28348WAT     H285287   6.439   1.858   5.671
28349WAT      O85288   8.504   6.964   3.247
28349WAT     H185289   8.522   6.940   3.151
28349WAT     H285290   8.462   6.886   3.293
28350WAT      O85291   0.763   3.729   4.546
28350WAT     H185292   0.675   3.713   4.502
28350WAT     H285293   0.800   3.642   4.579
28351WAT      O85294   8.869   7.733   5.309
28351WAT     H185295   8.885   7.706   5.214
28351WAT     H285296   8.956   7.752   5.354
28352WAT      O85297   4.481   2.151   8.688
28352WAT     H185298   4.443   2.060   8.700
28352WAT     H285299   4.567   2.144   8.637
28353WAT      O85300   2.000   4.631   7.169
28353WAT     H185301   1.901   4.645   7.178
28353WAT     H285302   2.018   4.536   7.146
28354WAT      O85303   0.758   6.076   9.518
28354WAT     H185304   0.776   6.013   9.593
28354WAT     H285305   0.688   6.143   9.546
28355WAT      O85306   7.500   5.819   3.995
28355WAT     H185307   7.481   5.828   3.897
28355WAT     H285308   7.462   5.897   4.044
28356WAT      O85309   0.784   3.597   5.045
28356WAT     H185310   0.749   3.612   5.138
28356WAT     H285311   0.856   3.663   5.026
28357WAT      O85312   3.933   5.791   0.692
28357WAT     H185313   3.861   5.737   0.648
28357WAT     H285314   4.022   5.751   0.672
28358WAT      O85315   4.319   6.977   1.957
28358WAT     H185316   4.359   6.888   1.979
28358WAT     H285317   4.360   7.012   1.873
28359WAT      O85318   7.229   9.780   0.145
28359WAT     H185319   7.235   9.680   0.142
28359WAT     H285320   7.196   9.809   0.235
28360WAT      O85321   7.912   8.562   8.343
28360WAT     H185322   7.988   8.585   8.282
28360WAT     H285323   7.838   8.629   8.332
28361WAT      O85324   4.186   5.978   1.039
28361WAT     H185325   4.111   6.043   1.049
28361WAT     H285326   4.271   6.027   1.023
28362WAT      O85327   4.429   2.928   5.412
28362WAT     H185328   4.529   2.918   5.407
28362WAT     H285329   4.393   2.939   5.319
28363WAT      O85330   3.448   5.133   6.796
28363WAT     H185331   3.385   5.080   6.852
28363WAT     H285332   3.460   5.224   6.838
28364WAT      O85333   0.446   0.663   3.370
28364WAT     H185334   0.352   0.696   3.379
28364WAT     H285335   0.496   0.682   3.454
28365WAT      O85336   3.207   5.810   5.707
28365WAT     H185337   3.158   5.829   5.793
28365WAT     H285338   3.145   5.824   5.630
28366WAT      O85339   8.863   2.950   6.321
28366WAT     H185340   8.851   3.029   6.260
28366WAT     H285341   8.783   2.890   6.313
28367WAT      O85342   2.707   3.666   1.622
28367WAT     H185343   2.789   3.709   1.659
28367WAT     H285344   2.667   3.724   1.551
28368WAT      O85345   5.428   7.752   9.124
28368WAT     H185346   5.425   7.668   9.070
28368WAT     H285347   5.337   7.791   9.130
28369WAT      O85348   0.728   1.991   2.038
28369WAT     H185349   0.799   1.928   2.070
28369WAT     H285350   0.760   2.037   1.956
28370WAT      O85351   3.583   7.338   8.930
28370WAT     H185352   3.507   7.389   8.890
28370WAT     H285353   3.569   7.331   9.029
28371WAT      O85354   0.145   6.397   2.998
28371WAT     H185355   0.120   6.302   2.979
28371WAT     H285356   0.194   6.402   3.085
28372WAT      O85357   3.756   5.618   8.574
28372WAT     H185358   3.696   5.608   8.653
28372WAT     H285359   3.704   5.597   8.491
28373WAT      O85360   0.184   8.782   6.954
28373WAT     H185361   0.178   8.882   6.950
28373WAT     H285362   0.162   8.751   7.046
28374WAT      O85363   6.820   1.247   7.808
28374WAT     H185364   6.909   1.282   7.782
28374WAT     H285365   6.828   1.152   7.837
28375WAT      O85366   9.357   2.168   7.502
28375WAT     H185367   9.325   2.101   7.435
28375WAT     H285368   9.419   2.233   7.458
28376WAT      O85369   0.915   6.123   0.243
28376WAT     H185370   0.925   6.107   0.341
28376WAT     H285371   1.004   6.140   0.202
28377WAT      O85372   5.020   0.655   1.516
28377WAT     H185373   5.079   0.581   1.546
28377WAT     H285374   5.046   0.682   1.423
28378WAT      O85375   9.130   1.896   7.549
28378WAT     H185376   9.075   1.830   7.601
28378WAT     H285377   9.137   1.981   7.601
28379WAT      O85378   1.324   6.376   6.525
28379WAT     H185379   1.348   6.455   6.469
28379WAT     H285380   1.407   6.325   6.548
28380WAT      O85381   7.213   3.800   7.285
28380WAT     H185382   7.299   3.784   7.237
28380WAT     H285383   7.137   3.792   7.220
28381WAT      O85384   0.176   2.720   6.621
28381WAT     H185385   0.082   2.748   6.603
28381WAT     H285386   0.231   2.732   6.538
28382WAT      O85387   9.461   0.295   4.783
28382WAT     H185388   9.556   0.284   4.812
28382WAT     H285389   9.433   0.216   4.729
28383WAT      O85390   1.326   1.887   3.933
28383WAT     H185391   1.308   1.983   3.953
28383WAT     H285392   1.241   1.835   3.938
28384WAT      O85393   3.247   8.725   8.591
28384WAT     H185394   3.209   8.765   8.675
28384WAT     H285395   3.173   8.686   8.537
28385WAT      O85396   0.299   6.452   7.887
28385WAT     H185397   0.358   6.380   7.851
28385WAT     H285398   0.203   6.427   7.875
28386WAT      O85399   1.777   3.718   8.568
28386WAT     H185400   1.750   3.657   8.642
28386WAT     H285401   1.844   3.785   8.602
28387WAT      O85402   6.436   5.764   6.116
28387WAT     H185403   6.359   5.775   6.053
28387WAT     H285404   6.499   5.694   6.080
28388WAT      O85405   7.373   3.341   6.900
28388WAT     H185406   7.340   3.289   6.821
28388WAT     H285407   7.337   3.300   6.984
28389WAT      O85408   1.019   8.677   5.804
28389WAT     H185409   1.063   8.651   5.890
28389WAT     H285410   1.011   8.597   5.745
28390WAT      O85411   9.873   6.737   2.761
28390WAT     H185412   9.967   6.711   2.784
28390WAT     H285413   9.874   6.811   2.694
28391WAT      O85414   1.159   9.638   7.639
28391WAT     H185415   1.246   9.610   7.680
28391WAT     H285416   1.106   9.689   7.706
28392WAT      O85417   0.509   9.392   4.724
28392WAT     H185418   0.561   9.437   4.797
28392WAT     H285419   0.427   9.349   4.763
28393WAT      O85420   3.243   1.377   8.982
28393WAT     H185421   3.236   1.446   9.054
28393WAT     H285422   3.303   1.303   9.013
28394WAT      O85423   9.776   8.770   6.859
28394WAT     H185424   9.777   8.799   6.955
28394WAT     H285425   9.759   8.671   6.855
28395WAT      O85426   8.929   7.471   3.750
28395WAT     H185427   8.829   7.462   3.748
28395WAT     H285428   8.964   7.478   3.656
28396WAT      O85429   7.609   1.917   2.051
28396WAT     H185430   7.632   1.925   2.148
28396WAT     H285431   7.517   1.953   2.036
28397WAT      O85432   1.965   4.422   8.632
28397WAT     H185433   1.973   4.348   8.566
28397WAT     H285434   1.904   4.395   8.706
28398WAT      O85435   0.446   0.248   2.659
28398WAT     H185436   0.433   0.288   2.750
28398WAT     H285437   0.447   0.320   2.590
28399WAT      O85438   1.344   7.688   8.340
28399WAT     H185439   1.301   7.752   8.404
28399WAT     H285440   1.355   7.599   8.385
28400WAT      O85441   1.099   7.701   4.369
28400WAT     H185442   1.057   7.682   4.457
28400WAT     H285443   1.131   7.796   4.367
28401WAT      O85444   0.805   3.494   8.492
28401WAT     H185445   0.839   3.552   8.567
28401WAT     H285446   0.870   3.420   8.474
28402WAT      O85447   0.539   4.649   8.800
28402WAT     H185448   0.569   4.559   8.833
28402WAT     H285449   0.515   4.707   8.877
28403WAT      O85450   5.255   8.439   4.093
28403WAT     H185451   5.322   8.513   4.085
28403WAT     H285452   5.268   8.375   4.017
28404WAT      O85453   2.475   1.347   2.413
28404WAT     H185454   2.524   1.260   2.416
28404WAT     H285455   2.377   1.330   2.404
28405WAT      O85456   4.125   4.730   8.307
28405WAT     H185457   4.127   4.795   8.382
28405WAT     H285458   4.040   4.742   8.255
28406WAT      O85459   5.513   3.859   4.750
28406WAT     H185460   5.524   3.950   4.790
28406WAT     H285461   5.529   3.863   4.652
28407WAT      O85462   7.058   1.897   2.215
28407WAT     H185463   7.135   1.921   2.275
28407WAT     H285464   7.055   1.961   2.139
28408WAT      O85465   6.877   1.394   2.129
28408WAT     H185466   6.843   1.351   2.213
28408WAT     H285467   6.956   1.343   2.095
28409WAT      O85468   4.438   9.797   8.865
28409WAT     H185469   4.397   9.707   8.853
28409WAT     H285470   4.414   9.833   8.955
28410WAT      O85471   9.316   0.495   6.990
28410WAT     H185472   9.283   0.455   6.905
28410WAT     H285473   9.288   0.438   7.068
28411WAT      O85474   8.632   3.050   2.801
28411WAT     H185475   8.538   3.041   2.835
28411WAT     H285476   8.631   3.073   2.704
28412WAT      O85477   6.353   8.046   2.452
28412WAT     H185478   6.281   7.977   2.459
28412WAT     H285479   6.441   8.006   2.477
28413WAT      O85480   2.567   1.560   1.575
28413WAT     H185481   2.620   1.476   1.590
28413WAT     H285482   2.587   1.626   1.647
28414WAT      O85483   2.100   4.260   7.734
28414WAT     H185484   2.153   4.198   7.677
28414WAT     H285485   2.128   4.250   7.829
28415WAT      O85486   6.056   9.364   3.512
28415WAT     H185487   6.013   9.335   3.426
28415WAT     H285488   6.130   9.428   3.492
28416WAT      O85489   9.686   7.498   9.276
28416WAT     H185490   9.676   7.419   9.336
28416WAT     H285491   9.596   7.523   9.239
28417WAT      O85492   5.091   2.836   0.476
28417WAT     H185493   5.076   2.799   0.384
28417WAT     H285494   5.023   2.906   0.496
28418WAT      O85495   2.166   7.007   9.742
28418WAT     H185496   2.216   7.043   9.663
28418WAT     H285497   2.230   6.961   9.804
28419WAT      O85498   8.050   8.359   2.087
28419WAT     H185499   8.032   8.264   2.111
28419WAT     H285500   8.122   8.364   2.018
28420WAT      O85501   6.916   6.885   5.897
28420WAT     H185502   6.848   6.955   5.875
28420WAT     H285503   6.869   6.799   5.918
28421WAT      O85504   9.678   0.419   3.372
28421WAT     H185505   9.595   0.460   3.335
28421WAT     H285506   9.722   0.363   3.302
28422WAT      O85507   8.247   8.405   3.254
28422WAT     H185508   8.311   8.374   3.183
28422WAT     H285509   8.293   8.406   3.342
28423WAT      O85510   0.341   3.801   4.454
28423WAT     H185511   0.396   3.878   4.485
28423WAT     H285512   0.400   3.733   4.410
28424WAT      O85513   4.895   8.239   3.482
28424WAT     H185514   4.906   8.171   3.409
28424WAT     H285515   4.858   8.195   3.564
28425WAT      O85516   0.433   9.116   6.086
28425WAT     H185517   0.489   9.089   6.165
28425WAT     H285518   0.427   9.039   6.023
28426WAT      O85519   4.169   0.085   0.203
28426WAT     H185520   4.182   0.113   0.108
28426WAT     H285521   4.248   0.033   0.235
28427WAT      O85522   1.312   3.957   0.050
28427WAT     H185523   1.368   4.039   0.048
28427WAT     H285524   1.266   3.949   0.139
28428WAT      O85525   1.125   0.368   3.365
28428WAT     H185526   1.032   0.333   3.358
28428WAT     H285527   1.190   0.292   3.365
28429WAT      O85528   9.855   4.821   1.001
28429WAT     H185529   9.924   4.861   1.061
28429WAT     H285530   9.765   4.826   1.045
28430WAT      O85531   7.313   2.793   0.052
28430WAT     H185532   7.302   2.725  -0.020
28430WAT     H285533   7.276   2.880   0.022
28431WAT      O85534   6.449   2.923   2.942
28431WAT     H185535   6.481   2.869   2.864
28431WAT     H285536   6.478   3.018   2.931
28432WAT      O85537   1.449   1.713   1.614
28432WAT     H185538   1.463   1.797   1.563
28432WAT     H285539   1.439   1.636   1.550
28433WAT      O85540   3.060   8.811   5.793
28433WAT     H185541   3.079   8.893   5.848
28433WAT     H285542   2.980   8.827   5.736
28434WAT      O85543   8.690   5.820   6.822
28434WAT     H185544   8.597   5.787   6.810
28434WAT     H285545   8.750   5.742   6.842
28435WAT      O85546   2.888   3.142   3.866
28435WAT     H185547   2.961   3.085   3.827
28435WAT     H285548   2.921   3.237   3.872
28436WAT      O85549   3.000   7.298   7.564
28436WAT     H185550   2.928   7.328   7.626
28436WAT     H285551   2.995   7.199   7.552
28437WAT      O85552   0.460   6.961   6.092
28437WAT     H185553   0.449   6.983   5.996
28437WAT     H285554   0.454   6.861   6.105
28438WAT      O85555   2.275   4.219   4.838
28438WAT     H185556   2.185   4.264   4.839
28438WAT     H285557   2.346   4.288   4.851
28439WAT      O85558   2.714   2.059   4.061
28439WAT     H185559   2.618   2.087   4.060
28439WAT     H285560   2.726   1.979   4.001
28440WAT      O85561   1.366   6.905   3.488
28440WAT     H185562   1.453   6.872   3.452
28440WAT     H285563   1.294   6.840   3.466
28441WAT      O85564   1.091   8.216   1.652
28441WAT     H185565   1.121   8.259   1.737
28441WAT     H285566   1.169   8.175   1.605
28442WAT      O85567   2.125   9.714   3.516
28442WAT     H185568   2.193   9.641   3.514
28442WAT     H285569   2.170   9.802   3.498
28443WAT      O85570   1.021   0.477   2.957
28443WAT     H185571   1.119   0.458   2.952
28443WAT     H285572   0.972   0.392   2.980
28444WAT      O85573   9.071   7.759   9.867
28444WAT     H185574   9.121   7.690   9.920
28444WAT     H285575   8.980   7.771   9.906
28445WAT      O85576   0.284   8.520   9.786
28445WAT     H185577   0.274   8.423   9.807
28445WAT     H285578   0.215   8.573   9.835
28446WAT      O85579   8.510   7.204   0.891
28446WAT     H185580   8.588   7.265   0.875
28446WAT     H285581   8.449   7.209   0.812
28447WAT      O85582   7.879   6.905   0.169
28447WAT     H185583   7.927   6.876   0.251
28447WAT     H285584   7.792   6.856   0.162
28448WAT      O85585   4.748   0.905   1.812
28448WAT     H185586   4.701   0.876   1.729
28448WAT     H285587   4.697   0.872   1.892
28449WAT      O85588   4.097   2.469   3.111
28449WAT     H185589   4.174   2.485   3.173
28449WAT     H285590   4.109   2.381   3.065
28450WAT      O85591   9.725   4.638   5.775
28450WAT     H185592   9.727   4.538   5.767
28450WAT     H285593   9.650   4.674   5.719
28451WAT      O85594   9.267   0.911   0.074
28451WAT     H185595   9.257   0.978  -0.000
28451WAT     H285596   9.182   0.906   0.126
28452WAT      O85597   7.765   2.956   1.042
28452WAT     H185598   7.761   3.020   1.118
28452WAT     H285599   7.692   2.976   0.977
28453WAT      O85600   4.259   3.656   0.950
28453WAT     H185601   4.349   3.656   0.905
28453WAT     H285602   4.228   3.750   0.962
28454WAT      O85603   3.784   8.716   4.337
28454WAT     H185604   3.829   8.805   4.332
28454WAT     H285605   3.724   8.705   4.258
28455WAT      O85606   7.795   5.110   0.876
28455WAT     H185607   7.864   5.179   0.900
28455WAT     H285608   7.805   5.084   0.780
28456WAT      O85609   2.121   6.303   1.230
28456WAT     H185610   2.164   6.393   1.218
28456WAT     H285611   2.157   6.239   1.162
28457WAT      O85612   2.095   1.285   0.855
28457WAT     H185613   2.021   1.332   0.903
28457WAT     H285614   2.181   1.299   0.905
28458WAT      O85615   0.763   6.725   5.413
28458WAT     H185616   0.703   6.787   5.362
28458WAT     H285617   0.721   6.635   5.418
28459WAT      O85618   0.338   1.145   6.561
28459WAT     H185619   0.300   1.220   6.507
28459WAT     H285620   0.271   1.071   6.566
28460WAT      O85621   3.803   7.078   9.548
28460WAT     H185622   3.792   7.077   9.449
28460WAT     H285623   3.832   7.169   9.577
28461WAT      O85624   8.292   3.190   5.540
28461WAT     H185625   8.279   3.228   5.449
28461WAT     H285626   8.203   3.164   5.578
28462WAT      O85627   1.879   5.150   8.334
28462WAT     H185628   1.838   5.223   8.280
28462WAT     H285629   1.894   5.070   8.275
28463WAT      O85630   1.948   0.406   6.955
28463WAT     H185631   1.899   0.489   6.981
28463WAT     H285632   2.018   0.387   7.024
28464WAT      O85633   9.545   7.602   5.118
28464WAT     H185634   9.493   7.569   5.039
28464WAT     H285635   9.541   7.701   5.121
28465WAT      O85636   0.570   5.472   5.343
28465WAT     H185637   0.573   5.521   5.256
28465WAT     H285638   0.660   5.434   5.364
28466WAT      O85639   8.809   4.154   5.744
28466WAT     H185640   8.750   4.224   5.704
28466WAT     H285641   8.905   4.177   5.725
28467WAT      O85642   0.873   1.960   1.193
28467WAT     H185643   0.842   1.922   1.106
28467WAT     H285644   0.794   1.977   1.252
28468WAT      O85645   9.571   2.375   2.011
28468WAT     H185646   9.579   2.473   2.029
28468WAT     H285647   9.549   2.328   2.096
28469WAT      O85648   7.045   7.622   6.500
28469WAT     H185649   6.948   7.630   6.473
28469WAT     H285650   7.103   7.639   6.420
28470WAT      O85651   0.485   1.835   5.002
28470WAT     H185652   0.544   1.884   4.937
28470WAT     H285653   0.407   1.892   5.026
28471WAT      O85654   0.781   8.568   1.616
28471WAT     H185655   0.805   8.524   1.703
28471WAT     H285656   0.760   8.497   1.548
28472WAT      O85657   2.925   7.902   4.811
28472WAT     H185658   2.980   7.822   4.788
28472WAT     H285659   2.871   7.930   4.731
28473WAT      O85660   7.470   9.785   6.955
28473WAT     H185661   7.537   9.724   6.912
28473WAT     H285662   7.474   9.775   7.054
28474WAT      O85663   2.711   3.155   9.843
28474WAT     H185664   2.755   3.071   9.812
28474WAT     H285665   2.774   3.205   9.904
28475WAT      O85666   4.023   7.038   6.314
28475WAT     H185667   4.093   6.980   6.271
28475WAT     H285668   4.027   7.026   6.414
28476WAT      O85669   4.563   8.636   4.962
28476WAT     H185670   4.501   8.643   4.883
28476WAT     H285671   4.561   8.543   4.998
28477WAT      O85672   4.107   2.724   3.441
28477WAT     H185673   4.042   2.657   3.404
28477WAT     H285674   4.118   2.798   3.374
28478WAT      O85675   2.881   3.988   1.632
28478WAT     H185676   2.974   3.979   1.668
28478WAT     H285677   2.884   3.999   1.533
28479WAT      O85678   9.094   4.088   2.113
28479WAT     H185679   9.039   4.016   2.070
28479WAT     H285680   9.059   4.106   2.204
28480WAT      O85681   4.823   9.070   4.941
28480WAT     H185682   4.830   8.988   4.884
28480WAT     H285683   4.858   9.149   4.890
28481WAT      O85684   1.806   6.985   7.998
28481WAT     H185685   1.810   7.033   7.911
28481WAT     H285686   1.789   6.888   7.982
28482WAT      O85687   4.799   5.083   7.045
28482WAT     H185688   4.757   5.036   7.123
28482WAT     H285689   4.884   5.127   7.075
28483WAT      O85690   6.222   7.317   2.937
28483WAT     H185691   6.284   7.349   2.865
28483WAT     H285692   6.239   7.220   2.954
28484WAT      O85693   5.245   1.306   4.684
28484WAT     H185694   5.266   1.277   4.590
28484WAT     H285695   5.146   1.300   4.699
28485WAT      O85696   4.817   8.510   4.842
28485WAT     H185697   4.751   8.585   4.851
28485WAT     H285698   4.772   8.430   4.802
28486WAT      O85699   3.454   1.472   2.208
28486WAT     H185700   3.422   1.482   2.302
28486WAT     H285701   3.542   1.518   2.197
28487WAT      O85702   8.871   8.825   8.621
28487WAT     H185703   8.878   8.743   8.678
28487WAT     H285704   8.944   8.889   8.645
28488WAT      O85705   7.801   9.334   5.545
28488WAT     H185706   7.720   9.380   5.582
28488WAT     H285707   7.774   9.280   5.464
28489WAT      O85708   1.220   8.913   4.126
28489WAT     H185709   1.213   8.887   4.030
28489WAT     H285710   1.135   8.957   4.155
28490WAT      O85711   3.202   0.915   5.959
28490WAT     H185712   3.153   0.888   5.877
28490WAT     H285713   3.217   1.014   5.959
28491WAT      O85714   8.435   5.647   1.038
28491WAT     H185715   8.420   5.585   1.116
28491WAT     H285716   8.446   5.592   0.955
28492WAT      O85717   9.843   4.420   9.317
28492WAT     H185718   9.792   4.418   9.232
28492WAT     H285719   9.939   4.400   9.299
28493WAT      O85720   7.483   5.223   5.163
28493WAT     H185721   7.523   5.304   5.205
28493WAT     H285722   7.399   5.249   5.114
28494WAT      O85723   0.870   7.236   5.090
28494WAT     H185724   0.840   7.258   4.998
28494WAT     H285725   0.842   7.142   5.113
28495WAT      O85726   7.577   1.184   6.777
28495WAT     H185727   7.663   1.233   6.761
28495WAT     H285728   7.526   1.230   6.850
28496WAT      O85729   1.248   1.924   1.320
28496WAT     H185730   1.194   2.008   1.325
28496WAT     H285731   1.217   1.869   1.243
28497WAT      O85732   2.887   1.515   5.444
28497WAT     H185733   2.920   1.491   5.535
28497WAT     H285734   2.959   1.497   5.377
28498WAT      O85735   6.358   7.636   9.004
28498WAT     H185736   6.367   7.718   9.060
28498WAT     H285737   6.399   7.652   8.914
28499WAT      O85738   3.398   5.239   9.482
28499WAT     H185739   3.314   5.189   9.503
28499WAT     H285740   3.386   5.336   9.502
28500WAT      O85741   5.121   4.763   8.768
28500WAT     H185742   5.149   4.667   8.774
28500WAT     H285743   5.091   4.794   8.858
28501WAT      O85744   5.174   3.791   5.589
28501WAT     H185745   5.241   3.857   5.557
28501WAT     H285746   5.145   3.815   5.682
28502WAT      O85747   7.380   4.364   1.465
28502WAT     H185748   7.322   4.445   1.455
28502WAT     H285749   7.340   4.302   1.532
28503WAT      O85750   4.750   4.985   3.397
28503WAT     H185751   4.660   5.005   3.437
28503WAT     H285752   4.742   4.981   3.298
28504WAT      O85753   1.852   5.335   4.779
28504WAT     H185754   1.753   5.329   4.772
28504WAT     H285755   1.881   5.300   4.868
28505WAT      O85756   8.158   2.444   3.532
28505WAT     H185757   8.074   2.479   3.574
28505WAT     H285758   8.184   2.501   3.455
28506WAT      O85759   9.456   7.584   8.485
28506WAT     H185760   9.475   7.660   8.423
28506WAT     H285761   9.539   7.558   8.534
28507WAT      O85762   4.792   7.442   3.531
28507WAT     H185763   4.695   7.456   3.550
28507WAT     H285764   4.806   7.432   3.432
28508WAT      O85765   1.427   2.090   2.644
28508WAT     H185766   1.368   2.096   2.564
28508WAT     H285767   1.376   2.050   2.720
28509WAT      O85768   2.369   3.961   0.670
28509WAT     H185769   2.419   3.885   0.711
28509WAT     H285770   2.410   4.047   0.700
28510WAT      O85771   8.481   7.133   7.704
28510WAT     H185772   8.577   7.158   7.688
28510WAT     H285773   8.422   7.200   7.658
28511WAT      O85774   7.981   7.477   2.391
28511WAT     H185775   8.060   7.509   2.441
28511WAT     H285776   7.999   7.483   2.292
28512WAT      O85777   3.402   0.532   6.481
28512WAT     H185778   3.354   0.601   6.427
28512WAT     H285779   3.388   0.442   6.441
28513WAT      O85780   9.716   6.305   0.745
28513WAT     H185781   9.744   6.217   0.782
28513WAT     H285782   9.786   6.374   0.764
28514WAT      O85783   6.281   4.917   6.636
28514WAT     H185784   6.276   4.972   6.719
28514WAT     H285785   6.376   4.891   6.619
28515WAT      O85786   5.638   3.075   5.331
28515WAT     H185787   5.696   3.141   5.284
28515WAT     H285788   5.582   3.026   5.264
28516WAT      O85789   5.037   2.918   7.151
28516WAT     H185790   4.953   2.863   7.153
28516WAT     H285791   5.075   2.915   7.058
28517WAT      O85792   7.092   7.827   1.346
28517WAT     H185793   7.123   7.914   1.385
28517WAT     H285794   7.166   7.760   1.350
28518WAT      O85795   9.132   8.764   7.835
28518WAT     H185796   9.104   8.788   7.742
28518WAT     H285797   9.083   8.821   7.901
28519WAT      O85798   1.955   6.326   5.040
28519WAT     H185799   2.011   6.250   5.074
28519WAT     H285800   1.886   6.351   5.109
28520WAT      O85801   0.987   1.354   3.649
28520WAT     H185802   0.965   1.351   3.551
28520WAT     H285803   1.027   1.443   3.672
28521WAT      O85804   3.340   1.085   0.351
28521WAT     H185805   3.267   1.023   0.322
28521WAT     H285806   3.373   1.056   0.441
28522WAT      O85807   3.319   6.064   0.814
28522WAT     H185808   3.408   6.021   0.826
28522WAT     H285809   3.260   6.003   0.760
28523WAT      O85810   2.404   2.280   3.323
28523WAT     H185811   2.366   2.286   3.416
28523WAT     H285812   2.357   2.345   3.263
28524WAT      O85813   8.974   1.727   7.705
28524WAT     H185814   8.902   1.784   7.664
28524WAT     H285815   8.972   1.738   7.804
28525WAT      O85816   5.831   2.834   4.067
28525WAT     H185817   5.791   2.864   3.980
28525WAT     H285818   5.789   2.748   4.095
28526WAT      O85819   2.362   2.422   1.338
28526WAT     H185820   2.343   2.360   1.415
28526WAT     H285821   2.409   2.371   1.266
28527WAT      O85822   1.510   7.855   9.595
28527WAT     H185823   1.600   7.865   9.636
28527WAT     H285824   1.447   7.814   9.661
28528WAT      O85825   0.212   2.554   8.315
28528WAT     H185826   0.165   2.477   8.359
28528WAT     H285827   0.145   2.612   8.269
28529WAT      O85828   5.211   0.980   1.491
28529WAT     H185829   5.134   1.038   1.465
28529WAT     H285830   5.195   0.941   1.581
28530WAT      O85831   1.672   5.998   5.727
28530WAT     H185832   1.613   6.014   5.806
28530WAT     H285833   1.766   5.986   5.757
28531WAT      O85834   9.314   0.344   8.215
28531WAT     H185835   9.354   0.433   8.191
28531WAT     H285836   9.287   0.297   8.131
28532WAT      O85837   0.411   4.476   4.040
28532WAT     H185838   0.474   4.543   4.002
28532WAT     H285839   0.351   4.521   4.107
28533WAT      O85840   1.272   3.156   1.226
28533WAT     H185841   1.297   3.076   1.281
28533WAT     H285842   1.209   3.213   1.279
28534WAT      O85843   1.558   8.174   1.350
28534WAT     H185844   1.577   8.132   1.439
28534WAT     H285845   1.644   8.200   1.306
28535WAT      O85846   5.668   3.556   6.112
28535WAT     H185847   5.735   3.630   6.116
28535WAT     H285848   5.697   3.489   6.044
28536WAT      O85849   8.225   0.943   5.703
28536WAT     H185850   8.204   1.020   5.642
28536WAT     H285851   8.298   0.970   5.766
28537WAT      O85852   5.696   5.812   1.232
28537WAT     H185853   5.621   5.799   1.296
28537WAT     H285854   5.753   5.889   1.262
28538WAT      O85855   0.713   4.897   7.161
28538WAT     H185856   0.656   4.816   7.160
28538WAT     H285857   0.803   4.875   7.124
28539WAT      O85858   5.073   2.016   6.843
28539WAT     H185859   5.153   1.972   6.883
28539WAT     H285860   5.091   2.035   6.746
28540WAT      O85861   1.961   6.150   0.383
28540WAT     H185862   1.879   6.111   0.340
28540WAT     H285863   1.994   6.227   0.329
28541WAT      O85864   0.096   5.373   6.379
28541WAT     H185865   0.148   5.459   6.376
28541WAT     H285866   0.064   5.357   6.472
28542WAT      O85867   0.360   4.856   3.156
28542WAT     H185868   0.356   4.794   3.234
28542WAT     H285869   0.326   4.809   3.075
28543WAT      O85870   7.502   7.152   8.040
28543WAT     H185871   7.415   7.145   7.991
28543WAT     H285872   7.577   7.163   7.975
28544WAT      O85873   6.437   0.273   9.468
28544WAT     H185874   6.439   0.290   9.566
28544WAT     H285875   6.344   0.288   9.433
28545WAT      O85876   3.378   9.294   5.660
28545WAT     H185877   3.425   9.347   5.590
28545WAT     H285878   3.304   9.241   5.618
28546WAT      O85879   5.550   7.353   8.168
28546WAT     H185880   5.593   7.361   8.078
28546WAT     H285881   5.588   7.274   8.216
28547WAT      O85882   8.822   7.386   9.700
28547WAT     H185883   8.914   7.409   9.732
28547WAT     H285884   8.774   7.470   9.673
28548WAT      O85885   5.413   0.366   6.732
28548WAT     H185886   5.375   0.313   6.656
28548WAT     H285887   5.427   0.461   6.703
28549WAT      O85888   0.017   2.928   2.501
28549WAT     H185889  -0.080   2.908   2.508
28549WAT     H285890   0.061   2.913   2.590
28550WAT      O85891   5.355   6.010   4.901
28550WAT     H185892   5.354   6.110   4.899
28550WAT     H285893   5.336   5.974   4.810
28551WAT      O85894   4.539   2.677   5.219
28551WAT     H185895   4.509   2.765   5.183
28551WAT     H285896   4.469   2.640   5.280
28552WAT      O85897   4.779   0.460   1.286
28552WAT     H185898   4.853   0.424   1.342
28552WAT     H285899   4.742   0.387   1.227
28553WAT      O85900   2.193   2.153   5.006
28553WAT     H185901   2.152   2.062   5.017
28553WAT     H285902   2.191   2.179   4.909
28554WAT      O85903   2.254   7.481   2.981
28554WAT     H185904   2.301   7.402   2.943
28554WAT     H285905   2.284   7.496   3.076
28555WAT      O85906   7.646   4.443   8.607
28555WAT     H185907   7.717   4.445   8.676
28555WAT     H285908   7.687   4.434   8.516
28556WAT      O85909   2.062   1.807   1.833
28556WAT     H185910   2.135   1.746   1.803
28556WAT     H285911   2.098   1.875   1.896
28557WAT      O85912   6.443   3.231   1.423
28557WAT     H185913   6.540   3.205   1.423
28557WAT     H285914   6.387   3.148   1.417
28558WAT      O85915   6.431   7.055   8.198
28558WAT     H185916   6.511   6.996   8.212
28558WAT     H285917   6.446   7.112   8.117
28559WAT      O85918   9.103   4.812   5.004
28559WAT     H185919   9.043   4.763   5.068
28559WAT     H285920   9.139   4.895   5.048
28560WAT      O85921   2.588   6.535   1.212
28560WAT     H185922   2.639   6.526   1.126
28560WAT     H285923   2.639   6.593   1.275
28561WAT      O85924   9.515   4.194   0.034
28561WAT     H185925   9.488   4.282  -0.006
28561WAT     H285926   9.603   4.166  -0.004
28562WAT      O85927   7.270   2.233   8.310
28562WAT     H185928   7.259   2.161   8.242
28562WAT     H285929   7.281   2.193   8.401
28563WAT      O85930   3.407   0.465   0.101
28563WAT     H185931   3.331   0.408   0.067
28563WAT     H285932   3.429   0.437   0.194
28564WAT      O85933   4.721   2.247   2.490
28564WAT     H185934   4.711   2.177   2.560
28564WAT     H285935   4.817   2.275   2.484
28565WAT      O85936   0.664   0.249   2.842
28565WAT     H185937   0.753   0.261   2.887
28565WAT     H285938   0.608   0.330   2.857
28566WAT      O85939   2.077   7.326   8.335
28566WAT     H185940   1.978   7.312   8.329
28566WAT     H285941   2.113   7.277   8.414
28567WAT      O85942   8.935   8.111   9.074
28567WAT     H185943   8.908   8.015   9.082
28567WAT     H285944   9.017   8.117   9.016
28568WAT      O85945   9.391   3.762   2.508
28568WAT     H185946   9.433   3.836   2.559
28568WAT     H285947   9.374   3.684   2.569
28569WAT      O85948   2.194   9.780   0.090
28569WAT     H185949   2.272   9.792   0.030
28569WAT     H285950   2.116   9.833   0.056
28570WAT      O85951   9.756   4.504   9.732
28570WAT     H185952   9.846   4.528   9.696
28570WAT     H285953   9.732   4.410   9.704
28571WAT      O85954   7.234   2.653   5.445
28571WAT     H185955   7.312   2.591   5.433
28571WAT     H285956   7.150   2.600   5.453
28572WAT      O85957   2.328   3.246   7.156
28572WAT     H185958   2.331   3.320   7.224
28572WAT     H285959   2.385   3.270   7.077
28573WAT      O85960   6.290   2.675   8.851
28573WAT     H185961   6.301   2.579   8.876
28573WAT     H285962   6.319   2.689   8.757
28574WAT      O85963   5.227   7.309   8.877
28574WAT     H185964   5.290   7.310   8.799
28574WAT     H285965   5.134   7.298   8.844
28575WAT      O85966   3.811   7.614   4.745
28575WAT     H185967   3.891   7.557   4.729
28575WAT     H285968   3.779   7.602   4.839
28576WAT      O85969   6.207   1.191   7.411
28576WAT     H185970   6.256   1.114   7.371
28576WAT     H285971   6.205   1.182   7.511
28577WAT      O85972   2.702   6.407   4.701
28577WAT     H185973   2.638   6.336   4.674
28577WAT     H285974   2.654   6.494   4.709
28578WAT      O85975   8.128   5.909   7.577
28578WAT     H185976   8.228   5.911   7.584
28578WAT     H285977   8.088   5.967   7.648
28579WAT      O85978   7.704   7.982   8.221
28579WAT     H185979   7.717   7.997   8.123
28579WAT     H285980   7.619   8.025   8.251
28580WAT      O85981   0.660   2.542   5.973
28580WAT     H185982   0.576   2.489   5.985
28580WAT     H285983   0.739   2.481   5.975
28581WAT      O85984   0.423   2.148   0.203
28581WAT     H185985   0.366   2.216   0.157
28581WAT     H285986   0.376   2.117   0.286
28582WAT      O85987   2.394   4.443   6.138
28582WAT     H185988   2.404   4.357   6.088
28582WAT     H285989   2.455   4.443   6.217
28583WAT      O85990   2.359   6.793   7.514
28583WAT     H185991   2.331   6.701   7.541
28583WAT     H285992   2.373   6.796   7.415
28584WAT      O85993   4.036   8.090   7.892
28584WAT     H185994   4.086   8.164   7.937
28584WAT     H285995   4.045   8.100   7.793
28585WAT      O85996   4.400   7.664   2.322
28585WAT     H185997   4.404   7.655   2.223
28585WAT     H285998   4.322   7.721   2.348
28586WAT      O85999   1.424   6.893   0.668
28586WAT     H186000   1.502   6.954   0.656
28586WAT     H286001   1.446   6.825   0.738
28587WAT      O86002   2.801   0.170   7.308
28587WAT     H186003   2.804   0.072   7.329
28587WAT     H286004   2.835   0.184   7.215
28588WAT      O86005   1.661   6.145   2.322
28588WAT     H186006   1.594   6.195   2.267
28588WAT     H286007   1.744   6.200   2.332
28589WAT      O86008   9.694   1.885   2.558
28589WAT     H186009   9.753   1.951   2.604
28589WAT     H286010   9.746   1.836   2.488
28590WAT      O86011   5.670   7.937   2.136
28590WAT     H186012   5.727   7.998   2.192
28590WAT     H286013   5.602   7.991   2.087
28591WAT      O86014   2.167   3.644   8.871
28591WAT     H186015   2.177   3.726   8.928
28591WAT     H286016   2.252   3.629   8.820
28592WAT      O86017   8.815   8.943   9.298
28592WAT     H186018   8.832   9.042   9.306
28592WAT     H286019   8.723   8.923   9.333
28593WAT      O86020   8.619   8.779   5.858
28593WAT     H186021   8.578   8.821   5.939
28593WAT     H286022   8.579   8.688   5.844
28594WAT      O86023   1.875   1.366   8.475
28594WAT     H186024   1.912   1.314   8.552
28594WAT     H286025   1.799   1.316   8.435
28595WAT      O86026   4.832   8.735   6.520
28595WAT     H186027   4.772   8.802   6.476
28595WAT     H286028   4.790   8.644   6.516
28596WAT      O86029   6.929   0.137   5.954
28596WAT     H186030   6.854   0.095   6.005
28596WAT     H286031   7.016   0.099   5.986
28597WAT      O86032   8.552   7.235   7.377
28597WAT     H186033   8.644   7.258   7.411
28597WAT     H286034   8.484   7.284   7.431
28598WAT      O86035   3.721   5.181   5.315
28598WAT     H186036   3.704   5.083   5.307
28598WAT     H286037   3.726   5.207   5.411
28599WAT      O86038   5.833   8.128   1.938
28599WAT     H186039   5.734   8.115   1.936
28599WAT     H286040   5.875   8.079   1.863
28600WAT      O86041   6.488   7.637   5.110
28600WAT     H186042   6.464   7.734   5.103
28600WAT     H286043   6.544   7.611   5.031
28601WAT      O86044   7.341   2.730   6.030
28601WAT     H186045   7.407   2.805   6.034
28601WAT     H286046   7.326   2.704   5.935
28602WAT      O86047   3.850   3.920   5.798
28602WAT     H186048   3.771   3.934   5.858
28602WAT     H286049   3.888   3.829   5.813
28603WAT      O86050   7.785   0.719   2.432
28603WAT     H186051   7.830   0.722   2.342
28603WAT     H286052   7.686   0.733   2.420
28604WAT      O86053   6.582   7.869   2.800
28604WAT     H186054   6.564   7.774   2.824
28604WAT     H286055   6.519   7.929   2.850
28605WAT      O86056   1.741   6.361   3.552
28605WAT     H186057   1.647   6.386   3.575
28605WAT     H286058   1.804   6.429   3.592
28606WAT      O86059   2.138   7.086   0.601
28606WAT     H186060   2.103   7.172   0.564
28606WAT     H286061   2.171   7.029   0.525
28607WAT      O86062   6.238   5.340   6.868
28607WAT     H186063   6.159   5.292   6.829
28607WAT     H286064   6.243   5.432   6.830
28608WAT      O86065   9.353   0.469   9.355
28608WAT     H186066   9.368   0.533   9.280
28608WAT     H286067   9.315   0.384   9.319
28609WAT      O86068   0.812   9.393   6.647
28609WAT     H186069   0.877   9.367   6.576
28609WAT     H286070   0.824   9.334   6.727
28610WAT      O86071   3.849   1.326   5.538
28610WAT     H186072   3.763   1.329   5.589
28610WAT     H286073   3.869   1.417   5.501
28611WAT      O86074   9.886   3.254   7.707
28611WAT     H186075   9.929   3.324   7.763
28611WAT     H286076   9.890   3.281   7.610
28612WAT      O86077   6.508   7.657   3.130
28612WAT     H186078   6.504   7.755   3.154
28612WAT     H286079   6.423   7.613   3.158
28613WAT      O86080   0.049   3.337   8.409
28613WAT     H186081   0.106   3.283   8.346
28613WAT     H286082   0.108   3.385   8.473
28614WAT      O86083   8.885   8.518   1.950
28614WAT     H186084   8.828   8.437   1.940
28614WAT     H286085   8.836   8.587   2.004
28615WAT      O86086   3.865   1.623   3.341
28615WAT     H186087   3.894   1.719   3.331
28615WAT     H286088   3.893   1.589   3.430
28616WAT      O86089   8.484   0.015   1.234
28616WAT     H186090   8.547   0.068   1.291
28616WAT     H286091   8.485  -0.081   1.263
28617WAT      O86092   7.676   7.093   2.542
28617WAT     H186093   7.762   7.104   2.591
28617WAT     H286094   7.624   7.179   2.547
28618WAT      O86095   7.207   8.731   4.854
28618WAT     H186096   7.185   8.673   4.932
28618WAT     H286097   7.305   8.723   4.833
28619WAT      O86098   7.308   6.331   7.879
28619WAT     H186099   7.341   6.324   7.785
28619WAT     H286100   7.356   6.265   7.937
28620WAT      O86101   0.953   3.413   2.684
28620WAT     H186102   0.956   3.419   2.784
28620WAT     H286103   0.864   3.444   2.652
28621WAT      O86104   3.336   8.588   1.350
28621WAT     H186105   3.308   8.518   1.285
28621WAT     H286106   3.336   8.550   1.443
28622WAT      O86107   4.750   2.025   5.423
28622WAT     H186108   4.724   1.970   5.344
28622WAT     H286109   4.807   2.101   5.394
28623WAT      O86110   4.994   6.924   0.359
28623WAT     H186111   5.020   6.928   0.262
28623WAT     H286112   5.016   6.834   0.396
28624WAT      O86113   7.997   2.935   7.699
28624WAT     H186114   8.011   2.995   7.778
28624WAT     H286115   8.085   2.912   7.658
28625WAT      O86116   4.710   1.197   6.706
28625WAT     H186117   4.714   1.229   6.611
28625WAT     H286118   4.752   1.265   6.765
28626WAT      O86119   7.714   5.879   0.229
28626WAT     H186120   7.781   5.810   0.204
28626WAT     H286121   7.625   5.857   0.188
28627WAT      O86122   0.840   3.756   2.608
28627WAT     H186123   0.825   3.770   2.510
28627WAT     H286124   0.830   3.843   2.656
28628WAT      O86125   5.275   3.190   6.301
28628WAT     H186126   5.191   3.196   6.247
28628WAT     H286127   5.335   3.266   6.278
28629WAT      O86128   5.965   3.584   5.860
28629WAT     H186129   6.004   3.628   5.779
28629WAT     H286130   5.908   3.507   5.831
28630WAT      O86131   5.171   2.692   1.384
28630WAT     H186132   5.265   2.686   1.418
28630WAT     H286133   5.110   2.645   1.447
28631WAT      O86134   5.124   0.023   3.544
28631WAT     H186135   5.057  -0.050   3.533
28631WAT     H286136   5.076   0.110   3.558
28632WAT      O86137   2.959   0.867   8.537
28632WAT     H186138   2.881   0.897   8.591
28632WAT     H286139   2.958   0.767   8.529
28633WAT      O86140   1.270   3.710   0.551
28633WAT     H186141   1.357   3.704   0.503
28633WAT     H286142   1.272   3.651   0.632
28634WAT      O86143   4.496   7.450   6.322
28634WAT     H186144   4.484   7.548   6.337
28634WAT     H286145   4.406   7.405   6.323
28635WAT      O86146   7.370   2.153   6.483
28635WAT     H186147   7.325   2.111   6.562
28635WAT     H286148   7.312   2.227   6.448
28636WAT      O86149   1.796   1.391   2.704
28636WAT     H186150   1.718   1.329   2.699
28636WAT     H286151   1.875   1.343   2.743
28637WAT      O86152   3.933   6.498   3.178
28637WAT     H186153   3.953   6.465   3.270
28637WAT     H286154   3.971   6.434   3.110
28638WAT      O86155   9.489   6.196   4.309
28638WAT     H186156   9.508   6.167   4.402
28638WAT     H286157   9.461   6.292   4.308
28639WAT      O86158   4.294   3.048   5.631
28639WAT     H186159   4.348   3.003   5.560
28639WAT     H286160   4.267   3.139   5.599
28640WAT      O86161   0.023   5.378   6.713
28640WAT     H186162   0.046   5.423   6.799
28640WAT     H286163   0.044   5.281   6.720
28641WAT      O86164   0.414   1.117   0.415
28641WAT     H186165   0.501   1.076   0.443
28641WAT     H286166   0.425   1.216   0.409
28642WAT      O86167   3.454   4.528   0.950
28642WAT     H186168   3.498   4.524   0.861
28642WAT     H286169   3.515   4.576   1.015
28643WAT      O86170   8.647   7.858   4.876
28643WAT     H186171   8.626   7.835   4.971
28643WAT     H286172   8.654   7.957   4.866
28644WAT      O86173   5.538   3.868   9.432
28644WAT     H186174   5.505   3.911   9.515
28644WAT     H286175   5.460   3.837   9.378
28645WAT      O86176   1.730   0.840   2.505
28645WAT     H186177   1.706   0.743   2.502
28645WAT     H286178   1.747   0.873   2.412
28646WAT      O86179   8.962   7.675   4.356
28646WAT     H186180   9.010   7.756   4.387
28646WAT     H286181   8.996   7.648   4.266
28647WAT      O86182   6.080   8.707   8.033
28647WAT     H186183   6.061   8.795   7.990
28647WAT     H286184   6.012   8.640   8.004
28648WAT      O86185   8.387   3.208   1.238
28648WAT     H186186   8.383   3.164   1.148
28648WAT     H286187   8.323   3.284   1.241
28649WAT      O86188   1.396   3.115   2.682
28649WAT     H186189   1.412   3.035   2.739
28649WAT     H286190   1.306   3.153   2.702
28650WAT      O86191   1.333   0.692   6.966
28650WAT     H186192   1.392   0.714   6.887
28650WAT     H286193   1.330   0.771   7.028
28651WAT      O86194   9.319   7.029   4.059
28651WAT     H186195   9.357   6.951   4.009
28651WAT     H286196   9.310   7.107   3.996
28652WAT      O86197   5.034   5.067   2.713
28652WAT     H186198   4.998   4.979   2.681
28652WAT     H286199   5.126   5.081   2.676
28653WAT      O86200   7.459   1.577   4.493
28653WAT     H186201   7.495   1.561   4.585
28653WAT     H286202   7.368   1.619   4.500
28654WAT      O86203   3.494   8.115   7.658
28654WAT     H186204   3.418   8.136   7.597
28654WAT     H286205   3.552   8.195   7.668
28655WAT      O86206   4.149   3.019   7.156
28655WAT     H186207   4.070   3.034   7.214
28655WAT     H286208   4.128   2.948   7.088
28656WAT      O86209   8.718   0.137   1.586
28656WAT     H186210   8.693   0.174   1.497
28656WAT     H286211   8.683   0.198   1.658
28657WAT      O86212   9.422   9.698   3.416
28657WAT     H186213   9.508   9.663   3.452
28657WAT     H286214   9.372   9.745   3.489
28658WAT      O86215   6.980   0.857   9.643
28658WAT     H186216   7.001   0.874   9.547
28658WAT     H286217   6.976   0.758   9.660
28659WAT      O86218   3.526   9.491   6.313
28659WAT     H186219   3.593   9.433   6.358
28659WAT     H286220   3.473   9.437   6.248
28660WAT      O86221   4.668   6.932   9.610
28660WAT     H186222   4.739   6.894   9.670
28660WAT     H286223   4.660   7.030   9.625
28661WAT      O86224   2.686   4.332   8.850
28661WAT     H186225   2.701   4.382   8.765
28661WAT     H286226   2.594   4.293   8.850
28662WAT      O86227   1.816   3.514   8.044
28662WAT     H186228   1.728   3.496   8.089
28662WAT     H286229   1.882   3.443   8.069
28663WAT      O86230   0.934   4.131   8.545
28663WAT     H186231   0.945   4.186   8.627
28663WAT     H286232   0.955   4.187   8.464
28664WAT      O86233   0.937   6.702   6.729
28664WAT     H186234   0.962   6.699   6.826
28664WAT     H286235   1.017   6.728   6.676
28665WAT      O86236   6.145   8.402   4.884
28665WAT     H186237   6.186   8.322   4.842
28665WAT     H286238   6.216   8.462   4.921
28666WAT      O86239   0.845   2.402   4.579
28666WAT     H186240   0.915   2.388   4.649
28666WAT     H286241   0.853   2.495   4.541
28667WAT      O86242   6.490   2.158   8.168
28667WAT     H186243   6.583   2.161   8.204
28667WAT     H286244   6.450   2.069   8.188
28668WAT      O86245   0.827   4.245   5.460
28668WAT     H186246   0.779   4.319   5.507
28668WAT     H286247   0.881   4.192   5.525
28669WAT      O86248   5.968   6.806   0.716
28669WAT     H186249   5.933   6.728   0.767
28669WAT     H286250   6.044   6.848   0.767
28670WAT      O86251   2.322   5.281   4.832
28670WAT     H186252   2.308   5.248   4.738
28670WAT     H286253   2.280   5.371   4.843
28671WAT      O86254   7.247   3.429   8.352
28671WAT     H186255   7.289   3.494   8.415
28671WAT     H286256   7.297   3.342   8.357
28672WAT      O86257   2.068   6.332   0.226
28672WAT     H186258   2.118   6.318   0.141
28672WAT     H286259   2.124   6.387   0.289
28673WAT      O86260   0.918   3.028   6.562
28673WAT     H186261   0.882   3.007   6.471
28673WAT     H286262   0.850   3.003   6.631
28674WAT      O86263   2.519   4.417   9.244
28674WAT     H186264   2.445   4.391   9.181
28674WAT     H286265   2.606   4.417   9.194
28675WAT      O86266   0.691   1.471   0.813
28675WAT     H186267   0.790   1.489   0.809
28675WAT     H286268   0.676   1.377   0.841
28676WAT      O86269   0.750   2.976   3.783
28676WAT     H186270   0.768   3.041   3.709
28676WAT     H286271   0.825   2.910   3.788
28677WAT      O86272   1.738   4.184   4.468
28677WAT     H186273   1.782   4.103   4.507
28677WAT     H286274   1.669   4.218   4.531
28678WAT      O86275   0.928   1.578   0.459
28678WAT     H186276   0.844   1.559   0.509
28678WAT     H286277   0.938   1.677   0.446
28679WAT      O86278   7.059   9.479   5.087
28679WAT     H186279   6.986   9.544   5.066
28679WAT     H286280   7.119   9.468   5.008
28680WAT      O86281   1.032   6.405   2.807
28680WAT     H186282   1.106   6.393   2.873
28680WAT     H286283   1.066   6.384   2.715
28681WAT      O86284   6.702   0.464   4.443
28681WAT     H186285   6.741   0.481   4.353
28681WAT     H286286   6.678   0.367   4.452
28682WAT      O86287   3.573   1.092   1.876
28682WAT     H186288   3.629   1.013   1.900
28682WAT     H286289   3.525   1.124   1.958
28683WAT      O86290   7.908   3.484   4.905
28683WAT     H186291   7.830   3.421   4.897
28683WAT     H286292   7.915   3.538   4.821
28684WAT      O86293   7.177   2.224   2.755
28684WAT     H186294   7.200   2.163   2.679
28684WAT     H286295   7.260   2.271   2.786
28685WAT      O86296   7.162   3.779   6.701
28685WAT     H186297   7.166   3.692   6.751
28685WAT     H286298   7.084   3.777   6.638
28686WAT      O86299   5.847   7.588   3.120
28686WAT     H186300   5.873   7.493   3.103
28686WAT     H286301   5.783   7.618   3.049
28687WAT      O86302   6.297   0.071   9.765
28687WAT     H186303   6.393   0.044   9.774
28687WAT     H286304   6.280   0.105   9.673
28688WAT      O86305   7.157   3.254   7.075
28688WAT     H186306   7.070   3.219   7.041
28688WAT     H286307   7.145   3.288   7.169
28689WAT      O86308   1.725   9.707   7.486
28689WAT     H186309   1.628   9.683   7.478
28689WAT     H286310   1.776   9.629   7.521
28690WAT      O86311   8.896   2.319   5.193
28690WAT     H186312   8.839   2.268   5.128
28690WAT     H286313   8.954   2.383   5.144
28691WAT      O86314   8.041   6.852   9.286
28691WAT     H186315   8.132   6.811   9.290
28691WAT     H286316   8.051   6.952   9.283
28692WAT      O86317   6.616   2.734   9.606
28692WAT     H186318   6.682   2.778   9.546
28692WAT     H286319   6.659   2.716   9.695
28693WAT      O86320   6.390   5.856   0.103
28693WAT     H186321   6.336   5.926   0.151
28693WAT     H286322   6.470   5.833   0.158
28694WAT      O86323   5.448   2.114   7.733
28694WAT     H186324   5.455   2.211   7.756
28694WAT     H286325   5.509   2.061   7.793
28695WAT      O86326   7.139   3.193   0.525
28695WAT     H186327   7.192   3.144   0.456
28695WAT     H286328   7.181   3.181   0.615
28696WAT      O86329   2.022   5.547   9.489
28696WAT     H186330   2.089   5.559   9.562
28696WAT     H286331   2.000   5.450   9.479
28697WAT      O86332   4.291   2.248   9.287
28697WAT     H186333   4.307   2.280   9.381
28697WAT     H286334   4.242   2.319   9.236
28698WAT      O86335   1.987   9.703   5.202
28698WAT     H186336   2.028   9.688   5.292
28698WAT     H286337   2.005   9.624   5.143
28699WAT      O86338   3.313   9.454   5.081
28699WAT     H186339   3.401   9.430   5.040
28699WAT     H286340   3.307   9.417   5.173
28700WAT      O86341   6.816   5.195   2.746
28700WAT     H186342   6.729   5.176   2.702
28700WAT     H286343   6.858   5.276   2.703
28701WAT      O86344   8.309   0.242   0.504
28701WAT     H186345   8.368   0.180   0.556
28701WAT     H286346   8.365   0.313   0.461
28702WAT      O86347   3.592   5.548   8.384
28702WAT     H186348   3.552   5.471   8.436
28702WAT     H286349   3.545   5.557   8.297
28703WAT      O86350   5.569   5.077   0.677
28703WAT     H186351   5.542   5.172   0.696
28703WAT     H286352   5.507   5.039   0.608
28704WAT      O86353   4.949   0.659   9.364
28704WAT     H186354   5.003   0.641   9.446
28704WAT     H286355   4.980   0.599   9.290
28705WAT      O86356   8.035   4.980   5.330
28705WAT     H186357   8.000   4.948   5.418
28705WAT     H286358   7.994   4.925   5.256
28706WAT      O86359   0.332   5.616   0.355
28706WAT     H186360   0.366   5.570   0.274
28706WAT     H286361   0.357   5.564   0.437
28707WAT      O86362   0.922   9.693   0.307
28707WAT     H186363   0.957   9.666   0.397
28707WAT     H286364   0.829   9.729   0.317
28708WAT      O86365   3.602   2.912   2.348
28708WAT     H186366   3.612   2.979   2.275
28708WAT     H286367   3.641   2.950   2.432
28709WAT      O86368   4.416   8.296   7.942
28709WAT     H186369   4.320   8.274   7.923
28709WAT     H286370   4.430   8.394   7.933
28710WAT      O86371   3.954   4.386   3.407
28710WAT     H186372   4.044   4.420   3.433
28710WAT     H286373   3.884   4.449   3.439
28711WAT      O86374   3.456   4.577   6.150
28711WAT     H186375   3.420   4.666   6.179
28711WAT     H286376   3.555   4.584   6.138
28712WAT      O86377   0.108   1.859   7.125
28712WAT     H186378   0.076   1.895   7.038
28712WAT     H286379   0.030   1.849   7.188
28713WAT      O86380   0.351   7.702   1.457
28713WAT     H186381   0.295   7.768   1.507
28713WAT     H286382   0.447   7.718   1.478
28714WAT      O86383   9.701   6.388   5.763
28714WAT     H186384   9.792   6.406   5.727
28714WAT     H286385   9.706   6.321   5.836
28715WAT      O86386   6.951   1.680   3.828
28715WAT     H186387   6.957   1.617   3.750
28715WAT     H286388   6.997   1.766   3.805
28716WAT      O86389   5.714   8.670   3.704
28716WAT     H186390   5.704   8.677   3.803
28716WAT     H286391   5.632   8.706   3.659
28717WAT      O86392   7.621   1.237   4.109
28717WAT     H186393   7.594   1.227   4.205
28717WAT     H286394   7.594   1.327   4.076
28718WAT      O86395   9.269   1.226   6.848
28718WAT     H186396   9.208   1.148   6.853
28718WAT     H286397   9.250   1.288   6.924
28719WAT      O86398   4.939   2.121   3.558
28719WAT     H186399   4.914   2.025   3.540
28719WAT     H286400   5.038   2.131   3.553
28720WAT      O86401   8.002   9.244   3.410
28720WAT     H186402   7.994   9.285   3.501
28720WAT     H286403   8.063   9.299   3.354
28721WAT      O86404   6.371   7.135   7.133
28721WAT     H186405   6.341   7.047   7.096
28721WAT     H286406   6.327   7.150   7.222
28722WAT      O86407   5.640   2.870   4.378
28722WAT     H186408   5.590   2.910   4.301
28722WAT     H286409   5.574   2.837   4.446
28723WAT      O86410   3.763   0.368   0.140
28723WAT     H186411   3.668   0.361   0.169
28723WAT     H286412   3.812   0.286   0.166
28724WAT      O86413   4.605   3.073   6.900
28724WAT     H186414   4.534   3.142   6.909
28724WAT     H286415   4.629   3.063   6.803
28725WAT      O86416   3.551   1.757   8.841
28725WAT     H186417   3.638   1.731   8.801
28725WAT     H286418   3.566   1.793   8.933
28726WAT      O86419   3.005   8.341   4.107
28726WAT     H186420   2.922   8.379   4.064
28726WAT     H286421   2.979   8.290   4.189
28727WAT      O86422   6.317   4.417   4.875
28727WAT     H186423   6.367   4.421   4.961
28727WAT     H286424   6.312   4.323   4.843
28728WAT      O86425   6.141   0.180   0.708
28728WAT     H186426   6.168   0.238   0.785
28728WAT     H286427   6.162   0.085   0.730
28729WAT      O86428   0.151   3.618   2.253
28729WAT     H186429   0.197   3.561   2.185
28729WAT     H286430   0.133   3.565   2.335
28730WAT      O86431   1.590   9.488   9.335
28730WAT     H186432   1.612   9.430   9.256
28730WAT     H286433   1.579   9.431   9.416
28731WAT      O86434   1.682   2.401   3.898
28731WAT     H186435   1.653   2.315   3.939
28731WAT     H286436   1.611   2.434   3.836
28732WAT      O86437   1.609   7.027   5.954
28732WAT     H186438   1.563   7.111   5.984
28732WAT     H286439   1.707   7.035   5.970
28733WAT      O86440   9.058   1.880   5.100
28733WAT     H186441   9.072   1.975   5.074
28733WAT     H286442   9.147   1.835   5.112
28734WAT      O86443   1.552   7.044   8.146
28734WAT     H186444   1.629   7.027   8.086
28734WAT     H286445   1.519   7.137   8.132
28735WAT      O86446   9.163   3.469   1.783
28735WAT     H186447   9.162   3.446   1.880
28735WAT     H286448   9.074   3.507   1.757
28736WAT      O86449   1.702   1.071   7.548
28736WAT     H186450   1.610   1.104   7.571
28736WAT     H286451   1.714   0.979   7.585
28737WAT      O86452   8.781   5.859   9.113
28737WAT     H186453   8.756   5.848   9.210
28737WAT     H286454   8.819   5.950   9.098
28738WAT      O86455   0.065   1.803   8.651
28738WAT     H186456   0.163   1.801   8.629
28738WAT     H286457   0.034   1.709   8.667
28739WAT      O86458   7.355   2.033   1.183
28739WAT     H186459   7.446   2.034   1.226
28739WAT     H286460   7.335   1.941   1.150
28740WAT      O86461   0.369   2.228   4.427
28740WAT     H186462   0.402   2.140   4.392
28740WAT     H286463   0.447   2.286   4.450
28741WAT      O86464   1.239   4.564   1.658
28741WAT     H186465   1.297   4.598   1.732
28741WAT     H286466   1.296   4.520   1.589
28742WAT      O86467   7.041   3.750   8.359
28742WAT     H186468   6.943   3.737   8.371
28742WAT     H286469   7.089   3.722   8.442
28743WAT      O86470   5.754   5.983   0.461
28743WAT     H186471   5.729   5.924   0.385
28743WAT     H286472   5.712   5.949   0.545
28744WAT      O86473   0.777   3.771   9.324
28744WAT     H186474   0.743   3.684   9.360
28744WAT     H286475   0.877   3.768   9.321
28745WAT      O86476   6.625   3.849   2.966
28745WAT     H186477   6.621   3.750   2.953
28745WAT     H286478   6.538   3.883   3.002
28746WAT      O86479   3.181   2.306   9.002
28746WAT     H186480   3.205   2.314   8.905
28746WAT     H286481   3.244   2.243   9.047
28747WAT      O86482   5.886   1.669   5.206
28747WAT     H186483   5.787   1.657   5.208
28747WAT     H286484   5.919   1.661   5.112
28748WAT      O86485   3.383   0.745   6.823
28748WAT     H186486   3.331   0.662   6.846
28748WAT     H286487   3.452   0.762   6.893
28749WAT      O86488   1.605   2.197   8.962
28749WAT     H186489   1.512   2.190   8.927
28749WAT     H286490   1.606   2.257   9.042
28750WAT      O86491   4.085   6.537   4.885
28750WAT     H186492   4.083   6.634   4.909
28750WAT     H286493   4.139   6.524   4.802
28751WAT      O86494   5.222   8.300   8.684
28751WAT     H186495   5.141   8.357   8.696
28751WAT     H286496   5.204   8.209   8.722
28752WAT      O86497   5.989   7.148   7.093
28752WAT     H186498   6.029   7.238   7.076
28752WAT     H286499   5.987   7.095   7.008
28753WAT      O86500   2.485   5.533   0.893
28753WAT     H186501   2.463   5.461   0.827
28753WAT     H286502   2.542   5.496   0.966
28754WAT      O86503   1.358   5.248   1.068
28754WAT     H186504   1.448   5.285   1.087
28754WAT     H286505   1.288   5.307   1.107
28755WAT      O86506   1.184   3.950   3.387
28755WAT     H186507   1.088   3.925   3.397
28755WAT     H286508   1.230   3.886   3.325
28756WAT      O86509   4.546   6.958   5.084
28756WAT     H186510   4.462   6.952   5.138
28756WAT     H286511   4.529   7.012   5.002
28757WAT      O86512   9.113   5.370   1.304
28757WAT     H186513   9.101   5.415   1.216
28757WAT     H286514   9.044   5.402   1.369
28758WAT      O86515   3.713   2.976   3.394
28758WAT     H186516   3.683   3.045   3.328
28758WAT     H286517   3.653   2.978   3.474
28759WAT      O86518   3.277   3.508   7.762
28759WAT     H186519   3.287   3.497   7.861
28759WAT     H286520   3.306   3.600   7.736
28760WAT      O86521   4.014   7.502   0.573
28760WAT     H186522   4.100   7.456   0.553
28760WAT     H286523   4.015   7.536   0.667
28761WAT      O86524   3.314   6.884   0.263
28761WAT     H186525   3.392   6.845   0.214
28761WAT     H286526   3.237   6.820   0.259
28762WAT      O86527   0.466   1.400   2.108
28762WAT     H186528   0.370   1.390   2.134
28762WAT     H286529   0.517   1.443   2.183
28763WAT      O86530   7.543   2.434   1.525
28763WAT     H186531   7.614   2.504   1.533
28763WAT     H286532   7.465   2.458   1.583
28764WAT      O86533   9.412   6.594   5.991
28764WAT     H186534   9.348   6.668   6.005
28764WAT     H286535   9.457   6.571   6.077
28765WAT      O86536   8.731   6.302   6.754
28765WAT     H186537   8.701   6.392   6.723
28765WAT     H286538   8.674   6.231   6.712
28766WAT      O86539   9.063   6.725   1.764
28766WAT     H186540   9.151   6.692   1.797
28766WAT     H286541   9.039   6.810   1.811
28767WAT      O86542   9.751   1.283   7.831
28767WAT     H186543   9.674   1.311   7.889
28767WAT     H286544   9.834   1.280   7.886
28768WAT      O86545   9.781   8.548   5.182
28768WAT     H186546   9.707   8.587   5.127
28768WAT     H286547   9.835   8.485   5.125
28769WAT      O86548   2.881   6.138   7.890
28769WAT     H186549   2.937   6.059   7.864
28769WAT     H286550   2.876   6.202   7.814
28770WAT      O86551   8.604   4.638   7.685
28770WAT     H186552   8.656   4.583   7.751
28770WAT     H286553   8.659   4.653   7.603
28771WAT      O86554   1.742   4.791   9.768
28771WAT     H186555   1.808   4.732   9.722
28771WAT     H286556   1.747   4.883   9.729
28772WAT      O86557   2.477   7.782   9.424
28772WAT     H186558   2.550   7.715   9.407
28772WAT     H286559   2.470   7.800   9.522
28773WAT      O86560   4.091   7.625   2.082
28773WAT     H186561   4.188   7.649   2.085
28773WAT     H286562   4.061   7.619   1.987
28774WAT      O86563   0.423   2.777   5.986
28774WAT     H186564   0.449   2.855   6.042
28774WAT     H286565   0.488   2.767   5.911
28775WAT      O86566   8.814   2.032   7.306
28775WAT     H186567   8.832   2.130   7.292
28775WAT     H286568   8.761   1.997   7.229
28776WAT      O86569   6.100   1.991   4.491
28776WAT     H186570   6.024   2.050   4.464
28776WAT     H286571   6.090   1.965   4.587
28777WAT      O86572   1.482   9.813   2.755
28777WAT     H186573   1.415   9.762   2.701
28777WAT     H286574   1.433   9.872   2.820
28778WAT      O86575   6.226   3.524   2.776
28778WAT     H186576   6.288   3.446   2.790
28778WAT     H286577   6.172   3.538   2.858
28779WAT      O86578   7.916   2.523   3.610
28779WAT     H186579   7.917   2.623   3.616
28779WAT     H286580   7.827   2.488   3.641
28780WAT      O86581   3.147   8.697   2.544
28780WAT     H186582   3.115   8.771   2.485
28780WAT     H286583   3.246   8.687   2.535
28781WAT      O86584   8.811   8.150   0.628
28781WAT     H186585   8.788   8.245   0.648
28781WAT     H286586   8.729   8.101   0.600
28782WAT      O86587   8.374   7.199   4.324
28782WAT     H186588   8.409   7.162   4.238
28782WAT     H286589   8.408   7.145   4.401
28783WAT      O86590   8.165   9.263   0.277
28783WAT     H186591   8.186   9.286   0.182
28783WAT     H286592   8.248   9.230   0.323
28784WAT      O86593   4.261   1.268   2.704
28784WAT     H186594   4.165   1.291   2.692
28784WAT     H286595   4.297   1.229   2.619
28785WAT      O86596   2.948   9.318   8.038
28785WAT     H186597   3.042   9.286   8.036
28785WAT     H286598   2.946   9.417   8.033
28786WAT      O86599   7.848   9.397   2.276
28786WAT     H186600   7.777   9.382   2.345
28786WAT     H286601   7.873   9.494   2.274
28787WAT      O86602   1.333   5.675   9.199
28787WAT     H186603   1.247   5.628   9.217
28787WAT     H286604   1.384   5.625   9.129
28788WAT      O86605   0.325   2.781   6.421
28788WAT     H186606   0.362   2.733   6.341
28788WAT     H286607   0.396   2.789   6.491
28789WAT      O86608   6.538   6.625   4.030
28789WAT     H186609   6.577   6.660   4.115
28789WAT     H286610   6.491   6.698   3.981
28790WAT      O86611   3.022   1.350   4.428
28790WAT     H186612   3.034   1.439   4.385
28790WAT     H286613   2.998   1.362   4.525
28791WAT      O86614   9.575   3.267   0.541
28791WAT     H186615   9.655   3.291   0.485
28791WAT     H286616   9.586   3.304   0.633
28792WAT      O86617   0.319   6.775   5.131
28792WAT     H186618   0.256   6.736   5.064
28792WAT     H286619   0.355   6.862   5.097
28793WAT      O86620   8.571   5.512   2.729
28793WAT     H186621   8.500   5.500   2.799
28793WAT     H286622   8.657   5.537   2.774
28794WAT      O86623   1.475   5.707   0.652
28794WAT     H186624   1.449   5.803   0.642
28794WAT     H286625   1.458   5.678   0.746
28795WAT      O86626   8.647   3.482   8.375
28795WAT     H186627   8.598   3.398   8.399
28795WAT     H286628   8.641   3.497   8.276
28796WAT      O86629   8.381   7.465   4.038
28796WAT     H186630   8.321   7.437   4.113
28796WAT     H286631   8.436   7.387   4.009
28797WAT      O86632   3.235   1.189   3.791
28797WAT     H186633   3.303   1.210   3.722
28797WAT     H286634   3.147   1.227   3.764
28798WAT      O86635   2.479   9.662   0.154
28798WAT     H186636   2.402   9.607   0.188
28798WAT     H286637   2.492   9.741   0.214
28799WAT      O86638   4.865   2.706   4.906
28799WAT     H186639   4.810   2.637   4.860
28799WAT     H286640   4.873   2.684   5.003
28800WAT      O86641   2.821   0.541   9.274
28800WAT     H186642   2.880   0.606   9.322
28800WAT     H286643   2.742   0.588   9.235
28801WAT      O86644   1.222   2.299   4.586
28801WAT     H186645   1.253   2.309   4.492
28801WAT     H286646   1.248   2.381   4.638
28802WAT      O86647   6.079   3.272   7.138
28802WAT     H186648   6.097   3.270   7.039
28802WAT     H286649   6.089   3.365   7.172
28803WAT      O86650   3.993   6.025   3.298
28803WAT     H186651   3.899   6.055   3.278
28803WAT     H286652   4.004   5.930   3.270
28804WAT      O86653   3.667   9.218   6.874
28804WAT     H186654   3.591   9.282   6.886
28804WAT     H286655   3.739   9.240   6.940
28805WAT      O86656   0.151   1.425   6.608
28805WAT     H186657   0.106   1.478   6.537
28805WAT     H286658   0.248   1.416   6.587
28806WAT      O86659   9.031   6.889   1.385
28806WAT     H186660   8.962   6.885   1.312
28806WAT     H286661   8.997   6.946   1.460
28807WAT      O86662   5.726   1.811   2.478
28807WAT     H186663   5.737   1.784   2.383
28807WAT     H286664   5.763   1.740   2.538
28808WAT      O86665   6.351   0.370   6.841
28808WAT     H186666   6.392   0.396   6.754
28808WAT     H286667   6.356   0.271   6.852
28809WAT      O86668   4.609   2.101   8.382
28809WAT     H186669   4.668   2.022   8.399
28809WAT     H286670   4.652   2.184   8.416
28810WAT      O86671   6.653   1.140   1.485
28810WAT     H186672   6.567   1.161   1.439
28810WAT     H286673   6.640   1.143   1.584
28811WAT      O86674   1.466   6.579   6.991
28811WAT     H186675   1.523   6.536   6.921
28811WAT     H286676   1.456   6.517   7.069
28812WAT      O86677   5.282   7.297   9.159
28812WAT     H186678   5.241   7.314   9.069
28812WAT     H286679   5.331   7.209   9.156
28813WAT      O86680   9.414   2.768   4.330
28813WAT     H186681   9.439   2.862   4.354
28813WAT     H286682   9.368   2.768   4.241
28814WAT      O86683   2.935   1.561   8.938
28814WAT     H186684   3.026   1.599   8.954
28814WAT     H286685   2.867   1.614   8.990
28815WAT      O86686   4.993   8.457   1.460
28815WAT     H186687   4.936   8.410   1.527
28815WAT     H286688   5.086   8.469   1.497
28816WAT      O86689   4.078   5.459   8.718
28816WAT     H186690   4.161   5.512   8.699
28816WAT     H286691   4.036   5.431   8.632
28817WAT      O86692   7.050   9.059   5.965
28817WAT     H186693   6.984   9.117   6.013
28817WAT     H286694   7.135   9.056   6.017
28818WAT      O86695   3.034   6.032   2.332
28818WAT     H186696   2.953   5.981   2.362
28818WAT     H286697   3.115   5.975   2.345
28819WAT      O86698   6.533   7.314   9.536
28819WAT     H186699   6.472   7.248   9.580
28819WAT     H286700   6.612   7.266   9.498
28820WAT      O86701   7.239   5.578   0.000
28820WAT     H186702   7.242   5.634   0.083
28820WAT     H286703   7.312   5.510   0.004
28821WAT      O86704   1.989   6.994   1.014
28821WAT     H186705   2.063   7.061   1.008
28821WAT     H286706   2.006   6.932   1.091
28822WAT      O86707   2.422   5.982   8.523
28822WAT     H186708   2.395   6.072   8.489
28822WAT     H286709   2.473   5.933   8.452
28823WAT      O86710   2.175   4.472   4.177
28823WAT     H186711   2.075   4.463   4.170
28823WAT     H286712   2.213   4.390   4.219
28824WAT      O86713   9.234   2.303   5.120
28824WAT     H186714   9.189   2.388   5.146
28824WAT     H286715   9.314   2.324   5.064
28825WAT      O86716   1.406   5.552   6.262
28825WAT     H186717   1.313   5.530   6.293
28825WAT     H286718   1.401   5.599   6.174
28826WAT      O86719   3.315   5.538   3.790
28826WAT     H186720   3.254   5.580   3.722
28826WAT     H286721   3.265   5.467   3.840
28827WAT      O86722   2.008   8.095   1.791
28827WAT     H186723   1.910   8.105   1.809
28827WAT     H286724   2.055   8.179   1.817
28828WAT      O86725   1.621   5.362   5.280
28828WAT     H186726   1.713   5.388   5.309
28828WAT     H286727   1.627   5.297   5.204
28829WAT      O86728   3.394   7.447   3.059
28829WAT     H186729   3.413   7.527   3.002
28829WAT     H286730   3.322   7.393   3.017
28830WAT      O86731   4.062   5.291   0.317
28830WAT     H186732   4.057   5.194   0.344
28830WAT     H286733   4.150   5.309   0.275
28831WAT      O86734   3.169   9.559   6.639
28831WAT     H186735   3.215   9.601   6.561
28831WAT     H286736   3.211   9.592   6.724
28832WAT      O86737   4.082   1.986   2.145
28832WAT     H186738   4.122   1.907   2.192
28832WAT     H286739   4.021   2.035   2.207
28833WAT      O86740   0.439   3.491   2.795
28833WAT     H186741   0.487   3.576   2.771
28833WAT     H286742   0.370   3.471   2.726
28834WAT      O86743   1.417   2.540   0.056
28834WAT     H186744   1.467   2.521  -0.029
28834WAT     H286745   1.328   2.495   0.052
28835WAT      O86746   3.413   0.962   1.155
28835WAT     H186747   3.493   1.020   1.138
28835WAT     H286748   3.332   1.018   1.166
28836WAT      O86749   0.430   8.728   6.877
28836WAT     H186750   0.427   8.671   6.795
28836WAT     H286751   0.340   8.767   6.894
28837WAT      O86752   7.441   3.839   0.791
28837WAT     H186753   7.444   3.903   0.714
28837WAT     H286754   7.351   3.845   0.835
28838WAT      O86755   3.779   8.490   6.067
28838WAT     H186756   3.871   8.526   6.085
28838WAT     H286757   3.716   8.567   6.054
28839WAT      O86758   6.724   0.274   0.257
28839WAT     H186759   6.670   0.346   0.301
28839WAT     H286760   6.767   0.310   0.175
28840WAT      O86761   4.806   9.101   0.550
28840WAT     H186762   4.830   9.197   0.566
28840WAT     H286763   4.717   9.081   0.589
28841WAT      O86764   4.217   3.348   9.463
28841WAT     H186765   4.280   3.409   9.512
28841WAT     H286766   4.123   3.369   9.491
28842WAT      O86767   7.932   2.612   4.580
28842WAT     H186768   7.985   2.697   4.575
28842WAT     H286769   7.884   2.608   4.667
28843WAT      O86770   1.468   9.060   4.421
28843WAT     H186771   1.377   9.051   4.462
28843WAT     H286772   1.474   8.998   4.342
28844WAT      O86773   1.375   4.322   9.804
28844WAT     H186774   1.461   4.356   9.843
28844WAT     H286775   1.387   4.227   9.777
28845WAT      O86776   2.934   8.868   1.767
28845WAT     H186777   2.949   8.909   1.677
28845WAT     H286778   2.950   8.937   1.838
28846WAT      O86779   4.041   3.318   4.147
28846WAT     H186780   4.069   3.345   4.240
28846WAT     H286781   4.118   3.330   4.085
28847WAT      O86782   9.166   6.830   5.351
28847WAT     H186783   9.137   6.742   5.391
28847WAT     H286784   9.249   6.817   5.298
28848WAT      O86785   5.707   2.084   5.813
28848WAT     H186786   5.729   2.156   5.879
28848WAT     H286787   5.653   2.013   5.858
28849WAT      O86788   3.444   7.914   6.004
28849WAT     H186789   3.498   7.972   6.066
28849WAT     H286790   3.439   7.822   6.042
28850WAT      O86791   5.887   3.163   3.747
28850WAT     H186792   5.898   3.106   3.666
28850WAT     H286793   5.816   3.232   3.730
28851WAT      O86794   6.269   4.732   0.042
28851WAT     H186795   6.218   4.798  -0.014
28851WAT     H286796   6.206   4.674   0.092
28852WAT      O86797   2.025   5.483   2.157
28852WAT     H186798   2.069   5.568   2.127
28852WAT     H286799   2.094   5.412   2.166
28853WAT      O86800   8.427   3.342   2.640
28853WAT     H186801   8.523   3.317   2.627
28853WAT     H286802   8.418   3.442   2.638
28854WAT      O86803   0.391   6.086   1.604
28854WAT     H186804   0.454   6.107   1.530
28854WAT     H286805   0.331   6.011   1.577
28855WAT      O86806   3.028   3.863   5.631
28855WAT     H186807   3.093   3.843   5.558
28855WAT     H286808   2.984   3.779   5.661
28856WAT      O86809   1.507   2.444   4.385
28856WAT     H186810   1.555   2.449   4.473
28856WAT     H286811   1.566   2.480   4.313
28857WAT      O86812   4.498   9.733   5.872
28857WAT     H186813   4.437   9.778   5.937
28857WAT     H286814   4.529   9.646   5.910
28858WAT      O86815   8.292   9.758   1.620
28858WAT     H186816   8.239   9.744   1.704
28858WAT     H286817   8.309   9.856   1.608
28859WAT      O86818   7.506   2.369   1.885
28859WAT     H186819   7.541   2.452   1.841
28859WAT     H286820   7.573   2.296   1.874
28860WAT      O86821   8.112   4.246   0.428
28860WAT     H186822   8.211   4.260   0.419
28860WAT     H286823   8.064   4.330   0.401
28861WAT      O86824   1.535   7.033   5.077
28861WAT     H186825   1.530   7.080   5.166
28861WAT     H286826   1.460   7.063   5.019
28862WAT      O86827   1.060   3.555   7.908
28862WAT     H186828   1.108   3.509   7.983
28862WAT     H286829   1.024   3.487   7.844
28863WAT      O86830   5.999   7.185   8.860
28863WAT     H186831   5.970   7.252   8.928
28863WAT     H286832   6.092   7.207   8.830
28864WAT      O86833   2.029   4.163   2.015
28864WAT     H186834   2.106   4.207   2.061
28864WAT     H286835   2.043   4.167   1.916
28865WAT      O86836   7.351   5.433   0.445
28865WAT     H186837   7.312   5.342   0.430
28865WAT     H286838   7.277   5.498   0.464
28866WAT      O86839   1.975   3.655   5.791
28866WAT     H186840   1.984   3.600   5.708
28866WAT     H286841   1.999   3.599   5.871
28867WAT      O86842   0.035   9.809   4.361
28867WAT     H186843   0.079   9.729   4.401
28867WAT     H286844  -0.062   9.791   4.347
28868WAT      O86845   4.546   6.584   4.971
28868WAT     H186846   4.462   6.632   4.944
28868WAT     H286847   4.578   6.619   5.059
28869WAT      O86848   4.576   9.534   7.948
28869WAT     H186849   4.481   9.505   7.961
28869WAT     H286850   4.632   9.455   7.926
28870WAT      O86851   7.874   2.446   7.347
28870WAT     H186852   7.820   2.364   7.367
28870WAT     H286853   7.929   2.469   7.427
28871WAT      O86854   6.290   6.587   7.791
28871WAT     H186855   6.352   6.572   7.713
28871WAT     H286856   6.282   6.685   7.808
28872WAT      O86857   3.258   5.196   8.678
28872WAT     H186858   3.255   5.158   8.586
28872WAT     H286859   3.302   5.130   8.740
28873WAT      O86860   5.561   6.955   4.861
28873WAT     H186861   5.502   6.890   4.909
28873WAT     H286862   5.511   7.041   4.847
28874WAT      O86863   8.477   5.572   6.743
28874WAT     H186864   8.393   5.575   6.690
28874WAT     H286865   8.526   5.487   6.724
28875WAT      O86866   7.471   7.207   4.769
28875WAT     H186867   7.541   7.234   4.836
28875WAT     H286868   7.380   7.232   4.805
28876WAT      O86869   1.468   7.832   3.498
28876WAT     H186870   1.402   7.907   3.498
28876WAT     H286871   1.419   7.745   3.504
28877WAT      O86872   9.165   0.470   7.735
28877WAT     H186873   9.153   0.431   7.644
28877WAT     H286874   9.248   0.434   7.777
28878WAT      O86875   2.366   6.214   8.371
28878WAT     H186876   2.400   6.308   8.370
28878WAT     H286877   2.267   6.215   8.380
28879WAT      O86878   3.100   0.686   8.936
28879WAT     H186879   3.165   0.762   8.943
28879WAT     H286880   3.095   0.655   8.841
28880WAT      O86881   5.744   7.265   1.619
28880WAT     H186882   5.746   7.211   1.535
28880WAT     H286883   5.795   7.350   1.605
28881WAT      O86884   0.472   5.046   6.977
28881WAT     H186885   0.556   4.995   6.960
28881WAT     H286886   0.444   5.092   6.892
28882WAT      O86887   8.125   0.849   3.558
28882WAT     H186888   8.076   0.767   3.587
28882WAT     H286889   8.188   0.877   3.630
28883WAT      O86890   6.203   6.679   5.823
28883WAT     H186891   6.181   6.729   5.907
28883WAT     H286892   6.138   6.703   5.751
28884WAT      O86893   8.278   6.857   5.880
28884WAT     H186894   8.218   6.862   5.960
28884WAT     H286895   8.360   6.805   5.903
28885WAT      O86896   7.867   6.785   5.031
28885WAT     H186897   7.829   6.706   4.983
28885WAT     H286898   7.881   6.860   4.965
28886WAT      O86899   8.008   9.763   3.692
28886WAT     H186900   7.981   9.687   3.633
28886WAT     H286901   7.932   9.786   3.753
28887WAT      O86902   0.772   5.066   7.784
28887WAT     H186903   0.765   5.127   7.705
28887WAT     H286904   0.812   5.115   7.861
28888WAT      O86905   8.919   8.752   1.511
28888WAT     H186906   8.892   8.847   1.495
28888WAT     H286907   8.982   8.724   1.439
28889WAT      O86908   3.026   2.693   6.167
28889WAT     H186909   2.977   2.752   6.232
28889WAT     H286910   3.113   2.736   6.143
28890WAT      O86911   8.090   6.808   8.738
28890WAT     H186912   8.167   6.799   8.801
28890WAT     H286913   8.044   6.719   8.729
28891WAT      O86914   8.486   7.431   4.723
28891WAT     H186915   8.470   7.364   4.795
28891WAT     H286916   8.473   7.523   4.760
28892WAT      O86917   1.185   7.410   7.828
28892WAT     H186918   1.102   7.354   7.826
28892WAT     H286919   1.238   7.394   7.745
28893WAT      O86920   5.139   7.738   2.694
28893WAT     H186921   5.213   7.723   2.629
28893WAT     H286922   5.081   7.657   2.700
28894WAT      O86923   4.702   6.303   3.489
28894WAT     H186924   4.614   6.277   3.449
28894WAT     H286925   4.696   6.395   3.527
28895WAT      O86926   0.276   4.430   0.500
28895WAT     H186927   0.183   4.418   0.466
28895WAT     H286928   0.296   4.528   0.509
28896WAT      O86929   3.604   7.049   8.200
28896WAT     H186930   3.542   7.127   8.196
28896WAT     H286931   3.552   6.966   8.220
28897WAT      O86932   8.137   6.048   1.107
28897WAT     H186933   8.219   6.004   1.071
28897WAT     H286934   8.113   6.127   1.052
28898WAT      O86935   5.364   8.214   6.561
28898WAT     H186936   5.350   8.130   6.509
28898WAT     H286937   5.395   8.287   6.499
28899WAT      O86938   0.515   0.103   5.041
28899WAT     H186939   0.602   0.055   5.050
28899WAT     H286940   0.530   0.202   5.050
28900WAT      O86941   6.513   9.106   9.652
28900WAT     H186942   6.600   9.057   9.647
28900WAT     H286943   6.526   9.191   9.703
28901WAT      O86944   7.099   5.920   2.766
28901WAT     H186945   7.140   5.982   2.699
28901WAT     H286946   7.051   5.972   2.836
28902WAT      O86947   5.353   3.435   7.800
28902WAT     H186948   5.334   3.507   7.867
28902WAT     H286949   5.399   3.359   7.845
28903WAT      O86950   6.279   7.057   5.325
28903WAT     H186951   6.295   7.073   5.227
28903WAT     H286952   6.196   7.106   5.353
28904WAT      O86953   7.369   6.479   1.920
28904WAT     H186954   7.367   6.535   2.003
28904WAT     H286955   7.339   6.386   1.943
28905WAT      O86956   1.048   2.107   1.303
28905WAT     H186957   0.980   2.056   1.250
28905WAT     H286958   1.007   2.191   1.338
28906WAT      O86959   5.781   5.226   4.749
28906WAT     H186960   5.753   5.287   4.824
28906WAT     H286961   5.784   5.278   4.663
28907WAT      O86962   5.596   8.955   9.784
28907WAT     H186963   5.525   8.907   9.732
28907WAT     H286964   5.623   8.900   9.863
28908WAT      O86965   7.315   4.684   7.907
28908WAT     H186966   7.263   4.728   7.980
28908WAT     H286967   7.332   4.588   7.932
28909WAT      O86968   7.685   5.611   3.155
28909WAT     H186969   7.687   5.694   3.211
28909WAT     H286970   7.710   5.634   3.061
28910WAT      O86971   4.582   3.775   6.766
28910WAT     H186972   4.533   3.841   6.824
28910WAT     H286973   4.523   3.749   6.689
28911WAT      O86974   6.175   6.437   5.989
28911WAT     H186975   6.165   6.517   5.930
28911WAT     H286976   6.169   6.354   5.934
28912WAT      O86977   5.111   4.926   6.212
28912WAT     H186978   5.097   4.830   6.236
28912WAT     H286979   5.023   4.969   6.194
28913WAT      O86980   3.026   3.744   7.210
28913WAT     H186981   2.983   3.815   7.154
28913WAT     H286982   2.964   3.666   7.218
28914WAT      O86983   3.088   0.553   5.914
28914WAT     H186984   3.128   0.531   5.825
28914WAT     H286985   3.152   0.609   5.967
28915WAT      O86986   1.983   6.805   1.220
28915WAT     H186987   1.942   6.776   1.307
28915WAT     H286988   2.075   6.839   1.237
28916WAT      O86989   7.777   8.142   7.757
28916WAT     H186990   7.767   8.226   7.810
28916WAT     H286991   7.794   8.165   7.661
28917WAT      O86992   6.007   1.156   0.888
28917WAT     H186993   6.015   1.069   0.938
28917WAT     H286994   6.015   1.232   0.953
28918WAT      O86995   2.661   5.919   3.462
28918WAT     H186996   2.665   5.819   3.451
28918WAT     H286997   2.621   5.959   3.380
28919WAT      O86998   9.721   7.196   3.980
28919WAT     H186999   9.806   7.231   4.019
28919WAT     H287000   9.695   7.252   3.901
28920WAT      O87001   9.336   9.808   6.626
28920WAT     H187002   9.386   9.874   6.682
28920WAT     H287003   9.346   9.716   6.665
28921WAT      O87004   9.123   9.013   4.943
28921WAT     H187005   9.052   9.080   4.923
28921WAT     H287006   9.081   8.923   4.954
28922WAT      O87007   0.882   0.132   9.749
28922WAT     H187008   0.807   0.097   9.694
28922WAT     H287009   0.894   0.230   9.731
28923WAT      O87010   0.619   9.096   9.191
28923WAT     H187011   0.559   9.028   9.233
28923WAT     H287012   0.683   9.051   9.129
28924WAT      O87013   6.586   8.953   8.249
28924WAT     H187014   6.515   9.021   8.233
28924WAT     H287015   6.674   8.999   8.258
28925WAT      O87016   5.757   3.448   7.068
28925WAT     H187017   5.769   3.504   6.987
28925WAT     H287018   5.833   3.463   7.131
28926WAT      O87019   3.374   0.820   3.496
28926WAT     H187020   3.468   0.790   3.512
28926WAT     H287021   3.359   0.830   3.397
28927WAT      O87022   6.411   0.931   9.109
28927WAT     H187023   6.396   0.905   9.204
28927WAT     H287024   6.440   0.850   9.056
28928WAT      O87025   5.157   3.560   1.950
28928WAT     H187026   5.150   3.660   1.956
28928WAT     H287027   5.227   3.536   1.883
28929WAT      O87028   9.066   9.816   7.290
28929WAT     H187029   9.070   9.916   7.295
28929WAT     H287030   9.016   9.780   7.369
28930WAT      O87031   3.736   1.737   7.286
28930WAT     H187032   3.731   1.754   7.384
28930WAT     H287033   3.691   1.811   7.237
28931WAT      O87034   1.761   8.287   0.724
28931WAT     H187035   1.698   8.299   0.648
28931WAT     H287036   1.810   8.200   0.714
28932WAT      O87037   6.196   0.153   2.298
28932WAT     H187038   6.167   0.124   2.207
28932WAT     H287039   6.225   0.249   2.295
28933WAT      O87040   4.806   4.210   6.881
28933WAT     H187041   4.822   4.295   6.832
28933WAT     H287042   4.711   4.181   6.868
28934WAT      O87043   7.834   1.593   0.508
28934WAT     H187044   7.898   1.548   0.570
28934WAT     H287045   7.866   1.685   0.488
28935WAT      O87046   6.693   5.749   7.204
28935WAT     H187047   6.761   5.686   7.241
28935WAT     H287048   6.628   5.774   7.276
28936WAT      O87049   5.394   4.265   0.220
28936WAT     H187050   5.396   4.169   0.191
28936WAT     H287051   5.459   4.279   0.294
28937WAT      O87052   0.478   9.741   9.000
28937WAT     H187053   0.404   9.726   9.066
28937WAT     H287054   0.566   9.730   9.047
28938WAT      O87055   9.187   9.082   7.514
28938WAT     H187056   9.240   9.134   7.447
28938WAT     H287057   9.166   9.140   7.592
28939WAT      O87058   7.791   1.655   7.561
28939WAT     H187059   7.873   1.679   7.613
28939WAT     H287060   7.782   1.716   7.483
28940WAT      O87061   6.317   8.604   6.192
28940WAT     H187062   6.369   8.523   6.218
28940WAT     H287063   6.379   8.682   6.181
28941WAT      O87064   1.376   7.506   0.469
28941WAT     H187065   1.405   7.473   0.379
28941WAT     H287066   1.337   7.430   0.521
28942WAT      O87067   6.355   9.755   8.057
28942WAT     H187068   6.307   9.711   8.133
28942WAT     H287069   6.441   9.706   8.038
28943WAT      O87070   9.104   3.868   0.912
28943WAT     H187071   9.102   3.849   0.814
28943WAT     H287072   9.142   3.959   0.928
28944WAT      O87073   4.369   5.951   3.058
28944WAT     H187074   4.364   5.858   3.094
28944WAT     H287075   4.461   5.968   3.022
28945WAT      O87076   6.721   3.677   9.722
28945WAT     H187077   6.632   3.668   9.678
28945WAT     H287078   6.742   3.774   9.735
28946WAT      O87079   5.112   0.991   9.550
28946WAT     H187080   5.114   1.005   9.649
28946WAT     H287081   5.035   0.931   9.526
28947WAT      O87082   4.366   3.135   1.771
28947WAT     H187083   4.314   3.078   1.707
28947WAT     H287084   4.322   3.134   1.860
28948WAT      O87085   4.183   2.063   6.997
28948WAT     H187086   4.216   1.969   7.003
28948WAT     H287087   4.086   2.064   6.975
28949WAT      O87088   0.429   9.406   5.431
28949WAT     H187089   0.434   9.483   5.495
28949WAT     H287090   0.490   9.333   5.462
28950WAT      O87091   2.565   9.065   5.561
28950WAT     H187092   2.631   8.990   5.565
28950WAT     H287093   2.479   9.032   5.525
28951WAT      O87094   2.302   7.545   8.967
28951WAT     H187095   2.234   7.617   8.973
28951WAT     H287096   2.300   7.488   9.049
28952WAT      O87097   2.372   3.307   8.625
28952WAT     H187098   2.386   3.264   8.714
28952WAT     H287099   2.369   3.407   8.636
28953WAT      O87100   7.409   2.595   9.270
28953WAT     H187101   7.451   2.533   9.204
28953WAT     H287102   7.311   2.576   9.278
28954WAT      O87103   8.495   7.416   9.205
28954WAT     H187104   8.397   7.420   9.184
28954WAT     H287105   8.513   7.334   9.259
28955WAT      O87106   9.405   9.653   0.869
28955WAT     H187107   9.475   9.709   0.825
28955WAT     H287108   9.341   9.618   0.800
28956WAT      O87109   4.878   3.126   1.355
28956WAT     H187110   4.841   3.146   1.265
28956WAT     H287111   4.834   3.185   1.423
28957WAT      O87112   5.124   1.008   7.899
28957WAT     H187113   5.097   1.104   7.908
28957WAT     H287114   5.075   0.952   7.965
28958WAT      O87115   5.664   1.570   0.814
28958WAT     H187116   5.635   1.475   0.828
28958WAT     H287117   5.727   1.575   0.736
28959WAT      O87118   2.656   4.138   5.250
28959WAT     H187119   2.718   4.088   5.309
28959WAT     H287120   2.564   4.139   5.291
28960WAT      O87121   0.499   0.174   8.945
28960WAT     H187122   0.499   0.075   8.954
28960WAT     H287123   0.413   0.211   8.980
28961WAT      O87124   3.325   6.923   2.261
28961WAT     H187125   3.336   6.826   2.285
28961WAT     H287126   3.229   6.949   2.272
28962WAT      O87127   4.448   8.282   1.866
28962WAT     H187128   4.502   8.366   1.859
28962WAT     H287129   4.470   8.222   1.789
28963WAT      O87130   5.220   0.533   6.030
28963WAT     H187131   5.131   0.489   6.039
28963WAT     H287132   5.287   0.467   5.996
28964WAT      O87133   9.794   4.607   4.493
28964WAT     H187134   9.721   4.547   4.525
28964WAT     H287135   9.880   4.555   4.488
28965WAT      O87136   4.925   1.757   6.049
28965WAT     H187137   4.958   1.787   6.139
28965WAT     H287138   4.886   1.835   6.000
28966WAT      O87139   9.578   4.382   9.387
28966WAT     H187140   9.539   4.420   9.471
28966WAT     H287141   9.677   4.383   9.392
28967WAT      O87142   3.293   9.288   0.165
28967WAT     H187143   3.375   9.248   0.205
28967WAT     H287144   3.290   9.385   0.185
28968WAT      O87145   4.014   9.716   2.544
28968WAT     H187146   3.944   9.666   2.492
28968WAT     H287147   4.066   9.652   2.600
28969WAT      O87148   7.326   9.236   1.279
28969WAT     H187149   7.310   9.179   1.198
28969WAT     H287150   7.255   9.218   1.347
28970WAT      O87151   4.561   4.464   1.897
28970WAT     H187152   4.531   4.543   1.951
28970WAT     H287153   4.490   4.440   1.831
28971WAT      O87154   2.495   6.461   7.617
28971WAT     H187155   2.409   6.489   7.574
28971WAT     H287156   2.487   6.474   7.716
28972WAT      O87157   8.829   4.402   2.420
28972WAT     H187158   8.918   4.403   2.374
28972WAT     H287159   8.833   4.460   2.501
28973WAT      O87160   8.699   7.855   2.580
28973WAT     H187161   8.782   7.889   2.624
28973WAT     H287162   8.707   7.867   2.481
28974WAT      O87163   8.855   3.590   9.422
28974WAT     H187164   8.842   3.499   9.383
28974WAT     H287165   8.903   3.582   9.510
28975WAT      O87166   3.962   5.489   2.355
28975WAT     H187167   3.886   5.548   2.385
28975WAT     H287168   3.928   5.420   2.292
28976WAT      O87169   1.442   0.119   0.858
28976WAT     H187170   1.360   0.089   0.908
28976WAT     H287171   1.415   0.154   0.769
28977WAT      O87172   5.488   6.103   4.547
28977WAT     H187173   5.432   6.043   4.603
28977WAT     H287174   5.582   6.069   4.545
28978WAT      O87175   0.850   4.339   3.143
28978WAT     H187176   0.841   4.244   3.113
28978WAT     H287177   0.913   4.387   3.083
28979WAT      O87178   7.627   4.441   4.057
28979WAT     H187179   7.703   4.376   4.064
28979WAT     H287180   7.664   4.533   4.041
28980WAT      O87181   1.716   3.522   8.738
28980WAT     H187182   1.728   3.433   8.694
28980WAT     H287183   1.619   3.536   8.758
28981WAT      O87184   8.971   6.129   8.770
28981WAT     H187185   8.962   6.114   8.868
28981WAT     H287186   9.061   6.170   8.751
28982WAT      O87187   5.545   2.222   3.223
28982WAT     H187188   5.601   2.288   3.173
28982WAT     H287189   5.549   2.133   3.177
28983WAT      O87190   7.434   0.098   0.416
28983WAT     H187191   7.339   0.067   0.408
28983WAT     H287192   7.454   0.120   0.512
28984WAT      O87193   4.019   1.271   2.106
28984WAT     H187194   3.924   1.302   2.097
28984WAT     H287195   4.021   1.172   2.119
28985WAT      O87196   5.191   9.032   3.016
28985WAT     H187197   5.206   8.999   3.109
28985WAT     H287198   5.096   9.061   3.006
28986WAT      O87199   9.652   3.776   1.695
28986WAT     H187200   9.732   3.717   1.688
28986WAT     H287201   9.570   3.723   1.675
28987WAT      O87202   6.908   8.035   5.050
28987WAT     H187203   6.820   7.990   5.063
28987WAT     H287204   6.959   7.988   4.977
28988WAT      O87205   7.433   4.924   8.577
28988WAT     H187206   7.532   4.939   8.569
28988WAT     H287207   7.384   4.995   8.525
28989WAT      O87208   9.462   8.632   6.875
28989WAT     H187209   9.369   8.654   6.905
28989WAT     H287210   9.476   8.668   6.783
28990WAT      O87211   3.020   7.120   5.746
28990WAT     H187212   2.963   7.048   5.783
28990WAT     H287213   3.034   7.191   5.815
28991WAT      O87214   5.380   5.003   3.480
28991WAT     H187215   5.462   5.030   3.530
28991WAT     H287216   5.365   4.905   3.491
28992WAT      O87217   6.290   1.765   0.521
28992WAT     H187218   6.259   1.679   0.560
28992WAT     H287219   6.223   1.837   0.541
28993WAT      O87220   9.812   5.278   4.931
28993WAT     H187221   9.813   5.354   4.995
28993WAT     H287222   9.717   5.250   4.915
28994WAT      O87223   5.074   1.131   7.239
28994WAT     H187224   5.033   1.192   7.170
28994WAT     H287225   5.053   1.167   7.331
28995WAT      O87226   2.348   7.135   0.809
28995WAT     H187227   2.275   7.086   0.761
28995WAT     H287228   2.308   7.198   0.875
28996WAT      O87229   9.259   4.584   4.984
28996WAT     H187230   9.348   4.580   4.940
28996WAT     H287231   9.222   4.676   4.975
28997WAT      O87232   9.588   2.762   9.722
28997WAT     H187233   9.547   2.741   9.633
28997WAT     H287234   9.540   2.711   9.793
28998WAT      O87235   8.371   2.401   0.411
28998WAT     H187236   8.460   2.445   0.417
28998WAT     H287237   8.377   2.320   0.353
28999WAT      O87238   5.964   4.687   1.670
28999WAT     H187239   5.934   4.762   1.730
28999WAT     H287240   5.884   4.645   1.626
29000WAT      O87241   4.437   5.877   7.513
29000WAT     H187242   4.342   5.847   7.515
29000WAT     H287243   4.447   5.953   7.448
29001WAT      O87244   6.082   3.107   1.639
29001WAT     H187245   6.008   3.123   1.574
29001WAT     H287246   6.043   3.097   1.731
29002WAT      O87247   9.747   2.427   3.417
29002WAT     H187248   9.700   2.400   3.333
29002WAT     H287249   9.770   2.345   3.469
29003WAT      O87250   1.288   5.915   6.174
29003WAT     H187251   1.368   5.933   6.117
29003WAT     H287252   1.311   5.934   6.270
29004WAT      O87253   4.095   0.216   3.308
29004WAT     H187254   4.060   0.182   3.220
29004WAT     H287255   4.078   0.314   3.314
29005WAT      O87256   9.754   2.475   9.066
29005WAT     H187257   9.827   2.536   9.037
29005WAT     H287258   9.792   2.404   9.126
29006WAT      O87259   8.132   9.413   1.754
29006WAT     H187260   8.103   9.470   1.831
29006WAT     H287261   8.232   9.414   1.747
29007WAT      O87262   6.155   8.710   3.564
29007WAT     H187263   6.227   8.678   3.501
29007WAT     H287264   6.166   8.664   3.652
29008WAT      O87265   6.754   3.482   7.066
29008WAT     H187266   6.671   3.428   7.052
29008WAT     H287267   6.763   3.504   7.164
29009WAT      O87268   8.725   0.654   3.980
29009WAT     H187269   8.679   0.651   3.891
29009WAT     H287270   8.796   0.584   3.983
29010WAT      O87271   3.373   2.769   5.844
29010WAT     H187272   3.317   2.794   5.924
29010WAT     H287273   3.464   2.810   5.853
29011WAT      O87274   6.319   5.379   9.505
29011WAT     H187275   6.221   5.361   9.498
29011WAT     H287276   6.339   5.419   9.595
29012WAT      O87277   2.765   7.394   5.206
29012WAT     H187278   2.713   7.431   5.283
29012WAT     H287279   2.858   7.374   5.236
29013WAT      O87280   9.775   1.768   0.221
29013WAT     H187281   9.796   1.844   0.282
29013WAT     H287282   9.693   1.789   0.168
29014WAT      O87283   6.773   2.547   3.533
29014WAT     H187284   6.683   2.516   3.563
29014WAT     H287285   6.835   2.548   3.611
29015WAT      O87286   3.612   5.884   3.764
29015WAT     H187287   3.683   5.904   3.832
29015WAT     H287288   3.652   5.830   3.690
29016WAT      O87289   6.603   3.543   4.226
29016WAT     H187290   6.661   3.615   4.189
29016WAT     H287291   6.517   3.538   4.175
29017WAT      O87292   4.425   5.759   4.395
29017WAT     H187293   4.463   5.716   4.476
29017WAT     H287294   4.446   5.857   4.395
29018WAT      O87295   0.468   5.644   3.273
29018WAT     H187296   0.481   5.554   3.232
29018WAT     H287297   0.409   5.636   3.353
29019WAT      O87298   8.627   2.742   0.035
29019WAT     H187299   8.548   2.774   0.088
29019WAT     H287300   8.655   2.813  -0.029
29020WAT      O87301   5.565   3.803   8.147
29020WAT     H187302   5.629   3.854   8.090
29020WAT     H287303   5.555   3.710   8.112
29021WAT      O87304   6.049   9.448   3.941
29021WAT     H187305   6.032   9.377   3.873
29021WAT     H287306   6.034   9.538   3.899
29022WAT      O87307   4.593   4.233   0.332
29022WAT     H187308   4.685   4.208   0.303
29022WAT     H287309   4.593   4.253   0.430
29023WAT      O87310   4.902   8.862   8.396
29023WAT     H187311   4.893   8.804   8.315
29023WAT     H287312   4.847   8.944   8.385
29024WAT      O87313   2.611   0.308   0.418
29024WAT     H187314   2.623   0.405   0.399
29024WAT     H287315   2.517   0.292   0.451
29025WAT      O87316   8.412   3.609   5.348
29025WAT     H187317   8.465   3.558   5.416
29025WAT     H287318   8.361   3.683   5.393
29026WAT      O87319   5.299   9.533   1.046
29026WAT     H187320   5.238   9.590   1.101
29026WAT     H287321   5.379   9.508   1.099
29027WAT      O87322   9.838   4.768   0.120
29027WAT     H187323   9.886   4.685   0.093
29027WAT     H287324   9.889   4.816   0.191
29028WAT      O87325   6.279   2.777   0.720
29028WAT     H187326   6.184   2.770   0.687
29028WAT     H287327   6.281   2.764   0.819
29029WAT      O87328   4.963   8.140   0.889
29029WAT     H187329   5.014   8.055   0.905
29029WAT     H287330   4.866   8.120   0.884
29030WAT      O87331   9.450   6.474   4.240
29030WAT     H187332   9.480   6.499   4.332
29030WAT     H287333   9.395   6.548   4.202
29031WAT      O87334   4.414   7.666   5.533
29031WAT     H187335   4.417   7.712   5.622
29031WAT     H287336   4.347   7.711   5.474
29032WAT      O87337   1.671   5.981   3.018
29032WAT     H187338   1.707   5.893   2.985
29032WAT     H287339   1.703   5.996   3.112
29033WAT      O87340   6.093   1.691   9.333
29033WAT     H187341   6.060   1.680   9.239
29033WAT     H287342   6.102   1.601   9.376
29034WAT      O87343   9.185   4.042   4.272
29034WAT     H187344   9.141   4.094   4.199
29034WAT     H287345   9.147   4.069   4.360
29035WAT      O87346   8.450   2.428   0.759
29035WAT     H187347   8.542   2.394   0.737
29035WAT     H287348   8.384   2.354   0.750
29036WAT      O87349   2.920   5.697   3.521
29036WAT     H187350   2.879   5.674   3.610
29036WAT     H287351   2.850   5.688   3.449
29037WAT      O87352   9.154   3.451   6.333
29037WAT     H187353   9.086   3.388   6.371
29037WAT     H287354   9.114   3.542   6.322
29038WAT      O87355   3.556   3.163   9.841
29038WAT     H187356   3.542   3.074   9.798
29038WAT     H287357   3.469   3.195   9.879
29039WAT      O87358   2.914   2.169   5.934
29039WAT     H187359   2.945   2.139   6.024
29039WAT     H287360   2.833   2.227   5.945
29040WAT      O87361   2.106   4.605   3.345
29040WAT     H187362   2.151   4.516   3.344
29040WAT     H287363   2.038   4.609   3.273
29041WAT      O87364   1.742   6.736   0.307
29041WAT     H187365   1.763   6.834   0.307
29041WAT     H287366   1.797   6.690   0.239
29042WAT      O87367   3.254   7.766   6.638
29042WAT     H187368   3.304   7.851   6.651
29042WAT     H287369   3.157   7.781   6.658
29043WAT      O87370   2.684   6.906   3.189
29043WAT     H187371   2.595   6.947   3.170
29043WAT     H287372   2.701   6.908   3.288
29044WAT      O87373   6.178   2.943   9.430
29044WAT     H187374   6.095   2.999   9.420
29044WAT     H287375   6.164   2.855   9.385
29045WAT      O87376   4.117   9.775   6.864
29045WAT     H187377   4.068   9.847   6.912
29045WAT     H287378   4.064   9.746   6.784
29046WAT      O87379   2.298   7.918   7.935
29046WAT     H187380   2.306   7.991   8.003
29046WAT     H287381   2.237   7.846   7.971
29047WAT      O87382   3.631   8.617   7.535
29047WAT     H187383   3.582   8.605   7.449
29047WAT     H287384   3.570   8.595   7.611
29048WAT      O87385   4.769   3.733   8.560
29048WAT     H187386   4.703   3.658   8.551
29048WAT     H287387   4.767   3.789   8.477
29049WAT      O87388   4.542   1.092   1.431
29049WAT     H187389   4.482   1.147   1.490
29049WAT     H287390   4.486   1.043   1.364
29050WAT      O87391   6.838   1.041   7.501
29050WAT     H187392   6.772   1.029   7.427
29050WAT     H287393   6.888   1.127   7.488
29051WAT      O87394   8.134   1.387   3.554
29051WAT     H187395   8.073   1.394   3.476
29051WAT     H287396   8.164   1.478   3.582
29052WAT      O87397   4.450   7.740   6.265
29052WAT     H187398   4.498   7.820   6.301
29052WAT     H287399   4.381   7.770   6.200
29053WAT      O87400   6.759   0.755   9.110
29053WAT     H187401   6.776   0.847   9.145
29053WAT     H287402   6.775   0.688   9.183
29054WAT      O87403   8.740   8.373   1.018
29054WAT     H187404   8.806   8.424   0.964
29054WAT     H287405   8.786   8.334   1.098
29055WAT      O87406   1.824   3.974   7.117
29055WAT     H187407   1.886   4.044   7.080
29055WAT     H287408   1.804   3.996   7.213
29056WAT      O87409   4.805   1.916   8.470
29056WAT     H187410   4.828   1.827   8.429
29056WAT     H287411   4.886   1.953   8.515
29057WAT      O87412   2.281   8.491   0.031
29057WAT     H187413   2.302   8.395   0.049
29057WAT     H287414   2.361   8.536  -0.008
29058WAT      O87415   0.974   0.736   8.576
29058WAT     H187416   1.006   0.683   8.497
29058WAT     H287417   0.969   0.677   8.656
29059WAT      O87418   8.109   8.568   3.682
29059WAT     H187419   8.082   8.511   3.604
29059WAT     H287420   8.190   8.621   3.657
29060WAT      O87421   3.678   3.119   9.534
29060WAT     H187422   3.630   3.142   9.449
29060WAT     H287423   3.774   3.142   9.526
29061WAT      O87424   7.883   7.686   3.589
29061WAT     H187425   7.825   7.614   3.551
29061WAT     H287426   7.970   7.648   3.618
29062WAT      O87427   7.291   1.000   2.162
29062WAT     H187428   7.302   1.083   2.105
29062WAT     H287429   7.375   0.986   2.214
29063WAT      O87430   4.606   1.102   2.429
29063WAT     H187431   4.622   1.016   2.381
29063WAT     H287432   4.672   1.111   2.504
29064WAT      O87433   3.457   5.009   9.862
29064WAT     H187434   3.418   5.093   9.898
29064WAT     H287435   3.495   5.026   9.771
29065WAT      O87436   0.641   7.615   1.014
29065WAT     H187437   0.630   7.533   1.071
29065WAT     H287438   0.624   7.592   0.919
29066WAT      O87439   3.421   3.843   3.046
29066WAT     H187440   3.406   3.916   3.112
29066WAT     H287441   3.445   3.759   3.094
29067WAT      O87442   1.935   0.139   7.082
29067WAT     H187443   1.867   0.115   7.151
29067WAT     H287444   1.889   0.168   6.999
29068WAT      O87445   1.371   6.286   3.219
29068WAT     H187446   1.460   6.315   3.254
29068WAT     H287447   1.299   6.340   3.262
29069WAT      O87448   4.815   6.086   7.836
29069WAT     H187449   4.858   6.168   7.873
29069WAT     H287450   4.818   6.013   7.904
29070WAT      O87451   6.427   7.957   3.864
29070WAT     H187452   6.337   7.960   3.820
29070WAT     H287453   6.452   8.049   3.895
29071WAT      O87454   4.202   8.655   0.370
29071WAT     H187455   4.108   8.665   0.403
29071WAT     H287456   4.266   8.687   0.440
29072WAT      O87457   1.399   1.984   6.304
29072WAT     H187458   1.473   2.004   6.241
29072WAT     H287459   1.365   2.069   6.344
29073WAT      O87460   2.503   3.750   9.280
29073WAT     H187461   2.600   3.742   9.303
29073WAT     H287462   2.492   3.756   9.181
29074WAT      O87463   5.864   0.856   5.869
29074WAT     H187464   5.805   0.832   5.946
29074WAT     H287465   5.808   0.882   5.791
29075WAT      O87466   3.066   8.758   8.176
29075WAT     H187467   3.113   8.787   8.093
29075WAT     H287468   3.003   8.830   8.205
29076WAT      O87469   6.498   0.379   6.567
29076WAT     H187470   6.591   0.400   6.599
29076WAT     H287471   6.469   0.448   6.501
29077WAT      O87472   8.955   8.673   3.065
29077WAT     H187473   8.859   8.691   3.085
29077WAT     H287474   9.008   8.757   3.073
29078WAT      O87475   1.578   9.228   0.374
29078WAT     H187476   1.546   9.314   0.334
29078WAT     H287477   1.609   9.244   0.468
29079WAT      O87478   8.896   2.668   1.827
29079WAT     H187479   8.906   2.768   1.824
29079WAT     H287480   8.976   2.628   1.872
29080WAT      O87481   1.274   9.432   6.275
29080WAT     H187482   1.199   9.395   6.329
29080WAT     H287483   1.360   9.388   6.303
29081WAT      O87484   0.618   7.247   0.514
29081WAT     H187485   0.560   7.254   0.594
29081WAT     H287486   0.687   7.320   0.515
29082WAT      O87487   7.760   5.565   7.667
29082WAT     H187488   7.791   5.588   7.759
29082WAT     H287489   7.667   5.530   7.671
29083WAT      O87490   9.688   6.904   2.166
29083WAT     H187491   9.615   6.970   2.183
29083WAT     H287492   9.762   6.949   2.116
29084WAT      O87493   0.198   9.321   5.653
29084WAT     H187494   0.136   9.303   5.729
29084WAT     H287495   0.284   9.359   5.688
29085WAT      O87496   3.150   4.386   6.811
29085WAT     H187497   3.054   4.393   6.783
29085WAT     H287498   3.155   4.354   6.905
29086WAT      O87499   0.680   3.039   8.654
29086WAT     H187500   0.655   3.130   8.687
29086WAT     H287501   0.759   3.005   8.706
29087WAT      O87502   4.583   6.224   9.260
29087WAT     H187503   4.547   6.228   9.353
29087WAT     H287504   4.678   6.195   9.262
29088WAT      O87505   8.083   8.870   2.466
29088WAT     H187506   8.143   8.817   2.406
29088WAT     H287507   7.994   8.882   2.422
29089WAT      O87508   9.724   0.762   8.470
29089WAT     H187509   9.797   0.806   8.418
29089WAT     H287510   9.743   0.664   8.477
29090WAT      O87511   3.387   1.989   5.981
29090WAT     H187512   3.316   2.042   5.936
29090WAT     H287513   3.364   1.891   5.977
29091WAT      O87514   6.627   8.709   1.646
29091WAT     H187515   6.595   8.688   1.554
29091WAT     H287516   6.580   8.790   1.680
29092WAT      O87517   2.287   1.671   4.739
29092WAT     H187518   2.313   1.646   4.833
29092WAT     H287519   2.272   1.770   4.733
29093WAT      O87520   7.318   4.207   8.886
29093WAT     H187521   7.236   4.182   8.833
29093WAT     H287522   7.299   4.289   8.940
29094WAT      O87523   8.929   2.399   4.185
29094WAT     H187524   8.872   2.377   4.264
29094WAT     H287525   8.995   2.469   4.210
29095WAT      O87526   6.233   7.270   8.722
29095WAT     H187527   6.255   7.297   8.629
29095WAT     H287528   6.310   7.220   8.762
29096WAT      O87529   1.766   2.243   1.019
29096WAT     H187530   1.839   2.308   1.039
29096WAT     H287531   1.805   2.151   1.007
29097WAT      O87532   1.172   7.904   4.826
29097WAT     H187533   1.220   7.843   4.889
29097WAT     H287534   1.076   7.879   4.823
29098WAT      O87535   4.319   3.145   6.616
29098WAT     H187536   4.306   3.081   6.541
29098WAT     H287537   4.417   3.158   6.633
29099WAT      O87538   1.409   3.754   5.128
29099WAT     H187539   1.310   3.765   5.139
29099WAT     H287540   1.437   3.663   5.157
29100WAT      O87541   2.193   1.535   8.314
29100WAT     H187542   2.179   1.437   8.323
29100WAT     H287543   2.123   1.583   8.367
29101WAT      O87544   2.683   8.823   6.897
29101WAT     H187545   2.693   8.732   6.858
29101WAT     H287546   2.724   8.890   6.834
29102WAT      O87547   8.987   1.466   9.749
29102WAT     H187548   9.036   1.413   9.818
29102WAT     H287549   9.038   1.549   9.728
29103WAT      O87550   1.951   0.141   7.572
29103WAT     H187551   1.852   0.140   7.559
29103WAT     H287552   1.980   0.233   7.598
29104WAT      O87553   8.227   0.191   3.881
29104WAT     H187554   8.194   0.285   3.894
29104WAT     H287555   8.249   0.176   3.785
29105WAT      O87556   0.088   4.599   9.624
29105WAT     H187557   0.163   4.662   9.643
29105WAT     H287558   0.063   4.605   9.527
29106WAT      O87559   4.928   1.636   4.695
29106WAT     H187560   5.015   1.588   4.705
29106WAT     H287561   4.854   1.570   4.686
29107WAT      O87562   6.823   8.076   5.624
29107WAT     H187563   6.853   8.121   5.539
29107WAT     H287564   6.786   7.986   5.602
29108WAT      O87565   1.927   5.246   4.167
29108WAT     H187566   1.888   5.320   4.221
29108WAT     H287567   1.902   5.259   4.071
29109WAT      O87568   0.660   3.923   1.544
29109WAT     H187569   0.650   3.971   1.457
29109WAT     H287570   0.591   3.955   1.608
29110WAT      O87571   9.453   4.646   8.139
29110WAT     H187572   9.552   4.633   8.150
29110WAT     H287573   9.436   4.736   8.097
29111WAT      O87574   0.734   2.299   2.386
29111WAT     H187575   0.733   2.362   2.308
29111WAT     H287576   0.762   2.208   2.356
29112WAT      O87577   3.129   0.018   4.832
29112WAT     H187578   3.143   0.104   4.882
29112WAT     H287579   3.112  -0.056   4.898
29113WAT      O87580   8.790   0.124   9.771
29113WAT     H187581   8.846   0.041   9.778
29113WAT     H287582   8.695   0.103   9.794
29114WAT      O87583   1.308   9.764   1.214
29114WAT     H187584   1.326   9.812   1.300
29114WAT     H287585   1.262   9.678   1.234
29115WAT      O87586   5.528   8.359   8.114
29115WAT     H187587   5.492   8.269   8.138
29115WAT     H287588   5.485   8.390   8.029
29116WAT      O87589   7.759   3.856   2.174
29116WAT     H187590   7.703   3.834   2.254
29116WAT     H287591   7.836   3.913   2.202
29117WAT      O87592   5.604   4.928   9.739
29117WAT     H187593   5.559   4.841   9.720
29117WAT     H287594   5.538   5.003   9.731
29118WAT      O87595   7.297   3.047   0.773
29118WAT     H187596   7.213   3.075   0.819
29118WAT     H287597   7.274   2.980   0.702
29119WAT      O87598   8.038   3.365   3.687
29119WAT     H187599   8.018   3.270   3.711
29119WAT     H287600   8.112   3.399   3.745
29120WAT      O87601   3.183   7.244   8.360
29120WAT     H187602   3.141   7.175   8.418
29120WAT     H287603   3.182   7.333   8.407
29121WAT      O87604   9.443   2.863   8.841
29121WAT     H187605   9.532   2.907   8.854
29121WAT     H287606   9.452   2.791   8.772
29122WAT      O87607   2.157   7.249   7.428
29122WAT     H187608   2.172   7.203   7.341
29122WAT     H287609   2.075   7.213   7.472
29123WAT      O87610   5.577   2.600   7.004
29123WAT     H187611   5.527   2.676   6.962
29123WAT     H287612   5.557   2.597   7.102
29124WAT      O87613   0.965   3.795   5.046
29124WAT     H187614   1.006   3.851   4.973
29124WAT     H287615   1.029   3.788   5.123
29125WAT      O87616   0.932   5.493   2.964
29125WAT     H187617   1.031   5.490   2.950
29125WAT     H287618   0.910   5.559   3.035
29126WAT      O87619   2.084   2.129   1.647
29126WAT     H187620   2.115   2.107   1.740
29126WAT     H287621   1.984   2.132   1.645
29127WAT      O87622   5.720   8.616   7.584
29127WAT     H187623   5.736   8.713   7.567
29127WAT     H287624   5.804   8.565   7.568
29128WAT      O87625   2.924   8.793   3.960
29128WAT     H187626   3.022   8.784   3.974
29128WAT     H287627   2.884   8.702   3.945
29129WAT      O87628   7.038   1.331   9.284
29129WAT     H187629   7.055   1.428   9.264
29129WAT     H287630   7.044   1.279   9.199
29130WAT      O87631   1.891   8.613   4.086
29130WAT     H187632   1.938   8.579   4.004
29130WAT     H287633   1.793   8.608   4.072
29131WAT      O87634   8.128   0.458   9.062
29131WAT     H187635   8.171   0.374   9.095
29131WAT     H287636   8.058   0.436   8.994
29132WAT      O87637   1.695   7.823   4.017
29132WAT     H187638   1.772   7.886   4.028
29132WAT     H287639   1.726   7.730   4.038
29133WAT      O87640   6.442   6.696   1.868
29133WAT     H187641   6.494   6.617   1.900
29133WAT     H287642   6.486   6.780   1.901
29134WAT      O87643   1.365   6.505   0.718
29134WAT     H187644   1.406   6.441   0.652
29134WAT     H287645   1.435   6.569   0.749
29135WAT      O87646   5.262   8.307   2.284
29135WAT     H187647   5.271   8.210   2.263
29135WAT     H287648   5.289   8.323   2.379
29136WAT      O87649   2.725   1.486   3.276
29136WAT     H187650   2.651   1.549   3.298
29136WAT     H287651   2.688   1.401   3.239
29137WAT      O87652   7.169   5.163   2.637
29137WAT     H187653   7.179   5.223   2.717
29137WAT     H287654   7.095   5.098   2.654
29138WAT      O87655   5.093   7.934   6.890
29138WAT     H187656   5.064   7.980   6.806
29138WAT     H287657   5.187   7.961   6.911
29139WAT      O87658   3.333   9.422   0.528
29139WAT     H187659   3.250   9.367   0.530
29139WAT     H287660   3.405   9.376   0.580
29140WAT      O87661   9.750   0.130   4.020
29140WAT     H187662   9.667   0.118   3.966
29140WAT     H287663   9.740   0.208   4.080
29141WAT      O87664   1.948   4.116   5.419
29141WAT     H187665   2.002   4.086   5.498
29141WAT     H287666   1.857   4.143   5.449
29142WAT      O87667   6.083   9.522   2.837
29142WAT     H187668   6.080   9.620   2.857
29142WAT     H287669   6.151   9.479   2.896
29143WAT      O87670   1.439   3.928   2.123
29143WAT     H187671   1.535   3.944   2.146
29143WAT     H287672   1.412   3.987   2.047
29144WAT      O87673   6.968   8.424   9.137
29144WAT     H187674   7.027   8.453   9.212
29144WAT     H287675   6.936   8.504   9.087
29145WAT      O87676   9.434   6.970   7.813
29145WAT     H187677   9.435   6.928   7.722
29145WAT     H287678   9.486   6.914   7.877
29146WAT      O87679   6.883   2.709   1.078
29146WAT     H187680   6.982   2.698   1.093
29146WAT     H287681   6.866   2.723   0.980
29147WAT      O87682   6.879   0.045   2.876
29147WAT     H187683   6.902   0.003   2.789
29147WAT     H287684   6.859   0.142   2.861
29148WAT      O87685   8.196   3.204   7.562
29148WAT     H187686   8.100   3.193   7.538
29148WAT     H287687   8.246   3.243   7.485
29149WAT      O87688   6.889   2.689   4.642
29149WAT     H187689   6.887   2.752   4.565
29149WAT     H287690   6.852   2.600   4.614
29150WAT      O87691   9.696   0.758   7.066
29150WAT     H187692   9.772   0.784   7.007
29150WAT     H287693   9.612   0.756   7.012
29151WAT      O87694   2.464   4.082   7.886
29151WAT     H187695   2.501   3.990   7.875
29151WAT     H287696   2.534   4.150   7.864
29152WAT      O87697   3.741   1.689   5.217
29152WAT     H187698   3.806   1.764   5.201
29152WAT     H287699   3.786   1.602   5.199
29153WAT      O87700   4.816   1.948   6.910
29153WAT     H187701   4.771   1.956   6.821
29153WAT     H287702   4.911   1.977   6.901
29154WAT      O87703   5.386   3.772   9.680
29154WAT     H187704   5.311   3.752   9.617
29154WAT     H287705   5.432   3.687   9.705
29155WAT      O87706   8.867   7.012   6.287
29155WAT     H187707   8.960   7.032   6.316
29155WAT     H287708   8.825   7.096   6.252
29156WAT      O87709   3.242   9.104   1.278
29156WAT     H187710   3.205   9.197   1.278
29156WAT     H287711   3.342   9.108   1.285
29157WAT      O87712   5.991   1.429   1.046
29157WAT     H187713   6.028   1.478   1.125
29157WAT     H287714   6.032   1.465   0.962
29158WAT      O87715   7.066   5.272   4.027
29158WAT     H187716   7.081   5.273   4.125
29158WAT     H287717   7.005   5.347   4.001
29159WAT      O87718   2.647   4.794   4.717
29159WAT     H187719   2.676   4.704   4.749
29159WAT     H287720   2.714   4.829   4.651
29160WAT      O87721   8.120   7.698   6.440
29160WAT     H187722   8.050   7.741   6.382
29160WAT     H287723   8.088   7.694   6.534
29161WAT      O87724   1.694   8.349   2.242
29161WAT     H187725   1.699   8.315   2.336
29161WAT     H287726   1.778   8.326   2.193
29162WAT      O87727   4.221   1.070   4.886
29162WAT     H187728   4.287   1.094   4.815
29162WAT     H287729   4.188   1.154   4.930
29163WAT      O87730   5.495   1.894   6.920
29163WAT     H187731   5.577   1.950   6.905
29163WAT     H287732   5.518   1.798   6.908
29164WAT      O87733   2.439   2.629   7.823
29164WAT     H187734   2.344   2.642   7.795
29164WAT     H287735   2.491   2.713   7.804
29165WAT      O87736   4.415   0.826   9.725
29165WAT     H187737   4.320   0.845   9.750
29165WAT     H287738   4.427   0.839   9.626
29166WAT      O87739   4.229   2.330   8.881
29166WAT     H187740   4.165   2.339   8.805
29166WAT     H287741   4.229   2.236   8.914
29167WAT      O87742   6.346   1.285   0.541
29167WAT     H187743   6.439   1.294   0.508
29167WAT     H287744   6.284   1.271   0.464
29168WAT      O87745   3.502   6.691   1.655
29168WAT     H187746   3.562   6.633   1.711
29168WAT     H287747   3.410   6.693   1.695
29169WAT      O87748   5.826   9.678   8.975
29169WAT     H187749   5.902   9.739   8.952
29169WAT     H287750   5.751   9.732   9.014
29170WAT      O87751   7.719   4.791   6.775
29170WAT     H187752   7.696   4.862   6.708
29170WAT     H287753   7.655   4.715   6.765
29171WAT      O87754   5.269   2.579   2.564
29171WAT     H187755   5.320   2.508   2.517
29171WAT     H287756   5.318   2.606   2.647
29172WAT      O87757   5.243   0.792   0.525
29172WAT     H187758   5.300   0.791   0.443
29172WAT     H287759   5.192   0.878   0.529
29173WAT      O87760   5.184   9.373   2.001
29173WAT     H187761   5.158   9.454   2.055
29173WAT     H287762   5.113   9.353   1.934
29174WAT      O87763   9.081   8.015   1.072
29174WAT     H187764   9.118   8.099   1.112
29174WAT     H287765   8.988   8.032   1.040
29175WAT      O87766   4.470   9.024   6.913
29175WAT     H187767   4.460   9.122   6.926
29175WAT     H287768   4.553   9.005   6.860
29176WAT      O87769   5.495   6.684   2.931
29176WAT     H187770   5.570   6.628   2.896
29176WAT     H287771   5.510   6.703   3.028
29177WAT      O87772   8.163   6.376   4.325
29177WAT     H187773   8.212   6.326   4.254
29177WAT     H287774   8.069   6.393   4.295
29178WAT      O87775   0.465   7.782   7.867
29178WAT     H187776   0.432   7.862   7.817
29178WAT     H287777   0.429   7.784   7.960
29179WAT      O87778   4.633   6.029   0.943
29179WAT     H187779   4.652   5.935   0.970
29179WAT     H287780   4.694   6.092   0.993
29180WAT      O87781   5.764   4.980   9.438
29180WAT     H187782   5.671   5.016   9.434
29180WAT     H287783   5.818   5.034   9.502
29181WAT      O87784   6.649   8.300   3.340
29181WAT     H187785   6.561   8.346   3.329
29181WAT     H287786   6.717   8.365   3.372
29182WAT      O87787   4.547   1.710   3.044
29182WAT     H187788   4.595   1.709   2.956
29182WAT     H287789   4.611   1.688   3.117
29183WAT      O87790   6.730   8.618   7.531
29183WAT     H187791   6.799   8.663   7.475
29183WAT     H287792   6.757   8.622   7.627
29184WAT      O87793   0.834   3.431   3.770
29184WAT     H187794   0.774   3.351   3.766
29184WAT     H287795   0.833   3.468   3.863
29185WAT      O87796   6.783   0.403   3.552
29185WAT     H187797   6.831   0.331   3.501
29185WAT     H287798   6.844   0.482   3.562
29186WAT      O87799   8.442   5.875   4.052
29186WAT     H187800   8.355   5.834   4.023
29186WAT     H287801   8.491   5.910   3.973
29187WAT      O87802   3.032   7.463   0.333
29187WAT     H187803   3.031   7.363   0.336
29187WAT     H287804   3.027   7.499   0.426
29188WAT      O87805   4.267   5.284   8.847
29188WAT     H187806   4.221   5.351   8.789
29188WAT     H287807   4.205   5.253   8.919
29189WAT      O87808   7.667   6.593   3.628
29189WAT     H187809   7.732   6.655   3.583
29189WAT     H287810   7.681   6.597   3.727
29190WAT      O87811   2.454   0.252   0.107
29190WAT     H187812   2.407   0.179   0.058
29190WAT     H287813   2.400   0.336   0.102
29191WAT      O87814   4.950   8.480   2.115
29191WAT     H187815   4.981   8.472   2.209
29191WAT     H287816   5.016   8.436   2.054
29192WAT      O87817   8.941   5.876   5.026
29192WAT     H187818   9.000   5.948   5.062
29192WAT     H287819   8.953   5.793   5.079
29193WAT      O87820   2.052   4.902   1.722
29193WAT     H187821   2.148   4.882   1.740
29193WAT     H287822   2.043   4.950   1.635
29194WAT      O87823   0.350   9.364   7.807
29194WAT     H187824   0.265   9.397   7.768
29194WAT     H287825   0.368   9.271   7.774
29195WAT      O87826   1.766   8.870   1.171
29195WAT     H187827   1.699   8.816   1.121
29195WAT     H287828   1.857   8.857   1.130
29196WAT      O87829   9.133   9.654   9.217
29196WAT     H187830   9.204   9.607   9.165
29196WAT     H287831   9.161   9.661   9.313
29197WAT      O87832   2.404   6.619   0.113
29197WAT     H187833   2.473   6.547   0.127
29197WAT     H287834   2.318   6.577   0.085
29198WAT      O87835   0.784   4.982   8.629
29198WAT     H187836   0.814   5.028   8.713
29198WAT     H287837   0.840   5.015   8.552
29199WAT      O87838   8.734   3.993   9.680
29199WAT     H187839   8.705   4.059   9.750
29199WAT     H287840   8.666   3.921   9.672
29200WAT      O87841   0.110   1.984   5.744
29200WAT     H187842   0.174   1.917   5.706
29200WAT     H287843   0.046   2.013   5.673
29201WAT      O87844   1.062   3.762   6.407
29201WAT     H187845   0.965   3.761   6.432
29201WAT     H287846   1.111   3.692   6.461
29202WAT      O87847   8.998   8.525   1.171
29202WAT     H187848   8.955   8.606   1.131
29202WAT     H287849   9.065   8.553   1.240
29203WAT      O87850   8.941   1.912   2.624
29203WAT     H187851   8.886   1.837   2.589
29203WAT     H287852   8.984   1.885   2.710
29204WAT      O87853   5.156   0.652   4.901
29204WAT     H187854   5.184   0.715   4.973
29204WAT     H287855   5.135   0.704   4.818
29205WAT      O87856   7.495   8.607   7.901
29205WAT     H187857   7.591   8.631   7.911
29205WAT     H287858   7.487   8.514   7.865
29206WAT      O87859   5.986   7.471   2.633
29206WAT     H187860   5.953   7.451   2.725
29206WAT     H287861   6.040   7.394   2.599
29207WAT      O87862   0.430   2.876   1.945
29207WAT     H187863   0.388   2.841   2.028
29207WAT     H287864   0.380   2.958   1.914
29208WAT      O87865   5.439   4.979   2.943
29208WAT     H187866   5.411   4.910   3.009
29208WAT     H287867   5.510   4.942   2.883
29209WAT      O87868   3.385   3.392   9.453
29209WAT     H187869   3.307   3.375   9.514
29209WAT     H287870   3.468   3.400   9.508
29210WAT      O87871   8.686   4.874   3.495
29210WAT     H187872   8.611   4.933   3.466
29210WAT     H287873   8.764   4.930   3.522
29211WAT      O87874   0.269   3.698   7.132
29211WAT     H187875   0.284   3.786   7.177
29211WAT     H287876   0.343   3.682   7.066
29212WAT      O87877   1.155   1.252   8.853
29212WAT     H187878   1.066   1.228   8.892
29212WAT     H287879   1.227   1.204   8.904
29213WAT      O87880   7.843   2.634   2.171
29213WAT     H187881   7.917   2.698   2.189
29213WAT     H287882   7.858   2.589   2.083
29214WAT      O87883   2.233   9.123   2.921
29214WAT     H187884   2.266   9.103   3.014
29214WAT     H287885   2.170   9.201   2.924
29215WAT      O87886   8.521   6.717   5.958
29215WAT     H187887   8.603   6.661   5.943
29215WAT     H287888   8.532   6.806   5.916
29216WAT      O87889   5.863   7.352   6.732
29216WAT     H187890   5.916   7.334   6.649
29216WAT     H287891   5.896   7.436   6.775
29217WAT      O87892   2.894   2.708   0.358
29217WAT     H187893   2.884   2.802   0.392
29217WAT     H287894   2.981   2.671   0.388
29218WAT      O87895   1.667   1.203   3.500
29218WAT     H187896   1.589   1.199   3.438
29218WAT     H287897   1.661   1.129   3.566
29219WAT      O87898   2.846   6.933   4.877
29219WAT     H187899   2.937   6.930   4.834
29219WAT     H287900   2.835   6.854   4.937
29220WAT      O87901   0.531   3.571   2.428
29220WAT     H187902   0.488   3.506   2.365
29220WAT     H287903   0.462   3.629   2.469
29221WAT      O87904   5.110   9.686   1.172
29221WAT     H187905   5.051   9.766   1.185
29221WAT     H287906   5.181   9.686   1.242
29222WAT      O87907   4.078   6.059   8.846
29222WAT     H187908   4.115   6.152   8.853
29222WAT     H287909   4.131   6.007   8.779
29223WAT      O87910   7.130   8.134   9.177
29223WAT     H187911   7.175   8.071   9.241
29223WAT     H287912   7.032   8.136   9.195
29224WAT      O87913   0.722   7.244   2.401
29224WAT     H187914   0.662   7.311   2.445
29224WAT     H287915   0.722   7.258   2.302
29225WAT      O87916   7.235   6.776   0.603
29225WAT     H187917   7.289   6.834   0.664
29225WAT     H287918   7.172   6.833   0.549
29226WAT      O87919   6.781   8.609   6.303
29226WAT     H187920   6.813   8.698   6.336
29226WAT     H287921   6.704   8.578   6.358
29227WAT      O87922   8.912   6.506   1.777
29227WAT     H187923   8.981   6.579   1.775
29227WAT     H287924   8.887   6.487   1.871
29228WAT      O87925   3.026   5.715   3.985
29228WAT     H187926   3.069   5.634   4.027
29228WAT     H287927   3.058   5.797   4.031
29229WAT      O87928   7.922   2.428   8.631
29229WAT     H187929   7.942   2.506   8.691
29229WAT     H287930   8.008   2.384   8.605
29230WAT      O87931   3.417   1.446   7.736
29230WAT     H187932   3.420   1.384   7.658
29230WAT     H287933   3.353   1.412   7.805
29231WAT      O87934   6.848   4.488   6.727
29231WAT     H187935   6.773   4.506   6.790
29231WAT     H287936   6.872   4.391   6.730
29232WAT      O87937   3.581   7.538   5.254
29232WAT     H187938   3.538   7.491   5.331
29232WAT     H287939   3.528   7.521   5.171
29233WAT      O87940   2.119   6.018   8.658
29233WAT     H187941   2.160   6.019   8.749
29233WAT     H287942   2.189   6.034   8.589
29234WAT      O87943   0.560   9.387   1.441
29234WAT     H187944   0.531   9.330   1.518
29234WAT     H287945   0.482   9.440   1.408
29235WAT      O87946   0.761   8.759   2.050
29235WAT     H187947   0.779   8.824   2.123
29235WAT     H287948   0.663   8.741   2.045
29236WAT      O87949   0.067   7.309   4.043
29236WAT     H187950   0.111   7.224   4.013
29236WAT     H287951   0.109   7.387   3.997
29237WAT      O87952   0.851   5.124   5.241
29237WAT     H187953   0.765   5.138   5.192
29237WAT     H287954   0.871   5.027   5.247
29238WAT      O87955   0.430   5.224   5.333
29238WAT     H187956   0.493   5.163   5.382
29238WAT     H287957   0.472   5.314   5.323
29239WAT      O87958   1.389   6.872   6.168
29239WAT     H187959   1.455   6.835   6.102
29239WAT     H287960   1.419   6.962   6.199
29240WAT      O87961   9.257   5.713   8.105
29240WAT     H187962   9.324   5.654   8.059
29240WAT     H287963   9.188   5.742   8.039
29241WAT      O87964   5.638   2.486   1.332
29241WAT     H187965   5.720   2.505   1.386
29241WAT     H287966   5.589   2.571   1.315
29242WAT      O87967   5.251   9.730   9.127
29242WAT     H187968   5.279   9.638   9.099
29242WAT     H287969   5.277   9.744   9.223
29243WAT      O87970   5.470   1.898   9.879
29243WAT     H187971   5.430   1.835   9.812
29243WAT     H287972   5.519   1.846   9.948
29244WAT      O87973   6.997   8.580   6.933
29244WAT     H187974   6.938   8.515   6.979
29244WAT     H287975   7.008   8.662   6.990
29245WAT      O87976   9.191   8.475   0.718
29245WAT     H187977   9.148   8.489   0.628
29245WAT     H287978   9.192   8.377   0.738
29246WAT      O87979   9.518   2.098   8.256
29246WAT     H187980   9.443   2.035   8.274
29246WAT     H287981   9.482   2.179   8.209
29247WAT      O87982   8.801   4.912   5.806
29247WAT     H187983   8.891   4.874   5.827
29247WAT     H287984   8.746   4.915   5.889
29248WAT      O87985   4.235   7.300   9.844
29248WAT     H187986   4.162   7.341   9.789
29248WAT     H287987   4.211   7.205   9.865
29249WAT      O87988   0.061   6.494   5.684
29249WAT     H187989   0.131   6.544   5.734
29249WAT     H287990   0.095   6.472   5.593
29250WAT      O87991   1.844   0.341   5.410
29250WAT     H187992   1.943   0.328   5.405
29250WAT     H287993   1.807   0.290   5.487
29251WAT      O87994   8.847   2.259   6.817
29251WAT     H187995   8.806   2.306   6.739
29251WAT     H287996   8.784   2.259   6.894
29252WAT      O87997   0.185   2.918   7.093
29252WAT     H187998   0.134   2.837   7.064
29252WAT     H287999   0.190   2.920   7.193
29253WAT      O88000   2.390   8.870   9.380
29253WAT     H188001   2.339   8.882   9.295
29253WAT     H288002   2.395   8.773   9.403
29254WAT      O88003   3.676   2.130   0.639
29254WAT     H188004   3.580   2.104   0.626
29254WAT     H288005   3.734   2.077   0.577
29255WAT      O88006   1.047   4.090   8.042
29255WAT     H188007   1.130   4.038   8.022
29255WAT     H288008   1.004   4.053   8.124
29256WAT      O88009   0.861   2.040   6.339
29256WAT     H188010   0.787   1.976   6.363
29256WAT     H288011   0.909   2.007   6.258
29257WAT      O88012   5.850   9.493   3.045
29257WAT     H188013   5.921   9.503   2.975
29257WAT     H288014   5.828   9.582   3.083
29258WAT      O88015   9.459   5.240   0.868
29258WAT     H188016   9.472   5.317   0.930
29258WAT     H288017   9.480   5.154   0.915
29259WAT      O88018   6.237   2.560   3.162
29259WAT     H188019   6.329   2.586   3.191
29259WAT     H288020   6.228   2.577   3.063
29260WAT      O88021   4.470   3.786   1.825
29260WAT     H188022   4.524   3.833   1.755
29260WAT     H288023   4.430   3.853   1.887
29261WAT      O88024   9.246   4.673   5.426
29261WAT     H188025   9.273   4.597   5.366
29261WAT     H288026   9.196   4.636   5.504
29262WAT      O88027   3.253   4.030   8.592
29262WAT     H188028   3.332   3.980   8.627
29262WAT     H288029   3.272   4.129   8.595
29263WAT      O88030   5.666   6.046   9.181
29263WAT     H188031   5.669   5.949   9.160
29263WAT     H288032   5.572   6.079   9.175
29264WAT      O88033   4.108   6.607   3.426
29264WAT     H188034   4.054   6.692   3.426
29264WAT     H288035   4.050   6.532   3.457
29265WAT      O88036   3.752   4.934   0.599
29265WAT     H188037   3.664   4.942   0.647
29265WAT     H288038   3.755   4.999   0.523
29266WAT      O88039   5.733   9.747   4.700
29266WAT     H188040   5.690   9.700   4.623
29266WAT     H288041   5.672   9.746   4.779
29267WAT      O88042   5.152   3.638   0.991
29267WAT     H188043   5.058   3.606   0.994
29267WAT     H288044   5.187   3.647   1.085
29268WAT      O88045   8.489   5.641   2.511
29268WAT     H188046   8.558   5.711   2.492
29268WAT     H288047   8.515   5.590   2.593
29269WAT      O88048   2.771   7.977   8.052
29269WAT     H188049   2.696   8.043   8.052
29269WAT     H288050   2.855   8.022   8.023
29270WAT      O88051   7.048   1.099   1.313
29270WAT     H188052   6.951   1.073   1.319
29270WAT     H288053   7.100   1.021   1.277
29271WAT      O88054   6.691   7.328   2.572
29271WAT     H188055   6.765   7.261   2.571
29271WAT     H288056   6.727   7.418   2.550
29272WAT      O88057   4.653   3.155   0.823
29272WAT     H188058   4.608   3.068   0.842
29272WAT     H288059   4.633   3.184   0.729
29273WAT      O88060   6.790   4.675   3.482
29273WAT     H188061   6.739   4.632   3.407
29273WAT     H288062   6.791   4.614   3.561
29274WAT      O88063   8.664   0.497   2.592
29274WAT     H188064   8.655   0.580   2.537
29274WAT     H288065   8.754   0.496   2.636
29275WAT      O88066   3.026   9.824   6.326
29275WAT     H188067   2.944   9.844   6.379
29275WAT     H288068   3.020   9.731   6.289
29276WAT      O88069   8.937   9.531   2.746
29276WAT     H188070   8.897   9.461   2.805
29276WAT     H288071   8.932   9.501   2.650
29277WAT      O88072   6.737   2.986   2.076
29277WAT     H188073   6.639   3.002   2.059
29277WAT     H288074   6.775   3.063   2.126
29278WAT      O88075   8.787   9.372  -0.003
29278WAT     H188076   8.763   9.372   0.093
29278WAT     H288077   8.856   9.443  -0.020
29279WAT      O88078   6.429   3.385   7.297
29279WAT     H188079   6.411   3.483   7.306
29279WAT     H288080   6.351   3.334   7.332
29280WAT      O88081   2.713   1.332   0.240
29280WAT     H188082   2.710   1.255   0.176
29280WAT     H288083   2.639   1.323   0.307
29281WAT      O88084   3.264   5.969   6.745
29281WAT     H188085   3.287   5.872   6.739
29281WAT     H288086   3.272   5.999   6.840
29282WAT      O88087   4.936   3.198   9.127
29282WAT     H188088   4.845   3.214   9.089
29282WAT     H288089   4.949   3.100   9.141
29283WAT      O88090   5.682   6.967   7.732
29283WAT     H188091   5.755   7.031   7.755
29283WAT     H288092   5.605   7.017   7.693
29284WAT      O88093   7.586   4.747   3.433
29284WAT     H188094   7.516   4.744   3.362
29284WAT     H288095   7.555   4.695   3.513
29285WAT      O88096   2.091   3.085   9.720
29285WAT     H188097   2.124   3.065   9.627
29285WAT     H288098   2.137   3.167   9.754
29286WAT      O88099   1.984   6.035   3.120
29286WAT     H188100   1.961   5.964   3.186
29286WAT     H288101   2.002   5.994   3.031
29287WAT      O88102   9.462   8.098   2.022
29287WAT     H188103   9.488   8.116   1.927
29287WAT     H288104   9.474   8.182   2.076
29288WAT      O88105   8.963   9.031   7.749
29288WAT     H188106   8.871   9.014   7.784
29288WAT     H288107   8.996   8.951   7.700
29289WAT      O88108   0.115   4.483   7.624
29289WAT     H188109   0.030   4.441   7.658
29289WAT     H288110   0.118   4.579   7.651
29290WAT      O88111   4.986   8.890   2.794
29290WAT     H188112   5.065   8.925   2.744
29290WAT     H288113   4.995   8.791   2.806
29291WAT      O88114   5.072   1.385   8.250
29291WAT     H188115   5.015   1.447   8.196
29291WAT     H288116   5.018   1.344   8.323
29292WAT      O88117   9.387   9.428   9.587
29292WAT     H188118   9.482   9.425   9.557
29292WAT     H288119   9.359   9.523   9.600
29293WAT      O88120   7.096   8.989   4.420
29293WAT     H188121   7.117   9.037   4.506
29293WAT     H288122   7.175   8.933   4.393
29294WAT      O88123   2.526   9.458   5.373
29294WAT     H188124   2.512   9.412   5.461
29294WAT     H288125   2.443   9.452   5.319
29295WAT      O88126   7.281   9.427   5.951
29295WAT     H188127   7.224   9.352   5.986
29295WAT     H288128   7.377   9.406   5.966
29296WAT      O88129   4.781   6.496   8.687
29296WAT     H188130   4.868   6.447   8.699
29296WAT     H288131   4.730   6.494   8.772
29297WAT      O88132   0.407   6.841   2.567
29297WAT     H188133   0.456   6.772   2.513
29297WAT     H288134   0.462   6.866   2.646
29298WAT      O88135   9.360   2.114   5.248
29298WAT     H188136   9.341   2.019   5.221
29298WAT     H288137   9.289   2.174   5.211
29299WAT      O88138   4.865   5.295   6.798
29299WAT     H188139   4.830   5.294   6.704
29299WAT     H288140   4.964   5.307   6.796
29300WAT      O88141   2.868   1.170   4.904
29300WAT     H188142   2.789   1.128   4.949
29300WAT     H288143   2.866   1.148   4.807
29301WAT      O88144   7.978   5.961   6.719
29301WAT     H188145   7.908   5.958   6.647
29301WAT     H288146   8.060   6.007   6.685
29302WAT      O88147   3.048   0.833   6.981
29302WAT     H188148   3.070   0.820   6.885
29302WAT     H288149   3.128   0.869   7.029
29303WAT      O88150   3.359   5.642   1.606
29303WAT     H188151   3.349   5.600   1.516
29303WAT     H288152   3.391   5.574   1.672
29304WAT      O88153   5.390   4.378   3.808
29304WAT     H188154   5.397   4.334   3.719
29304WAT     H288155   5.480   4.407   3.839
29305WAT      O88156   1.840   6.648   6.723
29305WAT     H188157   1.900   6.645   6.643
29305WAT     H288158   1.851   6.564   6.776
29306WAT      O88159   8.059   8.353   0.771
29306WAT     H188160   8.139   8.294   0.759
29306WAT     H288161   8.037   8.398   0.684
29307WAT      O88162   2.962   3.486   7.943
29307WAT     H188163   3.003   3.563   7.894
29307WAT     H288164   2.863   3.496   7.944
29308WAT      O88165   0.132   0.903   6.051
29308WAT     H188166   0.173   0.819   6.086
29308WAT     H288167   0.097   0.958   6.126
29309WAT      O88168   3.137   4.315   7.492
29309WAT     H188169   3.084   4.361   7.421
29309WAT     H288170   3.183   4.383   7.549
29310WAT      O88171   8.852   6.526   2.869
29310WAT     H188172   8.776   6.585   2.896
29310WAT     H288173   8.915   6.516   2.946
29311WAT      O88174   9.845   3.019   0.699
29311WAT     H188175   9.818   3.066   0.784
29311WAT     H288176   9.813   2.924   0.703
29312WAT      O88177   4.351   6.889   5.260
29312WAT     H188178   4.378   6.802   5.301
29312WAT     H288179   4.302   6.944   5.328
29313WAT      O88180   1.222   4.250   6.845
29313WAT     H188181   1.193   4.317   6.776
29313WAT     H288182   1.321   4.255   6.857
29314WAT      O88183   2.765   6.062   7.487
29314WAT     H188184   2.736   5.997   7.558
29314WAT     H288185   2.798   6.012   7.407
29315WAT      O88186   5.622   7.120   0.439
29315WAT     H188187   5.665   7.090   0.523
29315WAT     H288188   5.536   7.070   0.425
29316WAT      O88189   5.892   4.563   1.372
29316WAT     H188190   5.882   4.486   1.310
29316WAT     H288191   5.834   4.549   1.453
29317WAT      O88192   9.050   6.835   6.961
29317WAT     H188193   8.976   6.844   6.894
29317WAT     H288194   9.041   6.907   7.029
29318WAT      O88195   8.853   0.374   4.236
29318WAT     H188196   8.861   0.442   4.309
29318WAT     H288197   8.878   0.416   4.149
29319WAT      O88198   1.671   5.563   7.879
29319WAT     H188199   1.718   5.497   7.821
29319WAT     H288200   1.581   5.528   7.904
29320WAT      O88201   5.346   7.162   4.935
29320WAT     H188202   5.357   7.256   4.968
29320WAT     H288203   5.342   7.099   5.013
29321WAT      O88204   6.214   9.174   5.539
29321WAT     H188205   6.138   9.138   5.486
29321WAT     H288206   6.289   9.108   5.538
29322WAT      O88207   8.562   3.961   1.791
29322WAT     H188208   8.598   3.959   1.884
29322WAT     H288209   8.545   3.868   1.759
29323WAT      O88210   2.486   1.840   3.096
29323WAT     H188211   2.501   1.934   3.066
29323WAT     H288212   2.472   1.781   3.017
29324WAT      O88213   9.824   7.975   8.516
29324WAT     H188214   9.917   8.006   8.496
29324WAT     H288215   9.825   7.876   8.534
29325WAT      O88216   7.213   3.442   0.903
29325WAT     H188217   7.136   3.409   0.957
29325WAT     H288218   7.294   3.386   0.922
29326WAT      O88219   1.650   1.603   8.507
29326WAT     H188220   1.734   1.552   8.525
29326WAT     H288221   1.579   1.540   8.473
29327WAT      O88222   5.548   7.581   0.536
29327WAT     H188223   5.531   7.485   0.559
29327WAT     H288224   5.605   7.586   0.454
29328WAT      O88225   4.105   1.056   8.142
29328WAT     H188226   4.050   1.068   8.225
29328WAT     H288227   4.161   1.137   8.127
29329WAT      O88228   7.065   1.555   3.432
29329WAT     H188229   7.089   1.649   3.457
29329WAT     H288230   7.034   1.506   3.514
29330WAT      O88231   3.285   6.560   5.589
29330WAT     H188232   3.325   6.630   5.530
29330WAT     H288233   3.301   6.585   5.685
29331WAT      O88234   5.849   5.797   1.551
29331WAT     H188235   5.862   5.878   1.493
29331WAT     H288236   5.937   5.771   1.590
29332WAT      O88237   6.099   1.872   7.506
29332WAT     H188238   6.141   1.957   7.475
29332WAT     H288239   6.170   1.809   7.537
29333WAT      O88240   5.007   2.534   1.570
29333WAT     H188241   4.978   2.439   1.582
29333WAT     H288242   4.929   2.595   1.587
29334WAT      O88243   7.925   7.714   9.450
29334WAT     H188244   7.880   7.679   9.368
29334WAT     H288245   7.940   7.813   9.439
29335WAT      O88246   5.645   5.978   0.797
29335WAT     H188247   5.696   6.061   0.821
29335WAT     H288248   5.617   5.931   0.880
29336WAT      O88249   7.478   3.800   9.563
29336WAT     H188250   7.384   3.834   9.552
29336WAT     H288251   7.484   3.707   9.527
29337WAT      O88252   7.925   2.999   1.632
29337WAT     H188253   7.976   2.918   1.662
29337WAT     H288254   7.983   3.080   1.643
29338WAT      O88255   6.902   8.264   8.831
29338WAT     H188256   6.949   8.254   8.744
29338WAT     H288257   6.811   8.302   8.816
29339WAT      O88258   2.112   8.609   6.042
29339WAT     H188259   2.090   8.511   6.040
29339WAT     H288260   2.029   8.662   6.030
29340WAT      O88261   0.522   8.159   1.935
29340WAT     H188262   0.441   8.121   1.980
29340WAT     H288263   0.581   8.084   1.903
29341WAT      O88264   1.503   0.552   5.147
29341WAT     H188265   1.589   0.500   5.143
29341WAT     H288266   1.435   0.499   5.198
29342WAT      O88267   4.802   2.836   8.134
29342WAT     H188268   4.857   2.789   8.203
29342WAT     H288269   4.778   2.927   8.167
29343WAT      O88270   3.379   0.137   0.607
29343WAT     H188271   3.407   0.233   0.608
29343WAT     H288272   3.282   0.130   0.628
29344WAT      O88273   0.347   4.068   4.806
29344WAT     H188274   0.342   4.026   4.896
29344WAT     H288275   0.263   4.049   4.755
29345WAT      O88276   7.942   5.588   5.040
29345WAT     H188277   7.948   5.534   5.124
29345WAT     H288278   7.906   5.531   4.966
29346WAT      O88279   6.610   4.753   7.832
29346WAT     H188280   6.607   4.819   7.757
29346WAT     H288281   6.540   4.778   7.900
29347WAT      O88282   0.301   7.009   2.342
29347WAT     H188283   0.385   6.963   2.371
29347WAT     H288284   0.256   6.954   2.272
29348WAT      O88285   4.940   2.224   4.360
29348WAT     H188286   4.986   2.246   4.446
29348WAT     H288287   5.008   2.221   4.286
29349WAT      O88288   5.536   6.625   0.623
29349WAT     H188289   5.450   6.647   0.670
29349WAT     H288290   5.525   6.540   0.573
29350WAT      O88291   8.970   6.974   5.195
29350WAT     H188292   9.021   6.934   5.271
29350WAT     H288293   8.955   6.905   5.125
29351WAT      O88294   5.643   5.779   5.516
29351WAT     H188295   5.734   5.737   5.517
29351WAT     H288296   5.646   5.864   5.568
29352WAT      O88297   5.863   1.270   6.755
29352WAT     H188298   5.896   1.213   6.831
29352WAT     H288299   5.894   1.364   6.769
29353WAT      O88300   0.120   5.098   4.973
29353WAT     H188301   0.063   5.168   4.930
29353WAT     H288302   0.174   5.053   4.902
29354WAT      O88303   1.342   4.979   9.118
29354WAT     H188304   1.331   5.033   9.202
29354WAT     H288305   1.414   5.018   9.062
29355WAT      O88306   1.803   2.114   1.600
29355WAT     H188307   1.836   2.137   1.508
29355WAT     H288308   1.799   2.015   1.611
29356WAT      O88309   9.682   0.170   4.473
29356WAT     H188310   9.773   0.157   4.513
29356WAT     H288311   9.613   0.173   4.545
29357WAT      O88312   8.365   5.923   0.969
29357WAT     H188313   8.398   5.846   1.023
29357WAT     H288314   8.333   5.890   0.880
29358WAT      O88315   3.970   9.841   2.831
29358WAT     H188316   3.998   9.783   2.754
29358WAT     H288317   3.984   9.937   2.807
29359WAT      O88318   2.972   2.415   2.340
29359WAT     H188319   2.900   2.482   2.354
29359WAT     H288320   3.044   2.428   2.409
29360WAT      O88321   8.701   2.364   0.721
29360WAT     H188322   8.681   2.345   0.625
29360WAT     H288323   8.784   2.419   0.727
29361WAT      O88324   5.348   2.300   6.246
29361WAT     H188325   5.250   2.284   6.258
29361WAT     H288326   5.386   2.230   6.186
29362WAT      O88327   6.641   5.732   7.961
29362WAT     H188328   6.680   5.823   7.946
29362WAT     H288329   6.590   5.732   8.047
29363WAT      O88330   2.565   6.570   6.647
29363WAT     H188331   2.644   6.624   6.619
29363WAT     H288332   2.579   6.537   6.740
29364WAT      O88333   9.216   3.846   3.359
29364WAT     H188334   9.199   3.751   3.385
29364WAT     H288335   9.136   3.883   3.313
29365WAT      O88336   2.504   0.080   4.549
29365WAT     H188337   2.476  -0.008   4.510
29365WAT     H288338   2.504   0.150   4.477
29366WAT      O88339   5.910   1.463   5.621
29366WAT     H188340   5.943   1.368   5.625
29366WAT     H288341   5.944   1.507   5.538
29367WAT      O88342   4.519   5.929   9.625
29367WAT     H188343   4.598   5.969   9.671
29367WAT     H288344   4.443   5.995   9.626
29368WAT      O88345   8.868   7.835   9.130
29368WAT     H188346   8.781   7.792   9.104
29368WAT     H288347   8.933   7.765   9.159
29369WAT      O88348   3.188   2.423   7.074
29369WAT     H188349   3.201   2.490   7.002
29369WAT     H288350   3.250   2.345   7.060
29370WAT      O88351   3.087   6.149   8.513
29370WAT     H188352   3.172   6.141   8.461
29370WAT     H288353   3.060   6.058   8.546
29371WAT      O88354   9.198   6.965   1.099
29371WAT     H188355   9.150   6.971   1.012
29371WAT     H288356   9.232   6.872   1.112
29372WAT      O88357   4.198   3.265   2.528
29372WAT     H188358   4.102   3.282   2.550
29372WAT     H288359   4.203   3.202   2.450
29373WAT      O88360   8.764   1.745   2.532
29373WAT     H188361   8.686   1.744   2.469
29373WAT     H288362   8.753   1.672   2.600
29374WAT      O88363   9.713   7.898   7.186
29374WAT     H188364   9.747   7.808   7.213
29374WAT     H288365   9.632   7.921   7.240
29375WAT      O88366   0.503   6.744   7.056
29375WAT     H188367   0.533   6.688   7.133
29375WAT     H288368   0.471   6.685   6.982
29376WAT      O88369   5.284   8.870   1.311
29376WAT     H188370   5.267   8.771   1.313
29376WAT     H288371   5.330   8.894   1.226
29377WAT      O88372   6.004   2.662   8.338
29377WAT     H188373   5.967   2.713   8.416
29377WAT     H288374   6.006   2.722   8.258
29378WAT      O88375   4.440   5.947   9.313
29378WAT     H188376   4.482   6.026   9.358
29378WAT     H288377   4.343   5.942   9.337
29379WAT      O88378   6.302   7.519   0.185
29379WAT     H188379   6.365   7.459   0.235
29379WAT     H288380   6.275   7.475   0.100
29380WAT      O88381   2.656   2.300   7.060
29380WAT     H188382   2.636   2.271   6.966
29380WAT     H288383   2.669   2.399   7.062
29381WAT      O88384   5.401   8.845   0.346
29381WAT     H188385   5.371   8.800   0.431
29381WAT     H288386   5.377   8.787   0.268
29382WAT      O88387   0.987   4.299   8.745
29382WAT     H188388   0.955   4.307   8.840
29382WAT     H288389   1.087   4.308   8.744
29383WAT      O88390   8.288   4.864   6.280
29383WAT     H188391   8.336   4.777   6.286
29383WAT     H288392   8.244   4.873   6.191
29384WAT      O88393   3.266   5.863   2.327
29384WAT     H188394   3.273   5.825   2.235
29384WAT     H288395   3.253   5.789   2.393
29385WAT      O88396   0.241   8.214   8.188
29385WAT     H188397   0.222   8.238   8.283
29385WAT     H288398   0.202   8.125   8.167
29386WAT      O88399   4.577   8.696   5.438
29386WAT     H188400   4.660   8.734   5.478
29386WAT     H288401   4.589   8.597   5.423
29387WAT      O88402   9.213   2.683   7.188
29387WAT     H188403   9.248   2.678   7.095
29387WAT     H288404   9.285   2.716   7.249
29388WAT      O88405   7.461   8.048   1.167
29388WAT     H188406   7.507   8.133   1.192
29388WAT     H288407   7.479   7.979   1.237
29389WAT      O88408   5.614   4.104   4.967
29389WAT     H188409   5.649   4.197   4.960
29389WAT     H288410   5.517   4.103   4.943
29390WAT      O88411   3.371   5.712   6.743
29390WAT     H188412   3.458   5.721   6.793
29390WAT     H288413   3.388   5.715   6.645
29391WAT      O88414   5.842   1.650   2.661
29391WAT     H188415   5.942   1.651   2.655
29391WAT     H288416   5.810   1.556   2.669
29392WAT      O88417   7.818   2.023   3.101
29392WAT     H188418   7.817   2.109   3.153
29392WAT     H288419   7.809   1.946   3.165
29393WAT      O88420   9.565   1.075   3.163
29393WAT     H188421   9.655   1.034   3.178
29393WAT     H288422   9.548   1.145   3.233
29394WAT      O88423   2.781   2.496   0.480
29394WAT     H188424   2.809   2.573   0.422
29394WAT     H288425   2.729   2.431   0.425
29395WAT      O88426   1.833   9.199   2.677
29395WAT     H188427   1.870   9.255   2.751
29395WAT     H288428   1.876   9.109   2.678
29396WAT      O88429   3.453   8.733   4.383
29396WAT     H188430   3.354   8.722   4.367
29396WAT     H288431   3.502   8.664   4.331
29397WAT      O88432   3.812   0.300   6.486
29397WAT     H188433   3.871   0.265   6.559
29397WAT     H288434   3.752   0.371   6.523
29398WAT      O88435   7.602   2.158   4.561
29398WAT     H188436   7.598   2.144   4.462
29398WAT     H288437   7.546   2.089   4.606
29399WAT      O88438   5.539   9.459   1.153
29399WAT     H188439   5.571   9.376   1.197
29399WAT     H288440   5.617   9.509   1.115
29400WAT      O88441   2.964   1.527   3.359
29400WAT     H188442   2.975   1.623   3.385
29400WAT     H288443   2.878   1.515   3.310
29401WAT      O88444   4.193   1.302   3.533
29401WAT     H188445   4.192   1.359   3.451
29401WAT     H288446   4.287   1.279   3.556
29402WAT      O88447   9.183   5.382   3.045
29402WAT     H188448   9.194   5.305   3.108
29402WAT     H288449   9.260   5.445   3.056
29403WAT      O88450   4.439   8.831   6.265
29403WAT     H188451   4.481   8.755   6.215
29403WAT     H288452   4.388   8.888   6.201
29404WAT      O88453   6.201   2.901   5.398
29404WAT     H188454   6.211   2.835   5.323
29404WAT     H288455   6.176   2.852   5.481
29405WAT      O88456   5.960   4.807   4.405
29405WAT     H188457   5.986   4.887   4.458
29405WAT     H288458   6.033   4.784   4.341
29406WAT      O88459   3.592   8.062   0.671
29406WAT     H188460   3.609   8.148   0.622
29406WAT     H288461   3.636   7.987   0.621
29407WAT      O88462   3.126   4.037   7.179
29407WAT     H188463   3.151   3.997   7.267
29407WAT     H288464   3.037   4.001   7.150
29408WAT      O88465   6.385   2.243   2.596
29408WAT     H188466   6.436   2.299   2.531
29408WAT     H288467   6.441   2.163   2.621
29409WAT      O88468   0.807   8.119   1.356
29409WAT     H188469   0.795   8.026   1.320
29409WAT     H288470   0.896   8.154   1.326
29410WAT      O88471   7.443   4.909   0.155
29410WAT     H188472   7.534   4.927   0.194
29410WAT     H288473   7.403   4.994   0.122
29411WAT      O88474   0.225   1.390   3.477
29411WAT     H188475   0.200   1.464   3.539
29411WAT     H288476   0.209   1.419   3.383
29412WAT      O88477   7.317   7.653   2.983
29412WAT     H188478   7.233   7.599   2.996
29412WAT     H288479   7.294   7.750   2.978
29413WAT      O88480   2.090   0.671   6.317
29413WAT     H188481   2.071   0.580   6.279
29413WAT     H288482   2.111   0.734   6.243
29414WAT      O88483   4.088   2.901   1.804
29414WAT     H188484   4.161   2.879   1.868
29414WAT     H288485   4.009   2.937   1.854
29415WAT      O88486   4.639   7.732   6.950
29415WAT     H188487   4.732   7.697   6.949
29415WAT     H288488   4.592   7.702   7.033
29416WAT      O88489   7.518   6.657   5.945
29416WAT     H188490   7.531   6.756   5.937
29416WAT     H288491   7.475   6.635   6.032
29417WAT      O88492   7.630   2.167   7.248
29417WAT     H188493   7.648   2.076   7.211
29417WAT     H288494   7.671   2.174   7.339
29418WAT      O88495   2.153   2.928   4.481
29418WAT     H188496   2.247   2.923   4.447
29418WAT     H288497   2.101   2.850   4.446
29419WAT      O88498   9.465   3.901   5.261
29419WAT     H188499   9.528   3.831   5.297
29419WAT     H288500   9.420   3.865   5.180
29420WAT      O88501   5.901   4.906   0.271
29420WAT     H188502   5.962   4.879   0.347
29420WAT     H288503   5.820   4.951   0.308
29421WAT      O88504   3.393   9.408   8.593
29421WAT     H188505   3.408   9.446   8.502
29421WAT     H288506   3.402   9.481   8.661
29422WAT      O88507   5.932   9.475   0.355
29422WAT     H188508   5.873   9.414   0.303
29422WAT     H288509   5.908   9.570   0.334
29423WAT      O88510   2.887   2.027   6.362
29423WAT     H188511   2.801   2.076   6.377
29423WAT     H288512   2.910   1.974   6.444
29424WAT      O88513   9.518   5.605   3.776
29424WAT     H188514   9.445   5.537   3.784
29424WAT     H288515   9.478   5.693   3.749
29425WAT      O88516   4.319   7.965   0.242
29425WAT     H188517   4.354   8.046   0.289
29425WAT     H288518   4.227   7.944   0.276
29426WAT      O88519   4.586   7.887   8.820
29426WAT     H188520   4.616   7.940   8.741
29426WAT     H288521   4.497   7.922   8.851
29427WAT      O88522   4.791   0.771   5.050
29427WAT     H188523   4.792   0.723   4.962
29427WAT     H288524   4.699   0.803   5.070
29428WAT      O88525   8.225   0.502   9.858
29428WAT     H188526   8.227   0.575   9.927
29428WAT     H288527   8.318   0.467   9.845
29429WAT      O88528   1.081   1.571   3.047
29429WAT     H188529   0.995   1.538   3.008
29429WAT     H288530   1.136   1.493   3.078
29430WAT      O88531   0.162   4.223   6.182
29430WAT     H188532   0.088   4.182   6.235
29430WAT     H288533   0.250   4.192   6.219
29431WAT      O88534   8.254   7.348   6.487
29431WAT     H188535   8.336   7.294   6.466
29431WAT     H288536   8.255   7.432   6.434
29432WAT      O88537   1.078   4.379   5.730
29432WAT     H188538   1.000   4.318   5.715
29432WAT     H288539   1.141   4.336   5.795
29433WAT      O88540   8.801   8.420   0.644
29433WAT     H188541   8.821   8.474   0.726
29433WAT     H288542   8.704   8.428   0.621
29434WAT      O88543   6.183   7.403   7.543
29434WAT     H188544   6.227   7.446   7.622
29434WAT     H288545   6.084   7.410   7.553
29435WAT      O88546   1.550   3.042   8.015
29435WAT     H188547   1.573   2.957   8.062
29435WAT     H288548   1.475   3.026   7.951
29436WAT      O88549   1.257   6.457   9.399
29436WAT     H188550   1.344   6.481   9.443
29436WAT     H288551   1.275   6.390   9.326
29437WAT      O88552   3.116   3.076   6.487
29437WAT     H188553   3.104   3.074   6.388
29437WAT     H288554   3.178   3.151   6.512
29438WAT      O88555   0.878   5.047   1.840
29438WAT     H188556   0.875   4.967   1.780
29438WAT     H288557   0.871   5.017   1.935
29439WAT      O88558   4.564   0.910   6.513
29439WAT     H188559   4.602   0.877   6.599
29439WAT     H288560   4.571   1.009   6.510
29440WAT      O88561   2.215   6.167   3.560
29440WAT     H188562   2.173   6.169   3.469
29440WAT     H288563   2.149   6.201   3.627
29441WAT      O88564   5.039   2.403   5.259
29441WAT     H188565   5.010   2.420   5.165
29441WAT     H288566   5.139   2.390   5.262
29442WAT      O88567   4.991   0.721   5.731
29442WAT     H188568   4.947   0.732   5.642
29442WAT     H288569   5.066   0.787   5.739
29443WAT      O88570   8.995   1.065   4.282
29443WAT     H188571   8.927   1.113   4.337
29443WAT     H288572   9.085   1.106   4.296
29444WAT      O88573   8.263   6.411   0.463
29444WAT     H188574   8.234   6.323   0.425
29444WAT     H288575   8.350   6.438   0.421
29445WAT      O88576   1.984   0.814   1.559
29445WAT     H188577   1.965   0.882   1.488
29445WAT     H288578   2.049   0.852   1.625
29446WAT      O88579   4.211   5.195   0.789
29446WAT     H188580   4.290   5.248   0.820
29446WAT     H288581   4.127   5.245   0.810
29447WAT      O88582   9.730   0.129   2.784
29447WAT     H188583   9.732   0.213   2.839
29447WAT     H288584   9.810   0.073   2.805
29448WAT      O88585   5.998   1.101   1.257
29448WAT     H188586   6.063   1.175   1.240
29448WAT     H288587   5.985   1.048   1.173
29449WAT      O88588   7.145   0.609   7.522
29449WAT     H188589   7.091   0.530   7.493
29449WAT     H288590   7.195   0.586   7.606
29450WAT      O88591   3.084   6.676   9.451
29450WAT     H188592   3.146   6.638   9.520
29450WAT     H288593   3.098   6.629   9.364
29451WAT      O88594   2.265   5.252   5.243
29451WAT     H188595   2.322   5.208   5.173
29451WAT     H288596   2.275   5.204   5.330
29452WAT      O88597   8.412   6.527   7.767
29452WAT     H188598   8.479   6.455   7.783
29452WAT     H288599   8.393   6.533   7.669
29453WAT      O88600   2.978   4.092   8.614
29453WAT     H188601   2.945   4.171   8.561
29453WAT     H288602   3.078   4.085   8.604
29454WAT      O88603   8.252   5.741   0.480
29454WAT     H188604   8.209   5.679   0.545
29454WAT     H288605   8.309   5.688   0.417
29455WAT      O88606   2.691   0.127   9.720
29455WAT     H188607   2.636   0.107   9.639
29455WAT     H288608   2.704   0.043   9.772
29456WAT      O88609   1.373   9.524   7.778
29456WAT     H188610   1.462   9.504   7.818
29456WAT     H288611   1.304   9.534   7.850
29457WAT      O88612   3.572   2.423   2.636
29457WAT     H188613   3.553   2.434   2.734
29457WAT     H288614   3.613   2.333   2.620
29458WAT      O88615   3.670   0.092   6.959
29458WAT     H188616   3.695   0.186   6.982
29458WAT     H288617   3.635   0.046   7.040
29459WAT      O88618   6.946   5.342   7.230
29459WAT     H188619   6.894   5.295   7.302
29459WAT     H288620   6.924   5.301   7.142
29460WAT      O88621   3.024   8.215   6.194
29460WAT     H188622   2.980   8.161   6.122
29460WAT     H288623   3.120   8.232   6.169
29461WAT      O88624   3.406   6.079   9.184
29461WAT     H188625   3.471   6.120   9.248
29461WAT     H288626   3.421   5.980   9.179
29462WAT      O88627   2.609   4.347   2.078
29462WAT     H188628   2.585   4.271   2.139
29462WAT     H288629   2.537   4.360   2.010
29463WAT      O88630   1.268   0.884   3.799
29463WAT     H188631   1.243   0.947   3.872
29463WAT     H288632   1.197   0.813   3.790
29464WAT      O88633   0.645   4.319   3.895
29464WAT     H188634   0.723   4.340   3.953
29464WAT     H288635   0.560   4.338   3.945
29465WAT      O88636   8.561   8.533   8.511
29465WAT     H188637   8.621   8.601   8.554
29465WAT     H288638   8.599   8.506   8.423
29466WAT      O88639   9.675   7.560   4.380
29466WAT     H188640   9.744   7.513   4.325
29466WAT     H288641   9.603   7.496   4.405
29467WAT      O88642   3.362   6.346   5.128
29467WAT     H188643   3.366   6.409   5.051
29467WAT     H288644   3.320   6.260   5.099
29468WAT      O88645   3.490   9.838   7.408
29468WAT     H188646   3.523   9.765   7.468
29468WAT     H288647   3.393   9.856   7.427
29469WAT      O88648   5.182   7.109   4.426
29469WAT     H188649   5.167   7.031   4.366
29469WAT     H288650   5.112   7.178   4.408
29470WAT      O88651   7.380   3.826   1.870
29470WAT     H188652   7.386   3.795   1.775
29470WAT     H288653   7.376   3.747   1.931
29471WAT      O88654   9.091   3.292   2.912
29471WAT     H188655   9.165   3.319   2.974
29471WAT     H288656   9.074   3.365   2.846
29472WAT      O88657   6.137   9.173   3.197
29472WAT     H188658   6.198   9.252   3.190
29472WAT     H288659   6.176   9.096   3.146
29473WAT      O88660   8.804   9.172   5.010
29473WAT     H188661   8.876   9.211   4.952
29473WAT     H288662   8.738   9.244   5.033
29474WAT      O88663   6.563   9.058   8.991
29474WAT     H188664   6.536   8.968   8.957
29474WAT     H288665   6.663   9.065   8.989
29475WAT      O88666   3.291   0.950   0.053
29475WAT     H188667   3.270   0.868   0.107
29475WAT     H288668   3.213   1.013   0.056
29476WAT      O88669   9.284   3.554   2.351
29476WAT     H188670   9.301   3.637   2.404
29476WAT     H288671   9.369   3.527   2.306
29477WAT      O88672   2.065   7.087   8.966
29477WAT     H188673   2.015   7.001   8.975
29477WAT     H288674   2.025   7.141   8.892
29478WAT      O88675   8.686   4.607   9.758
29478WAT     H188676   8.661   4.703   9.775
29478WAT     H288677   8.785   4.599   9.755
29479WAT      O88678   1.513   9.742   8.514
29479WAT     H188679   1.606   9.767   8.486
29479WAT     H288680   1.477   9.674   8.450
29480WAT      O88681   6.044   5.591   0.028
29480WAT     H188682   6.143   5.601   0.019
29480WAT     H288683   6.009   5.658   0.093
29481WAT      O88684   8.944   6.096   9.088
29481WAT     H188685   9.029   6.104   9.139
29481WAT     H288686   8.874   6.155   9.128
29482WAT      O88687   3.538   2.620   8.356
29482WAT     H188688   3.451   2.631   8.309
29482WAT     H288689   3.610   2.666   8.303
29483WAT      O88690   6.539   9.332   5.088
29483WAT     H188691   6.474   9.328   5.012
29483WAT     H288692   6.578   9.241   5.103
29484WAT      O88693   9.839   6.711   0.121
29484WAT     H188694   9.914   6.655   0.157
29484WAT     H288695   9.776   6.733   0.195
29485WAT      O88696   8.100   5.891   9.389
29485WAT     H188697   8.166   5.854   9.454
29485WAT     H288698   8.149   5.945   9.319
29486WAT      O88699   1.207   9.163   5.832
29486WAT     H188700   1.269   9.214   5.772
29486WAT     H288701   1.249   9.154   5.923
29487WAT      O88702   0.533   4.605   6.491
29487WAT     H188703   0.501   4.658   6.570
29487WAT     H288704   0.521   4.660   6.408
29488WAT      O88705   3.164   2.780   0.592
29488WAT     H188706   3.076   2.816   0.623
29488WAT     H288707   3.148   2.698   0.536
29489WAT      O88708   1.190   0.904   8.655
29489WAT     H188709   1.120   0.840   8.624
29489WAT     H288710   1.169   0.995   8.621
29490WAT      O88711   6.809   2.732   8.309
29490WAT     H188712   6.732   2.674   8.283
29490WAT     H288713   6.868   2.684   8.374
29491WAT      O88714   4.790   7.821   7.545
29491WAT     H188715   4.756   7.849   7.634
29491WAT     H288716   4.755   7.730   7.524
29492WAT      O88717   8.914   0.884   2.461
29492WAT     H188718   9.007   0.879   2.427
29492WAT     H288719   8.897   0.975   2.500
29493WAT      O88720   8.630   9.444   7.090
29493WAT     H188721   8.609   9.358   7.135
29493WAT     H288722   8.716   9.481   7.125
29494WAT      O88723   5.052   9.185   1.132
29494WAT     H188724   5.114   9.213   1.060
29494WAT     H288725   4.967   9.150   1.092
29495WAT      O88726   4.127   4.859   0.528
29495WAT     H188727   4.032   4.833   0.511
29495WAT     H288728   4.186   4.780   0.513
29496WAT      O88729   3.081   0.542   2.802
29496WAT     H188730   3.014   0.577   2.737
29496WAT     H288731   3.173   0.570   2.774
29497WAT      O88732   2.777   0.033   4.174
29497WAT     H188733   2.740  -0.058   4.195
29497WAT     H288734   2.823   0.030   4.086
29498WAT      O88735   3.828   7.859   6.450
29498WAT     H188736   3.771   7.777   6.454
29498WAT     H288737   3.905   7.843   6.389
29499WAT      O88738   3.549   4.163   1.890
29499WAT     H188739   3.520   4.107   1.967
29499WAT     H288740   3.638   4.132   1.857
29500WAT      O88741   1.136   2.886   4.537
29500WAT     H188742   1.223   2.930   4.517
29500WAT     H288743   1.061   2.943   4.505
29501WAT      O88744   6.084   9.516   7.004
29501WAT     H188745   6.006   9.577   6.990
29501WAT     H288746   6.122   9.531   7.095
29502WAT      O88747   0.972   7.050   5.858
29502WAT     H188748   1.013   7.116   5.794
29502WAT     H288749   0.999   6.957   5.832
29503WAT      O88750   8.853   6.080   0.022
29503WAT     H188751   8.807   6.068  -0.066
29503WAT     H288752   8.794   6.132   0.084
29504WAT      O88753   2.308   5.651   1.846
29504WAT     H188754   2.377   5.723   1.851
29504WAT     H288755   2.352   5.565   1.821
29505WAT      O88756   9.828   8.312   9.402
29505WAT     H188757   9.920   8.309   9.365
29505WAT     H288758   9.762   8.320   9.327
29506WAT      O88759   3.631   6.172   8.794
29506WAT     H188760   3.556   6.222   8.750
29506WAT     H288761   3.603   6.078   8.811
29507WAT      O88762   2.181   7.949   0.357
29507WAT     H188763   2.196   8.012   0.434
29507WAT     H288764   2.129   7.870   0.389
29508WAT      O88765   4.939   3.097   5.596
29508WAT     H188766   4.845   3.065   5.604
29508WAT     H288767   4.945   3.169   5.528
29509WAT      O88768   2.646   6.743   4.741
29509WAT     H188769   2.626   6.788   4.654
29509WAT     H288770   2.745   6.730   4.749
29510WAT      O88771   2.754   4.755   6.712
29510WAT     H188772   2.719   4.807   6.634
29510WAT     H288773   2.704   4.669   6.720
29511WAT      O88774   1.027   2.754   5.134
29511WAT     H188775   0.957   2.705   5.186
29511WAT     H288776   1.018   2.731   5.037
29512WAT      O88777   4.631   4.777   9.679
29512WAT     H188778   4.607   4.684   9.707
29512WAT     H288779   4.727   4.794   9.700
29513WAT      O88780   2.308   9.339   8.161
29513WAT     H188781   2.360   9.390   8.093
29513WAT     H288782   2.292   9.246   8.128
29514WAT      O88783   4.467   8.775   4.075
29514WAT     H188784   4.558   8.814   4.065
29514WAT     H288785   4.398   8.846   4.061
29515WAT      O88786   9.487   2.918   0.056
29515WAT     H188787   9.411   2.976   0.029
29515WAT     H288788   9.537   2.887  -0.026
29516WAT      O88789   3.941   5.788   3.165
29516WAT     H188790   3.851   5.745   3.161
29516WAT     H288791   3.971   5.812   3.072
29517WAT      O88792   9.062   6.049   6.097
29517WAT     H188793   9.120   6.007   6.167
29517WAT     H288794   9.027   5.978   6.036
29518WAT      O88795   1.742   2.644   4.094
29518WAT     H188796   1.818   2.655   4.031
29518WAT     H288797   1.749   2.556   4.140
29519WAT      O88798   0.592   5.144   0.633
29519WAT     H188799   0.559   5.068   0.690
29519WAT     H288800   0.561   5.131   0.539
29520WAT      O88801   3.719   7.418   2.750
29520WAT     H188802   3.757   7.329   2.727
29520WAT     H288803   3.713   7.427   2.850
29521WAT      O88804   3.484   0.448   5.392
29521WAT     H188805   3.486   0.461   5.293
29521WAT     H288806   3.393   0.472   5.427
29522WAT      O88807   8.337   7.200   0.662
29522WAT     H188808   8.391   7.254   0.597
29522WAT     H288809   8.243   7.233   0.663
29523WAT      O88810   5.616   4.047   5.240
29523WAT     H188811   5.602   4.062   5.142
29523WAT     H288812   5.584   4.126   5.291
29524WAT      O88813   6.746   2.119   5.884
29524WAT     H188814   6.789   2.169   5.809
29524WAT     H288815   6.812   2.055   5.924
29525WAT      O88816   2.935   5.859   4.777
29525WAT     H188817   2.933   5.770   4.732
29525WAT     H288818   2.860   5.915   4.743
29526WAT      O88819   6.882   2.260   5.672
29526WAT     H188820   6.889   2.337   5.737
29526WAT     H288821   6.973   2.236   5.639
29527WAT      O88822   7.717   0.815   1.593
29527WAT     H188823   7.707   0.803   1.494
29527WAT     H288824   7.631   0.789   1.638
29528WAT      O88825   6.417   5.485   3.067
29528WAT     H188826   6.403   5.470   2.969
29528WAT     H288827   6.381   5.407   3.118
29529WAT      O88828   3.863   4.713   6.856
29529WAT     H188829   3.796   4.684   6.925
29529WAT     H288830   3.892   4.634   6.802
29530WAT      O88831   9.089   0.666   8.791
29530WAT     H188832   9.172   0.719   8.772
29530WAT     H288833   9.096   0.623   8.881
29531WAT      O88834   0.516   4.493   3.531
29531WAT     H188835   0.549   4.415   3.477
29531WAT     H288836   0.416   4.488   3.540
29532WAT      O88837   7.413   5.238   6.998
29532WAT     H188838   7.390   5.227   6.902
29532WAT     H288839   7.425   5.335   7.019
29533WAT      O88840   7.166   7.108   0.687
29533WAT     H188841   7.179   7.207   0.700
29533WAT     H288842   7.247   7.060   0.720
29534WAT      O88843   0.776   0.247   6.361
29534WAT     H188844   0.779   0.149   6.381
29534WAT     H288845   0.869   0.281   6.347
29535WAT      O88846   9.247   8.050   3.536
29535WAT     H188847   9.317   8.045   3.466
29535WAT     H288848   9.288   8.082   3.622
29536WAT      O88849   0.368   7.780   6.489
29536WAT     H188850   0.350   7.878   6.493
29536WAT     H288851   0.371   7.742   6.582
29537WAT      O88852   0.930   0.686   4.956
29537WAT     H188853   0.897   0.780   4.947
29537WAT     H288854   0.996   0.667   4.883
29538WAT      O88855   8.626   5.272   5.879
29538WAT     H188856   8.591   5.349   5.933
29538WAT     H288857   8.659   5.201   5.941
29539WAT      O88858   8.975   0.647   5.982
29539WAT     H188859   9.028   0.589   5.920
29539WAT     H288860   9.036   0.691   6.047
29540WAT      O88861   1.023   1.530   5.522
29540WAT     H188862   0.976   1.461   5.577
29540WAT     H288863   1.022   1.618   5.570
29541WAT      O88864   1.268   8.189   4.365
29541WAT     H188865   1.194   8.217   4.427
29541WAT     H288866   1.262   8.242   4.280
29542WAT      O88867   4.689   5.817   9.295
29542WAT     H188868   4.592   5.838   9.286
29542WAT     H288869   4.733   5.887   9.350
29543WAT      O88870   1.402   9.076   6.578
29543WAT     H188871   1.355   9.040   6.659
29543WAT     H288872   1.492   9.110   6.604
29544WAT      O88873   3.650   9.171   5.284
29544WAT     H188874   3.599   9.109   5.344
29544WAT     H288875   3.674   9.123   5.200
29545WAT      O88876   9.244   6.445   5.622
29545WAT     H188877   9.327   6.390   5.607
29545WAT     H288878   9.211   6.430   5.715
29546WAT      O88879   9.459   3.494   8.988
29546WAT     H188880   9.476   3.407   9.034
29546WAT     H288881   9.399   3.551   9.045
29547WAT      O88882   1.292   1.116   2.293
29547WAT     H188883   1.231   1.162   2.229
29547WAT     H288884   1.299   1.169   2.377
29548WAT      O88885   6.403   8.164   2.074
29548WAT     H188886   6.327   8.193   2.016
29548WAT     H288887   6.488   8.201   2.037
29549WAT      O88888   9.443   1.406   4.877
29549WAT     H188889   9.514   1.343   4.909
29549WAT     H288890   9.399   1.368   4.796
29550WAT      O88891   2.329   9.662   8.688
29550WAT     H188892   2.268   9.729   8.730
29550WAT     H288893   2.355   9.594   8.756
29551WAT      O88894   0.807   2.766   0.384
29551WAT     H188895   0.741   2.733   0.317
29551WAT     H288896   0.759   2.809   0.460
29552WAT      O88897   8.430   0.155   1.580
29552WAT     H188898   8.429   0.221   1.656
29552WAT     H288899   8.410   0.202   1.494
29553WAT      O88900   6.603   1.793   9.093
29553WAT     H188901   6.510   1.763   9.073
29553WAT     H288902   6.605   1.893   9.095
29554WAT      O88903   2.848   4.625   7.147
29554WAT     H188904   2.877   4.717   7.120
29554WAT     H288905   2.748   4.620   7.151
29555WAT      O88906   9.841   4.236   8.041
29555WAT     H188907   9.796   4.171   8.102
29555WAT     H288908   9.894   4.302   8.095
29556WAT      O88909   4.694   0.673   9.649
29556WAT     H188910   4.717   0.700   9.742
29556WAT     H288911   4.613   0.724   9.618
29557WAT      O88912   0.288   7.084   0.008
29557WAT     H188913   0.311   7.164   0.063
29557WAT     H288914   0.320   7.001   0.056
29558WAT      O88915   0.647   4.959   8.959
29558WAT     H188916   0.684   5.015   9.034
29558WAT     H288917   0.707   4.881   8.944
29559WAT      O88918   6.246   8.810   7.627
29559WAT     H188919   6.273   8.729   7.679
29559WAT     H288920   6.169   8.787   7.568
29560WAT      O88921   1.670   3.190   5.819
29560WAT     H188922   1.735   3.220   5.749
29560WAT     H288923   1.613   3.267   5.847
29561WAT      O88924   2.680   9.706   5.416
29561WAT     H188925   2.738   9.722   5.496
29561WAT     H288926   2.654   9.610   5.412
29562WAT      O88927   9.676   0.102   0.857
29562WAT     H188928   9.761   0.082   0.906
29562WAT     H288929   9.651   0.024   0.800
29563WAT      O88930   2.948   7.565   7.031
29563WAT     H188931   3.036   7.602   7.061
29563WAT     H288932   2.909   7.624   6.961
29564WAT      O88933   6.986   7.603   6.149
29564WAT     H188934   6.908   7.665   6.155
29564WAT     H288935   7.001   7.577   6.053
29565WAT      O88936   2.614   3.562   4.737
29565WAT     H188937   2.591   3.471   4.771
29565WAT     H288938   2.695   3.595   4.785
29566WAT      O88939   1.808   3.107   7.307
29566WAT     H188940   1.878   3.172   7.335
29566WAT     H288941   1.745   3.090   7.383
29567WAT      O88942   1.668   3.917   7.423
29567WAT     H188943   1.603   3.866   7.368
29567WAT     H288944   1.620   3.990   7.472
29568WAT      O88945   2.023   8.849   1.112
29568WAT     H188946   1.996   8.812   1.023
29568WAT     H288947   2.119   8.827   1.129
29569WAT      O88948   2.726   9.603   7.765
29569WAT     H188949   2.703   9.674   7.831
29569WAT     H288950   2.731   9.515   7.811
29570WAT      O88951   1.758   3.240   9.292
29570WAT     H188952   1.763   3.305   9.216
29570WAT     H288953   1.668   3.246   9.335
29571WAT      O88954   0.484   7.798   1.919
29571WAT     H188955   0.546   7.786   1.842
29571WAT     H288956   0.414   7.866   1.895
29572WAT      O88957   3.379   8.035   0.882
29572WAT     H188958   3.428   8.070   0.801
29572WAT     H288959   3.434   8.052   0.964
29573WAT      O88960   9.044   2.444   5.807
29573WAT     H188961   9.044   2.487   5.897
29573WAT     H288962   9.120   2.380   5.801
29574WAT      O88963   0.797   0.003   4.628
29574WAT     H188964   0.813   0.097   4.655
29574WAT     H288965   0.742   0.001   4.544
29575WAT      O88966   9.043   1.884   8.387
29575WAT     H188967   9.033   1.923   8.479
29575WAT     H288968   8.979   1.808   8.376
29576WAT      O88969   1.742   1.386   8.784
29576WAT     H188970   1.744   1.478   8.822
29576WAT     H288971   1.836   1.351   8.777
29577WAT      O88972   6.817   6.626   5.937
29577WAT     H188973   6.791   6.611   6.033
29577WAT     H288974   6.902   6.578   5.917
29578WAT      O88975   6.769   3.880   6.761
29578WAT     H188976   6.828   3.862   6.682
29578WAT     H288977   6.811   3.842   6.843
29579WAT      O88978   6.075   8.773   8.458
29579WAT     H188979   6.141   8.786   8.532
29579WAT     H288980   6.124   8.765   8.371
29580WAT      O88981   7.211   8.744   6.026
29580WAT     H188982   7.211   8.647   6.048
29580WAT     H288983   7.126   8.767   5.978
29581WAT      O88984   0.059   9.623   7.521
29581WAT     H188985   0.057   9.567   7.439
29581WAT     H288986   0.125   9.697   7.510
29582WAT      O88987   6.720   1.256   9.890
29582WAT     H188988   6.693   1.162   9.912
29582WAT     H288989   6.810   1.255   9.848
29583WAT      O88990   1.061   2.204   4.994
29583WAT     H188991   0.985   2.176   5.054
29583WAT     H288992   1.044   2.170   4.902
29584WAT      O88993   1.538   0.341   5.733
29584WAT     H188994   1.572   0.430   5.704
29584WAT     H288995   1.511   0.345   5.829
29585WAT      O88996   8.767   6.303   9.210
29585WAT     H188997   8.675   6.289   9.247
29585WAT     H288998   8.799   6.394   9.236
29586WAT      O88999   6.554   9.002   4.266
29586WAT     H189000   6.536   9.080   4.325
29586WAT     H289001   6.589   9.035   4.178
29587WAT      O89002   1.339   4.267   8.255
29587WAT     H189003   1.349   4.232   8.162
29587WAT     H289004   1.315   4.192   8.316
29588WAT      O89005   2.864   8.271   7.181
29588WAT     H189006   2.853   8.355   7.128
29588WAT     H289007   2.939   8.217   7.143
29589WAT      O89008   0.793   8.061   3.757
29589WAT     H189009   0.883   8.036   3.721
29589WAT     H289010   0.789   8.039   3.854
29590WAT      O89011   2.678   8.665   4.950
29590WAT     H189012   2.659   8.731   4.878
29590WAT     H289013   2.662   8.707   5.039
29591WAT      O89014   2.621   3.851   1.395
29591WAT     H189015   2.539   3.851   1.338
29591WAT     H289016   2.693   3.903   1.349
29592WAT      O89017   3.131   4.269   7.053
29592WAT     H189018   3.034   4.291   7.040
29592WAT     H289019   3.139   4.177   7.091
29593WAT      O89020   4.259   7.794   7.724
29593WAT     H189021   4.318   7.777   7.803
29593WAT     H289022   4.314   7.814   7.644
29594WAT      O89023   6.595   3.008   2.504
29594WAT     H189024   6.553   2.924   2.468
29594WAT     H289025   6.577   3.083   2.440
29595WAT      O89026   5.354   1.731   8.626
29595WAT     H189027   5.294   1.766   8.698
29595WAT     H289028   5.363   1.800   8.554
29596WAT      O89029   2.884   0.706   9.502
29596WAT     H189030   2.931   0.674   9.585
29596WAT     H289031   2.787   0.684   9.509
29597WAT      O89032   6.091   0.570   5.863
29597WAT     H189033   6.139   0.656   5.847
29597WAT     H289034   6.028   0.581   5.941
29598WAT      O89035   6.733   5.303   4.076
29598WAT     H189036   6.693   5.298   3.984
29598WAT     H289037   6.671   5.262   4.142
29599WAT      O89038   2.681   5.833   3.828
29599WAT     H189039   2.670   5.883   3.914
29599WAT     H289040   2.711   5.896   3.757
29600WAT      O89041   6.621   7.140   5.153
29600WAT     H189042   6.527   7.132   5.121
29600WAT     H289043   6.666   7.218   5.107
29601WAT      O89044   3.564   9.244   0.550
29601WAT     H189045   3.539   9.149   0.572
29601WAT     H289046   3.617   9.282   0.625
29602WAT      O89047   4.767   4.890   0.558
29602WAT     H189048   4.669   4.899   0.576
29602WAT     H289049   4.783   4.809   0.502
29603WAT      O89050   1.296   2.785   1.089
29603WAT     H189051   1.251   2.696   1.094
29603WAT     H289052   1.392   2.773   1.065
29604WAT      O89053   5.467   8.072   4.753
29604WAT     H189054   5.405   8.146   4.778
29604WAT     H289055   5.519   8.098   4.671
29605WAT      O89056   6.876   8.384   1.974
29605WAT     H189057   6.907   8.336   1.892
29605WAT     H289058   6.901   8.481   1.966
29606WAT      O89059   4.178   3.947   2.678
29606WAT     H189060   4.081   3.966   2.690
29606WAT     H289061   4.232   4.003   2.741
29607WAT      O89062   8.210   6.528   4.569
29607WAT     H189063   8.214   6.465   4.491
29607WAT     H289064   8.258   6.487   4.647
29608WAT      O89065   7.153   0.597   9.033
29608WAT     H189066   7.247   0.631   9.028
29608WAT     H289067   7.116   0.585   8.940
29609WAT      O89068   9.318   7.917   1.862
29609WAT     H189069   9.364   7.952   1.944
29609WAT     H289070   9.324   7.985   1.789
29610WAT      O89071   8.572   7.387   2.724
29610WAT     H189072   8.606   7.470   2.680
29610WAT     H289073   8.477   7.401   2.752
29611WAT      O89074   8.522   3.020   5.606
29611WAT     H189075   8.585   3.069   5.547
29611WAT     H289076   8.438   3.073   5.618
29612WAT      O89077   6.191   8.761   4.981
29612WAT     H189078   6.187   8.789   5.078
29612WAT     H289079   6.242   8.676   4.973
29613WAT      O89080   2.876   3.059   2.427
29613WAT     H189081   2.810   3.127   2.458
29613WAT     H289082   2.896   2.995   2.501
29614WAT      O89083   3.614   8.580   5.285
29614WAT     H189084   3.642   8.663   5.333
29614WAT     H289085   3.690   8.545   5.232
29615WAT      O89086   5.332   5.437   1.171
29615WAT     H189087   5.275   5.426   1.252
29615WAT     H289088   5.424   5.402   1.189
29616WAT      O89089   3.916   8.412   3.889
29616WAT     H189090   3.866   8.482   3.838
29616WAT     H289091   3.994   8.382   3.835
29617WAT      O89092   0.302   5.606   9.324
29617WAT     H189093   0.335   5.516   9.351
29617WAT     H289094   0.216   5.597   9.275
29618WAT      O89095   4.476   3.703   8.386
29618WAT     H189096   4.533   3.757   8.324
29618WAT     H289097   4.381   3.733   8.379
29619WAT      O89098   6.192   4.362   2.473
29619WAT     H189099   6.163   4.433   2.537
29619WAT     H289100   6.112   4.325   2.425
29620WAT      O89101   7.256   4.683   8.200
29620WAT     H189102   7.170   4.646   8.236
29620WAT     H289103   7.326   4.612   8.201
29621WAT      O89104   8.479   7.225   6.652
29621WAT     H189105   8.381   7.209   6.663
29621WAT     H289106   8.495   7.280   6.570
29622WAT      O89107   0.754   2.776   3.482
29622WAT     H189108   0.816   2.734   3.416
29622WAT     H289109   0.795   2.861   3.516
29623WAT      O89110   0.892   9.749   8.522
29623WAT     H189111   0.973   9.785   8.567
29623WAT     H289112   0.811   9.770   8.577
29624WAT      O89113   9.773   7.979   5.593
29624WAT     H189114   9.735   8.025   5.674
29624WAT     H289115   9.764   8.039   5.514
29625WAT      O89116   6.182   7.070   1.748
29625WAT     H189117   6.217   7.158   1.716
29625WAT     H289118   6.085   7.063   1.727
29626WAT      O89119   7.479   7.736   6.925
29626WAT     H189120   7.545   7.677   6.877
29626WAT     H289121   7.392   7.734   6.877
29627WAT      O89122   5.378   8.938   1.610
29627WAT     H189123   5.354   8.920   1.515
29627WAT     H289124   5.449   8.875   1.640
29628WAT      O89125   4.103   6.393   8.236
29628WAT     H189126   4.192   6.367   8.275
29628WAT     H289127   4.095   6.356   8.143
29629WAT      O89128   4.396   4.968   6.874
29629WAT     H189129   4.368   4.920   6.791
29629WAT     H289130   4.474   5.027   6.854
29630WAT      O89131   3.639   9.677   5.079
29630WAT     H189132   3.583   9.675   4.996
29630WAT     H289133   3.583   9.652   5.158
29631WAT      O89134   3.573   0.793   8.427
29631WAT     H189135   3.521   0.721   8.473
29631WAT     H289136   3.515   0.874   8.416
29632WAT      O89137   7.819   0.217   8.631
29632WAT     H189138   7.822   0.211   8.531
29632WAT     H289139   7.810   0.125   8.669
29633WAT      O89140   3.869   7.025   7.374
29633WAT     H189141   3.789   7.078   7.403
29633WAT     H289142   3.949   7.056   7.425
29634WAT      O89143   4.783   4.760   7.007
29634WAT     H189144   4.800   4.814   6.925
29634WAT     H289145   4.689   4.774   7.038
29635WAT      O89146   0.200   2.446   6.563
29635WAT     H189147   0.145   2.522   6.598
29635WAT     H289148   0.297   2.470   6.566
29636WAT      O89149   2.374   7.759   1.096
29636WAT     H189150   2.359   7.837   1.035
29636WAT     H289151   2.471   7.733   1.092
29637WAT      O89152   9.247   0.887   3.948
29637WAT     H189153   9.243   0.987   3.942
29637WAT     H289154   9.343   0.859   3.960
29638WAT      O89155   5.766   1.011   3.659
29638WAT     H189156   5.758   0.996   3.561
29638WAT     H289157   5.862   1.027   3.682
29639WAT      O89158   1.497   0.311   8.566
29639WAT     H189159   1.562   0.235   8.570
29639WAT     H289160   1.479   0.335   8.471
29640WAT      O89161   7.933   8.771   9.559
29640WAT     H189162   7.844   8.752   9.600
29640WAT     H289163   7.930   8.859   9.512
29641WAT      O89164   0.889   2.969   4.761
29641WAT     H189165   0.913   2.880   4.800
29641WAT     H289166   0.795   2.993   4.787
29642WAT      O89167   6.795   3.030   1.831
29642WAT     H189168   6.769   2.991   1.919
29642WAT     H289169   6.838   3.119   1.845
29643WAT      O89170   6.415   8.940   3.238
29643WAT     H189171   6.356   8.977   3.166
29643WAT     H289172   6.510   8.943   3.207
29644WAT      O89173   7.598   4.430   7.570
29644WAT     H189174   7.511   4.463   7.534
29644WAT     H289175   7.592   4.424   7.670
29645WAT      O89176   3.551   1.561   4.082
29645WAT     H189177   3.509   1.637   4.132
29645WAT     H289178   3.569   1.485   4.145
29646WAT      O89179   7.510   6.297   3.288
29646WAT     H189180   7.498   6.393   3.311
29646WAT     H289181   7.537   6.246   3.370
29647WAT      O89182   7.779   4.667   3.986
29647WAT     H189183   7.808   4.602   3.916
29647WAT     H289184   7.740   4.748   3.942
29648WAT      O89185   4.337   7.167   5.967
29648WAT     H189186   4.367   7.167   5.872
29648WAT     H289187   4.240   7.190   5.971
29649WAT      O89188   5.384   4.080   2.925
29649WAT     H189189   5.319   4.059   2.853
29649WAT     H289190   5.407   3.996   2.975
29650WAT      O89191   6.491   2.719   9.328
29650WAT     H189192   6.434   2.637   9.332
29650WAT     H289193   6.533   2.734   9.418
29651WAT      O89194   9.331   8.239   3.711
29651WAT     H189195   9.273   8.281   3.640
29651WAT     H289196   9.402   8.303   3.738
29652WAT      O89197   2.857   8.853   8.343
29652WAT     H189198   2.792   8.787   8.304
29652WAT     H289199   2.855   8.847   8.443
29653WAT      O89200   6.077   6.166   6.886
29653WAT     H189201   6.120   6.220   6.814
29653WAT     H289202   6.114   6.073   6.885
29654WAT      O89203   1.383   7.230   6.471
29654WAT     H189204   1.393   7.305   6.536
29654WAT     H289205   1.424   7.255   6.384
29655WAT      O89206   3.494   3.973   5.741
29655WAT     H189207   3.401   4.002   5.762
29655WAT     H289208   3.500   3.873   5.746
29656WAT      O89209   0.425   2.374   5.583
29656WAT     H189210   0.523   2.369   5.560
29656WAT     H289211   0.405   2.463   5.623
29657WAT      O89212   1.768   7.777   2.140
29657WAT     H189213   1.703   7.826   2.082
29657WAT     H289214   1.799   7.837   2.214
29658WAT      O89215   8.958   5.718   8.377
29658WAT     H189216   8.906   5.792   8.420
29658WAT     H289217   8.928   5.630   8.414
29659WAT      O89218   2.847   3.887   6.527
29659WAT     H189219   2.870   3.984   6.532
29659WAT     H289220   2.748   3.877   6.519
29660WAT      O89221   8.975   8.400   5.562
29660WAT     H189222   8.948   8.405   5.658
29660WAT     H289223   9.061   8.351   5.554
29661WAT      O89224   3.789   7.779   4.173
29661WAT     H189225   3.861   7.760   4.106
29661WAT     H289226   3.827   7.827   4.251
29662WAT      O89227   4.059   3.390   1.567
29662WAT     H189228   4.056   3.477   1.519
29662WAT     H289229   4.153   3.371   1.596
29663WAT      O89230   0.959   9.243   6.842
29663WAT     H189231   0.903   9.164   6.866
29663WAT     H289232   0.969   9.302   6.922
29664WAT      O89233   5.656   0.597   3.939
29664WAT     H189234   5.677   0.662   3.866
29664WAT     H289235   5.668   0.504   3.904
29665WAT      O89236   8.242   7.565   2.503
29665WAT     H189237   8.327   7.565   2.450
29665WAT     H289238   8.256   7.518   2.590
29666WAT      O89239   7.118   6.951   3.758
29666WAT     H189240   7.149   6.856   3.770
29666WAT     H289241   7.019   6.951   3.747
29667WAT      O89242   7.263   4.849   1.570
29667WAT     H189243   7.181   4.879   1.620
29667WAT     H289244   7.273   4.903   1.487
29668WAT      O89245   1.409   3.190   8.934
29668WAT     H189246   1.416   3.090   8.931
29668WAT     H289247   1.373   3.224   8.847
29669WAT      O89248   8.465   8.513   5.585
29669WAT     H189249   8.557   8.491   5.552
29669WAT     H289250   8.424   8.582   5.525
29670WAT      O89251   8.817   7.202   4.435
29670WAT     H189252   8.879   7.257   4.379
29670WAT     H289253   8.798   7.248   4.521
29671WAT      O89254   7.097   4.303   5.199
29671WAT     H189255   7.105   4.222   5.257
29671WAT     H289256   7.149   4.378   5.239
29672WAT      O89257   8.786   0.711   9.011
29672WAT     H189258   8.766   0.658   8.928
29672WAT     H289259   8.746   0.802   9.002
29673WAT      O89260   6.946   4.560   0.059
29673WAT     H189261   6.878   4.617   0.104
29673WAT     H289262   6.903   4.507  -0.015
29674WAT      O89263   1.473   2.190   1.322
29674WAT     H189264   1.530   2.271   1.303
29674WAT     H289265   1.390   2.195   1.268
29675WAT      O89266   0.963   8.097   9.051
29675WAT     H189267   0.871   8.058   9.056
29675WAT     H289268   0.957   8.193   9.023
29676WAT      O89269   3.753   8.751   4.767
29676WAT     H189270   3.745   8.787   4.860
29676WAT     H289271   3.661   8.736   4.729
29677WAT      O89272   4.051   0.500   5.953
29677WAT     H189273   4.005   0.589   5.959
29677WAT     H289274   4.116   0.501   5.878
29678WAT      O89275   5.629   2.238   9.234
29678WAT     H189276   5.646   2.257   9.331
29678WAT     H289277   5.676   2.306   9.178
29679WAT      O89278   0.355   4.269   3.865
29679WAT     H189279   0.259   4.276   3.839
29679WAT     H289280   0.374   4.334   3.938
29680WAT      O89281   7.803   3.499   3.628
29680WAT     H189282   7.810   3.599   3.628
29680WAT     H289283   7.890   3.460   3.658
29681WAT      O89284   3.196   0.378   5.286
29681WAT     H189285   3.221   0.291   5.329
29681WAT     H289286   3.183   0.363   5.188
29682WAT      O89287   5.338   2.936   1.624
29682WAT     H189288   5.243   2.961   1.606
29682WAT     H289289   5.349   2.920   1.722
29683WAT      O89290   9.107   1.432   7.786
29683WAT     H189291   9.184   1.486   7.752
29683WAT     H289292   9.141   1.355   7.840
29684WAT      O89293   5.078   6.431   0.613
29684WAT     H189294   5.053   6.466   0.703
29684WAT     H289295   5.161   6.376   0.620
29685WAT      O89296   2.177   8.916   3.157
29685WAT     H189297   2.205   8.955   3.245
29685WAT     H289298   2.077   8.915   3.152
29686WAT      O89299   0.800   0.819   7.801
29686WAT     H189300   0.795   0.728   7.843
29686WAT     H289301   0.787   0.811   7.702
29687WAT      O89302   6.536   3.508   0.227
29687WAT     H189303   6.628   3.544   0.243
29687WAT     H289304   6.541   3.428   0.167
29688WAT      O89305   5.999   3.687   6.854
29688WAT     H189306   6.095   3.681   6.826
29688WAT     H289307   5.994   3.711   6.951
29689WAT      O89308   7.556   4.000   1.962
29689WAT     H189309   7.605   3.942   2.028
29689WAT     H289310   7.488   3.945   1.913
29690WAT      O89311   0.258   7.058   6.630
29690WAT     H189312   0.176   7.017   6.589
29690WAT     H289313   0.327   7.073   6.559
29691WAT      O89314   8.779   4.641   5.150
29691WAT     H189315   8.837   4.664   5.229
29691WAT     H289316   8.765   4.542   5.149
29692WAT      O89317   8.334   6.013   7.924
29692WAT     H189318   8.352   5.918   7.949
29692WAT     H289319   8.396   6.041   7.851
29693WAT      O89320   2.387   0.702   5.356
29693WAT     H189321   2.445   0.642   5.410
29693WAT     H289322   2.403   0.687   5.259
29694WAT      O89323   8.620   3.815   8.370
29694WAT     H189324   8.671   3.887   8.323
29694WAT     H289325   8.678   3.735   8.382
29695WAT      O89326   3.515   1.449   4.805
29695WAT     H189327   3.478   1.538   4.830
29695WAT     H289328   3.537   1.398   4.888
29696WAT      O89329   0.124   3.400   4.890
29696WAT     H189330   0.169   3.404   4.980
29696WAT     H289331   0.157   3.475   4.833
29697WAT      O89332   0.978   6.765   2.794
29697WAT     H189333   0.893   6.771   2.741
29697WAT     H289334   1.026   6.681   2.771
29698WAT      O89335   4.497   2.621   1.574
29698WAT     H189336   4.468   2.588   1.664
29698WAT     H289337   4.416   2.642   1.518
29699WAT      O89338   4.035   6.561   2.723
29699WAT     H189339   3.961   6.599   2.667
29699WAT     H289340   4.095   6.505   2.666
29700WAT      O89341   9.547   5.944   4.149
29700WAT     H189342   9.471   5.943   4.084
29700WAT     H289343   9.523   6.001   4.227
29701WAT      O89344   6.581   9.582   8.050
29701WAT     H189345   6.508   9.522   8.082
29701WAT     H289346   6.609   9.644   8.123
29702WAT      O89347   6.901   1.691   6.149
29702WAT     H189348   6.883   1.614   6.089
29702WAT     H289349   6.987   1.676   6.199
29703WAT      O89350   1.037   8.093   3.424
29703WAT     H189351   1.025   8.189   3.448
29703WAT     H289352   0.948   8.052   3.403
29704WAT      O89353   1.244   4.932   7.636
29704WAT     H189354   1.333   4.974   7.656
29704WAT     H289355   1.250   4.834   7.650
29705WAT      O89356   6.282   5.162   4.551
29705WAT     H189357   6.308   5.085   4.494
29705WAT     H289358   6.183   5.159   4.568
29706WAT      O89359   7.908   7.143   2.704
29706WAT     H189360   7.956   7.085   2.639
29706WAT     H289361   7.943   7.236   2.698
29707WAT      O89362   2.321   0.986   7.647
29707WAT     H189363   2.267   1.012   7.567
29707WAT     H289364   2.296   1.045   7.724
29708WAT      O89365   8.252   8.500   7.825
29708WAT     H189366   8.273   8.507   7.922
29708WAT     H289367   8.303   8.571   7.775
29709WAT      O89368   5.751   4.141   1.524
29709WAT     H189369   5.771   4.206   1.597
29709WAT     H289370   5.696   4.186   1.454
29710WAT      O89371   5.167   2.232   4.868
29710WAT     H189372   5.165   2.154   4.806
29710WAT     H289373   5.078   2.243   4.911
29711WAT      O89374   5.879   0.386   6.523
29711WAT     H189375   5.842   0.477   6.508
29711WAT     H289376   5.852   0.353   6.613
29712WAT      O89377   3.758   4.450   8.626
29712WAT     H189378   3.759   4.351   8.611
29712WAT     H289379   3.822   4.473   8.700
29713WAT      O89380   5.607   4.627   6.881
29713WAT     H189381   5.682   4.561   6.878
29713WAT     H289382   5.593   4.666   6.790
29714WAT      O89383   3.899   1.463   3.589
29714WAT     H189384   3.923   1.548   3.634
29714WAT     H289385   3.976   1.400   3.593
29715WAT      O89386   2.684   4.284   4.444
29715WAT     H189387   2.779   4.273   4.472
29715WAT     H289388   2.633   4.332   4.515
29716WAT      O89389   4.757   6.015   1.767
29716WAT     H189390   4.821   5.994   1.694
29716WAT     H289391   4.727   5.930   1.811
29717WAT      O89392   9.684   6.482   9.057
29717WAT     H189393   9.733   6.460   9.141
29717WAT     H289394   9.659   6.397   9.010
29718WAT      O89395   5.868   4.032   4.853
29718WAT     H189396   5.780   4.047   4.898
29718WAT     H289397   5.930   4.107   4.876
29719WAT      O89398   7.039   3.277   6.348
29719WAT     H189399   7.056   3.184   6.314
29719WAT     H289400   7.126   3.317   6.377
29720WAT      O89401   9.469   2.928   1.681
29720WAT     H189402   9.504   2.851   1.628
29720WAT     H289403   9.369   2.922   1.685
29721WAT      O89404   1.942   7.938   8.039
29721WAT     H189405   1.977   7.899   8.125
29721WAT     H289406   1.938   8.037   8.046
29722WAT      O89407   4.738   2.640   6.595
29722WAT     H189408   4.715   2.549   6.563
29722WAT     H289409   4.740   2.641   6.695
29723WAT      O89410   4.063   9.554   9.672
29723WAT     H189411   3.988   9.501   9.712
29723WAT     H289412   4.145   9.497   9.666
29724WAT      O89413   0.296   3.862   2.322
29724WAT     H189414   0.350   3.828   2.399
29724WAT     H289415   0.233   3.791   2.292
29725WAT      O89416   6.007   7.262   2.210
29725WAT     H189417   6.001   7.322   2.289
29725WAT     H289418   5.980   7.169   2.235
29726WAT      O89419   9.876   7.113   9.419
29726WAT     H189420   9.927   7.033   9.450
29726WAT     H289421   9.885   7.122   9.319
29727WAT      O89422   3.201   3.354   6.511
29727WAT     H189423   3.268   3.353   6.585
29727WAT     H289424   3.113   3.386   6.546
29728WAT      O89425   6.635   8.743   6.619
29728WAT     H189426   6.589   8.663   6.581
29728WAT     H289427   6.711   8.713   6.678
29729WAT      O89428   3.509   3.405   7.603
29729WAT     H189429   3.555   3.441   7.521
29729WAT     H289430   3.423   3.454   7.618
29730WAT      O89431   8.046   5.526   9.748
29730WAT     H189432   7.967   5.466   9.763
29730WAT     H289433   8.022   5.596   9.681
29731WAT      O89434   4.242   5.259   6.717
29731WAT     H189435   4.145   5.261   6.740
29731WAT     H289436   4.257   5.197   6.639
29732WAT      O89437   8.148   9.535   7.983
29732WAT     H189438   8.152   9.635   7.982
29732WAT     H289439   8.185   9.499   7.898
29733WAT      O89440   7.518   9.592   8.900
29733WAT     H189441   7.526   9.566   8.804
29733WAT     H289442   7.605   9.575   8.947
29734WAT      O89443   2.275   9.782   9.521
29734WAT     H189444   2.261   9.746   9.429
29734WAT     H289445   2.213   9.859   9.536
29735WAT      O89446   3.930   3.771   9.810
29735WAT     H189447   3.865   3.731   9.874
29735WAT     H289448   4.001   3.705   9.788
29736WAT      O89449   2.984   2.517   6.493
29736WAT     H189450   2.888   2.543   6.484
29736WAT     H289451   3.039   2.599   6.512
29737WAT      O89452   5.054   8.555   3.378
29737WAT     H189453   4.969   8.560   3.431
29737WAT     H289454   5.036   8.584   3.285
29738WAT      O89455   0.747   1.702   7.279
29738WAT     H189456   0.798   1.730   7.361
29738WAT     H289457   0.811   1.672   7.209
29739WAT      O89458   1.892   3.273   5.606
29739WAT     H189459   1.947   3.195   5.578
29739WAT     H289460   1.934   3.358   5.573
29740WAT      O89461   5.552   8.718   4.914
29740WAT     H189462   5.504   8.747   4.997
29740WAT     H289463   5.568   8.797   4.855
29741WAT      O89464   5.965   5.719   0.476
29741WAT     H189465   5.899   5.733   0.549
29741WAT     H289466   5.965   5.623   0.449
29742WAT      O89467   2.008   5.183   6.687
29742WAT     H189468   2.004   5.114   6.760
29742WAT     H289469   2.067   5.149   6.613
29743WAT      O89470   3.474   5.341   8.545
29743WAT     H189471   3.400   5.318   8.608
29743WAT     H289472   3.558   5.293   8.572
29744WAT      O89473   9.497   6.373   8.460
29744WAT     H189474   9.484   6.279   8.426
29744WAT     H289475   9.494   6.436   8.383
29745WAT      O89476   6.903   9.422   8.789
29745WAT     H189477   6.817   9.396   8.834
29745WAT     H289478   6.889   9.426   8.690
29746WAT      O89479   9.643   1.523   1.611
29746WAT     H189480   9.714   1.485   1.551
29746WAT     H289481   9.672   1.514   1.706
29747WAT      O89482   2.606   2.318   0.346
29747WAT     H189483   2.577   2.240   0.401
29747WAT     H289484   2.533   2.344   0.283
29748WAT      O89485   4.002   0.464   4.756
29748WAT     H189486   3.928   0.530   4.772
29748WAT     H289487   4.090   0.510   4.768
29749WAT      O89488   4.792   0.652   3.449
29749WAT     H189489   4.882   0.689   3.473
29749WAT     H289490   4.748   0.712   3.382
29750WAT      O89491   1.907   2.221   4.584
29750WAT     H189492   2.007   2.214   4.591
29750WAT     H289493   1.867   2.212   4.675
29751WAT      O89494   3.669   8.277   8.983
29751WAT     H189495   3.670   8.363   8.933
29751WAT     H289496   3.689   8.294   9.080
29752WAT      O89497   6.771   2.677   2.335
29752WAT     H189498   6.755   2.606   2.266
29752WAT     H289499   6.711   2.755   2.317
29753WAT      O89500   2.560   0.336   8.244
29753WAT     H189501   2.546   0.431   8.270
29753WAT     H289502   2.540   0.277   8.322
29754WAT      O89503   2.084   9.656   0.876
29754WAT     H189504   1.999   9.615   0.907
29754WAT     H289505   2.157   9.634   0.941
29755WAT      O89506   4.611   4.563   3.564
29755WAT     H189507   4.695   4.540   3.514
29755WAT     H289508   4.568   4.479   3.598
29756WAT      O89509   8.598   9.137   7.965
29756WAT     H189510   8.501   9.144   7.988
29756WAT     H289511   8.619   9.196   7.887
29757WAT      O89512   0.363   9.051   1.838
29757WAT     H189513   0.391   9.025   1.746
29757WAT     H289514   0.305   9.132   1.834
29758WAT      O89515   9.087   7.903   3.701
29758WAT     H189516   9.039   7.841   3.639
29758WAT     H289517   9.134   7.974   3.649
29759WAT      O89518   1.620   6.756   5.342
29759WAT     H189519   1.542   6.762   5.279
29759WAT     H289520   1.606   6.821   5.417
29760WAT      O89521   3.071   4.726   6.059
29760WAT     H189522   3.160   4.761   6.028
29760WAT     H289523   3.036   4.783   6.133
29761WAT      O89524   1.319   4.585   4.535
29761WAT     H189525   1.263   4.585   4.452
29761WAT     H289526   1.261   4.568   4.614
29762WAT      O89527   1.341   6.088   1.885
29762WAT     H189528   1.249   6.086   1.844
29762WAT     H289529   1.333   6.078   1.984
29763WAT      O89530   7.285   1.214   1.986
29763WAT     H189531   7.263   1.287   2.051
29763WAT     H289532   7.280   1.250   1.893
29764WAT      O89533   8.234   3.970   3.058
29764WAT     H189534   8.201   3.962   3.152
29764WAT     H289535   8.289   4.054   3.050
29765WAT      O89536   4.676   8.932   6.417
29765WAT     H189537   4.598   8.909   6.359
29765WAT     H289538   4.739   8.990   6.365
29766WAT      O89539   2.617   6.937   0.523
29766WAT     H189540   2.590   7.030   0.498
29766WAT     H289541   2.567   6.872   0.466
29767WAT      O89542   1.111   9.393   2.166
29767WAT     H189543   1.119   9.295   2.182
29767WAT     H289544   1.015   9.417   2.152
29768WAT      O89545   4.028   3.934   3.683
29768WAT     H189546   4.021   3.836   3.663
29768WAT     H289547   4.119   3.954   3.720
29769WAT      O89548   1.048   6.598   5.985
29769WAT     H189549   1.087   6.575   5.895
29769WAT     H289550   1.118   6.583   6.056
29770WAT      O89551   6.745   6.196   6.944
29770WAT     H189552   6.661   6.237   6.980
29770WAT     H289553   6.723   6.136   6.867
29771WAT      O89554   7.557   4.558   6.816
29771WAT     H189555   7.519   4.593   6.901
29771WAT     H289556   7.628   4.490   6.837
29772WAT      O89557   8.306   5.972   6.320
29772WAT     H189558   8.340   5.981   6.227
29772WAT     H289559   8.259   6.055   6.347
29773WAT      O89560   8.113   1.154   0.753
29773WAT     H189561   8.181   1.183   0.685
29773WAT     H289562   8.086   1.059   0.734
29774WAT      O89563   1.363   3.835   4.086
29774WAT     H189564   1.299   3.765   4.116
29774WAT     H289565   1.320   3.925   4.093
29775WAT      O89566   6.079   1.711   5.720
29775WAT     H189567   6.040   1.644   5.657
29775WAT     H289568   6.175   1.727   5.697
29776WAT      O89569   0.992   2.581   4.244
29776WAT     H189570   0.921   2.645   4.213
29776WAT     H289571   1.016   2.600   4.339
29777WAT      O89572   7.088   5.423   7.715
29777WAT     H189573   7.135   5.424   7.804
29777WAT     H289574   7.152   5.390   7.645
29778WAT      O89575   9.071   0.491   5.102
29778WAT     H189576   9.088   0.469   5.198
29778WAT     H289577   9.049   0.407   5.052
29779WAT      O89578   6.742   7.628   2.644
29779WAT     H189579   6.681   7.616   2.722
29779WAT     H289580   6.833   7.654   2.677
29780WAT      O89581   9.852   0.239   6.739
29780WAT     H189582   9.810   0.162   6.786
29780WAT     H289583   9.899   0.206   6.657
29781WAT      O89584   7.555   3.064   7.914
29781WAT     H189585   7.622   2.996   7.945
29781WAT     H289586   7.481   3.018   7.865
29782WAT      O89587   3.120   2.846   9.825
29782WAT     H189588   3.062   2.784   9.771
29782WAT     H289589   3.064   2.890   9.895
29783WAT      O89590   0.238   2.096   6.007
29783WAT     H189591   0.220   2.023   6.073
29783WAT     H289592   0.200   2.071   5.918
29784WAT      O89593   6.617   9.284   3.991
29784WAT     H189594   6.660   9.195   4.004
29784WAT     H289595   6.518   9.272   3.981
29785WAT      O89596   6.018   8.406   5.429
29785WAT     H189597   5.972   8.490   5.459
29785WAT     H289598   5.949   8.338   5.402
29786WAT      O89599   3.810   8.774   6.323
29786WAT     H189600   3.909   8.777   6.340
29786WAT     H289601   3.764   8.735   6.403
29787WAT      O89602   6.619   5.399   2.031
29787WAT     H189603   6.637   5.491   1.998
29787WAT     H289604   6.534   5.364   1.991
29788WAT      O89605   5.425   5.956   9.676
29788WAT     H189606   5.356   6.025   9.701
29788WAT     H289607   5.384   5.865   9.681
29789WAT      O89608   7.141   7.021   2.048
29789WAT     H189609   7.210   6.968   1.997
29789WAT     H289610   7.066   7.045   1.986
29790WAT      O89611   1.265   2.328   4.300
29790WAT     H189612   1.240   2.384   4.221
29790WAT     H289613   1.357   2.353   4.331
29791WAT      O89614   3.106   7.340   5.919
29791WAT     H189615   3.047   7.421   5.918
29791WAT     H289616   3.182   7.354   5.856
29792WAT      O89617   1.946   6.391   9.529
29792WAT     H189618   1.984   6.467   9.477
29792WAT     H289619   1.865   6.422   9.580
29793WAT      O89620   0.483   2.647   2.981
29793WAT     H189621   0.550   2.688   3.043
29793WAT     H289622   0.523   2.567   2.936
29794WAT      O89623   1.598   8.723   7.512
29794WAT     H189624   1.652   8.639   7.511
29794WAT     H289625   1.532   8.721   7.437
29795WAT      O89626   2.471   7.556   8.732
29795WAT     H189627   2.522   7.470   8.734
29795WAT     H289628   2.415   7.564   8.814
29796WAT      O89629   8.850   3.360   9.274
29796WAT     H189630   8.782   3.305   9.227
29796WAT     H289631   8.925   3.301   9.306
29797WAT      O89632   7.233   6.945   9.444
29797WAT     H189633   7.311   6.884   9.443
29797WAT     H289634   7.222   6.988   9.354
29798WAT      O89635   1.326   8.822   7.789
29798WAT     H189636   1.236   8.852   7.820
29798WAT     H289637   1.388   8.816   7.868
29799WAT      O89638   7.577   0.419   4.506
29799WAT     H189639   7.626   0.422   4.419
29799WAT     H289640   7.628   0.363   4.571
29800WAT      O89641   6.130   5.669   4.420
29800WAT     H189642   6.079   5.689   4.504
29800WAT     H289643   6.197   5.741   4.403
29801WAT      O89644   6.852   7.917   5.361
29801WAT     H189645   6.895   8.005   5.340
29801WAT     H289646   6.783   7.897   5.292
29802WAT      O89647   1.004   3.129   9.022
29802WAT     H189648   1.082   3.148   9.081
29802WAT     H289649   0.998   3.199   8.951
29803WAT      O89650   3.461   0.070   4.146
29803WAT     H189651   3.417   0.077   4.057
29803WAT     H289652   3.546   0.019   4.138
29804WAT      O89653   7.605   6.800   7.700
29804WAT     H189654   7.576   6.783   7.794
29804WAT     H289655   7.525   6.823   7.645
29805WAT      O89656   9.205   8.202   1.289
29805WAT     H189657   9.240   8.256   1.212
29805WAT     H289658   9.227   8.248   1.375
29806WAT      O89659   0.897   0.357   0.772
29806WAT     H189660   0.966   0.378   0.841
29806WAT     H289661   0.823   0.305   0.813
29807WAT      O89662   3.144   1.758   8.586
29807WAT     H189663   3.168   1.721   8.675
29807WAT     H289664   3.226   1.765   8.529
29808WAT      O89665   2.696   7.305   6.152
29808WAT     H189666   2.650   7.346   6.231
29808WAT     H289667   2.696   7.206   6.161
29809WAT      O89668   1.194   6.135   8.595
29809WAT     H189669   1.253   6.122   8.675
29809WAT     H289670   1.121   6.199   8.618
29810WAT      O89671   8.344   8.576   0.697
29810WAT     H189672   8.249   8.546   0.709
29810WAT     H289673   8.356   8.668   0.733
29811WAT      O89674   8.708   2.626   3.908
29811WAT     H189675   8.649   2.657   3.982
29811WAT     H289676   8.666   2.549   3.862
29812WAT      O89677   1.996   3.353   4.687
29812WAT     H189678   1.981   3.288   4.612
29812WAT     H289679   1.960   3.442   4.661
29813WAT      O89680   8.313   0.466   0.696
29813WAT     H189681   8.281   0.543   0.640
29813WAT     H289682   8.286   0.380   0.653
29814WAT      O89683   5.985   4.267   1.027
29814WAT     H189684   6.053   4.336   1.053
29814WAT     H289685   5.912   4.266   1.095
29815WAT      O89686   4.127   2.379   4.519
29815WAT     H189687   4.131   2.409   4.615
29815WAT     H289688   4.180   2.441   4.462
29816WAT      O89689   8.129   2.181   7.988
29816WAT     H189690   8.221   2.216   8.006
29816WAT     H289691   8.102   2.120   8.063
29817WAT      O89692   1.358   4.059   8.698
29817WAT     H189693   1.429   4.052   8.768
29817WAT     H289694   1.272   4.024   8.735
29818WAT      O89695   9.359   7.732   7.651
29818WAT     H189696   9.264   7.699   7.658
29818WAT     H289697   9.409   7.674   7.587
29819WAT      O89698   3.576   7.318   9.656
29819WAT     H189699   3.544   7.370   9.736
29819WAT     H289700   3.558   7.221   9.670
29820WAT      O89701   1.341   1.276   5.198
29820WAT     H189702   1.280   1.229   5.133
29820WAT     H289703   1.286   1.318   5.271
29821WAT      O89704   2.571   3.903   8.508
29821WAT     H189705   2.620   3.886   8.593
29821WAT     H289706   2.473   3.891   8.523
29822WAT      O89707   3.582   5.601   8.799
29822WAT     H189708   3.615   5.528   8.859
29822WAT     H289709   3.494   5.574   8.759
29823WAT      O89710   0.228   7.048   2.932
29823WAT     H189711   0.261   6.961   2.966
29823WAT     H289712   0.299   7.092   2.877
29824WAT      O89713   3.088   5.535   6.262
29824WAT     H189714   3.075   5.436   6.260
29824WAT     H289715   3.086   5.566   6.358
29825WAT      O89716   3.569   2.134   0.168
29825WAT     H189717   3.575   2.231   0.190
29825WAT     H289718   3.480   2.115   0.125
29826WAT      O89719   3.871   7.762   9.036
29826WAT     H189720   3.831   7.716   8.957
29826WAT     H289721   3.918   7.695   9.094
29827WAT      O89722   6.745   5.097   7.866
29827WAT     H189723   6.674   5.054   7.810
29827WAT     H289724   6.815   5.136   7.806
29828WAT      O89725   6.973   0.787   6.088
29828WAT     H189726   6.956   0.819   5.995
29828WAT     H289727   6.947   0.691   6.096
29829WAT      O89728   9.043   9.427   8.839
29829WAT     H189729   9.035   9.477   8.753
29829WAT     H289730   8.981   9.348   8.838
29830WAT      O89731   4.279   9.057   5.673
29830WAT     H189732   4.233   8.979   5.716
29830WAT     H289733   4.271   9.136   5.733
29831WAT      O89734   3.502   9.004   4.312
29831WAT     H189735   3.525   8.912   4.343
29831WAT     H289736   3.407   9.025   4.336
29832WAT      O89737   5.232   8.459   1.578
29832WAT     H189738   5.330   8.476   1.587
29832WAT     H289739   5.182   8.528   1.630
29833WAT      O89740   6.032   4.710   8.387
29833WAT     H189741   6.048   4.793   8.333
29833WAT     H289742   6.006   4.635   8.326
29834WAT      O89743   5.088   8.293   1.140
29834WAT     H189744   5.059   8.272   1.233
29834WAT     H289745   5.014   8.270   1.076
29835WAT      O89746   1.831   5.856   8.172
29835WAT     H189747   1.861   5.797   8.097
29835WAT     H289748   1.733   5.844   8.188
29836WAT      O89749   1.638   8.806   3.888
29836WAT     H189750   1.634   8.734   3.957
29836WAT     H289751   1.547   8.822   3.850
29837WAT      O89752   4.496   7.418   5.068
29837WAT     H189753   4.425   7.445   5.133
29837WAT     H289754   4.515   7.494   5.005
29838WAT      O89755   4.622   8.179   4.265
29838WAT     H189756   4.633   8.199   4.362
29838WAT     H289757   4.629   8.264   4.212
29839WAT      O89758   7.821   6.968   3.789
29839WAT     H189759   7.870   7.046   3.828
29839WAT     H289760   7.882   6.888   3.788
29840WAT      O89761   0.279   6.559   0.038
29840WAT     H189762   0.210   6.528   0.103
29840WAT     H289763   0.370   6.539   0.074
29841WAT      O89764   7.636   2.016   9.220
29841WAT     H189765   7.708   1.948   9.234
29841WAT     H289766   7.553   1.987   9.266
29842WAT      O89767   3.136   6.751   4.332
29842WAT     H189768   3.147   6.674   4.395
29842WAT     H289769   3.202   6.742   4.257
29843WAT      O89770   0.775   4.935   4.205
29843WAT     H189771   0.799   4.982   4.120
29843WAT     H289772   0.848   4.947   4.272
29844WAT      O89773   2.781   7.799   3.018
29844WAT     H189774   2.706   7.849   2.975
29844WAT     H289775   2.782   7.705   2.986
29845WAT      O89776   9.458   2.567   2.722
29845WAT     H189777   9.548   2.600   2.751
29845WAT     H289778   9.465   2.471   2.694
29846WAT      O89779   5.483   3.108   4.648
29846WAT     H189780   5.484   3.206   4.665
29846WAT     H289781   5.445   3.090   4.557
29847WAT      O89782   2.697   9.296   3.689
29847WAT     H189783   2.664   9.389   3.705
29847WAT     H289784   2.745   9.292   3.602
29848WAT      O89785   1.700   2.216   4.367
29848WAT     H189786   1.780   2.196   4.423
29848WAT     H289787   1.628   2.150   4.387
29849WAT      O89788   9.070   0.563   0.149
29849WAT     H189789   8.979   0.598   0.127
29849WAT     H289790   9.130   0.574   0.070
29850WAT      O89791   2.551   8.385   3.399
29850WAT     H189792   2.495   8.343   3.470
29850WAT     H289793   2.603   8.314   3.350
29851WAT      O89794   2.936   7.645   9.882
29851WAT     H189795   2.950   7.690   9.794
29851WAT     H289796   2.969   7.551   9.877
29852WAT      O89797   9.110   9.636   3.521
29852WAT     H189798   9.195   9.689   3.522
29852WAT     H289799   9.128   9.546   3.482
29853WAT      O89800   1.749   7.994   2.319
29853WAT     H189801   1.767   8.088   2.292
29853WAT     H289802   1.675   7.993   2.387
29854WAT      O89803   7.741   5.439   7.942
29854WAT     H189804   7.736   5.404   8.035
29854WAT     H289805   7.834   5.472   7.924
29855WAT      O89806   5.876   0.791   7.836
29855WAT     H189807   5.862   0.880   7.880
29855WAT     H289808   5.851   0.718   7.900
29856WAT      O89809   0.407   0.235   3.339
29856WAT     H189810   0.420   0.175   3.417
29856WAT     H289811   0.316   0.275   3.343
29857WAT      O89812   4.765   7.441   4.398
29857WAT     H189813   4.819   7.371   4.445
29857WAT     H289814   4.677   7.452   4.444
29858WAT      O89815   0.515   5.178   4.060
29858WAT     H189816   0.443   5.195   4.127
29858WAT     H289817   0.499   5.090   4.015
29859WAT      O89818   7.344   3.163   6.696
29859WAT     H189819   7.295   3.076   6.689
29859WAT     H289820   7.439   3.150   6.669
29860WAT      O89821   4.282   9.573   0.543
29860WAT     H189822   4.366   9.626   0.554
29860WAT     H289823   4.257   9.572   0.446
29861WAT      O89824   3.359   8.403   1.586
29861WAT     H189825   3.324   8.309   1.577
29861WAT     H289826   3.329   8.442   1.673
29862WAT      O89827   9.656   2.699   5.622
29862WAT     H189828   9.754   2.706   5.641
29862WAT     H289829   9.631   2.764   5.550
29863WAT      O89830   7.163   9.791   2.793
29863WAT     H189831   7.090   9.812   2.858
29863WAT     H289832   7.189   9.875   2.746
29864WAT      O89833   7.032   4.703   2.081
29864WAT     H189834   7.055   4.801   2.085
29864WAT     H289835   7.065   4.659   2.164
29865WAT      O89836   0.144   4.971   2.405
29865WAT     H189837   0.105   5.008   2.489
29865WAT     H289838   0.071   4.946   2.342
29866WAT      O89839   0.548   9.316   0.010
29866WAT     H189840   0.561   9.414   0.026
29866WAT     H289841   0.615   9.265   0.065
29867WAT      O89842   9.766   4.764   3.080
29867WAT     H189843   9.838   4.833   3.074
29867WAT     H289844   9.796   4.690   3.140
29868WAT      O89845   7.696   6.854   9.144
29868WAT     H189846   7.597   6.857   9.137
29868WAT     H289847   7.724   6.871   9.238
29869WAT      O89848   4.714   7.804   2.239
29869WAT     H189849   4.649   7.740   2.198
29869WAT     H289850   4.725   7.883   2.179
29870WAT      O89851   7.644   7.130   4.129
29870WAT     H189852   7.662   7.220   4.090
29870WAT     H289853   7.663   7.131   4.227
29871WAT      O89854   2.415   4.930   5.516
29871WAT     H189855   2.364   5.012   5.544
29871WAT     H289856   2.474   4.901   5.591
29872WAT      O89857   5.105   6.101   1.692
29872WAT     H189858   5.103   6.194   1.730
29872WAT     H289859   5.016   6.080   1.652
29873WAT      O89860   1.846   6.679   8.266
29873WAT     H189861   1.873   6.630   8.350
29873WAT     H289862   1.783   6.752   8.290
29874WAT      O89863   8.923   5.066   9.394
29874WAT     H189864   9.008   5.072   9.446
29874WAT     H289865   8.863   4.998   9.435
29875WAT      O89866   8.065   1.635   1.176
29875WAT     H189867   8.000   1.588   1.235
29875WAT     H289868   8.017   1.707   1.125
29876WAT      O89869   6.312   0.516   7.430
29876WAT     H189870   6.312   0.563   7.342
29876WAT     H289871   6.305   0.417   7.415
29877WAT      O89872   4.780   9.475   3.723
29877WAT     H189873   4.872   9.501   3.692
29877WAT     H289874   4.726   9.558   3.740
29878WAT      O89875   6.840   7.613   2.398
29878WAT     H189876   6.802   7.622   2.491
29878WAT     H289877   6.933   7.650   2.396
29879WAT      O89878   8.034   0.005   4.020
29879WAT     H189879   7.946   0.015   3.975
29879WAT     H289880   8.106   0.044   3.962
29880WAT      O89881   1.528   6.299   7.711
29880WAT     H189882   1.431   6.320   7.724
29880WAT     H289883   1.548   6.210   7.750
29881WAT      O89884   1.685   4.214   5.404
29881WAT     H189885   1.597   4.184   5.368
29881WAT     H289886   1.670   4.287   5.471
29882WAT      O89887   5.899   5.258   7.056
29882WAT     H189888   5.933   5.195   6.987
29882WAT     H289889   5.851   5.334   7.011
29883WAT      O89890   0.469   2.753   4.156
29883WAT     H189891   0.528   2.761   4.076
29883WAT     H289892   0.482   2.663   4.198
29884WAT      O89893   6.994   0.121   3.178
29884WAT     H189894   6.985   0.182   3.099
29884WAT     H289895   7.014   0.028   3.146
29885WAT      O89896   2.227   7.319   1.048
29885WAT     H189897   2.312   7.307   1.099
29885WAT     H289898   2.150   7.290   1.105
29886WAT      O89899   7.742   8.646   6.991
29886WAT     H189900   7.686   8.718   6.951
29886WAT     H289901   7.777   8.586   6.919
29887WAT      O89902   1.754   6.991   0.359
29887WAT     H189903   1.722   6.990   0.454
29887WAT     H289904   1.747   7.084   0.323
29888WAT      O89905   3.433   6.254   3.161
29888WAT     H189906   3.420   6.345   3.121
29888WAT     H289907   3.514   6.255   3.220
29889WAT      O89908   0.967   6.560   5.326
29889WAT     H189909   1.054   6.587   5.366
29889WAT     H289910   0.892   6.610   5.370
29890WAT      O89911   8.450   2.134   3.092
29890WAT     H189912   8.466   2.194   3.013
29890WAT     H289913   8.351   2.122   3.105
29891WAT      O89914   6.820   8.728   0.540
29891WAT     H189915   6.870   8.700   0.458
29891WAT     H289916   6.793   8.646   0.592
29892WAT      O89917   5.913   5.488   2.635
29892WAT     H189918   5.880   5.481   2.541
29892WAT     H289919   6.006   5.451   2.641
29893WAT      O89920   1.515   3.346   4.126
29893WAT     H189921   1.524   3.257   4.172
29893WAT     H289922   1.512   3.418   4.195
29894WAT      O89923   3.796   5.368   1.735
29894WAT     H189924   3.865   5.348   1.666
29894WAT     H289925   3.723   5.423   1.694
29895WAT      O89926   1.043   2.147   4.712
29895WAT     H189927   1.002   2.077   4.653
29895WAT     H289928   1.099   2.207   4.656
29896WAT      O89929   8.668   9.706   3.708
29896WAT     H189930   8.676   9.613   3.745
29896WAT     H289931   8.691   9.773   3.778
29897WAT      O89932   8.491   3.870   8.129
29897WAT     H189933   8.514   3.799   8.062
29897WAT     H289934   8.525   3.842   8.219
29898WAT      O89935   5.734   8.880   4.141
29898WAT     H189936   5.827   8.910   4.117
29898WAT     H289937   5.715   8.792   4.097
29899WAT      O89938   1.185   2.340   5.243
29899WAT     H189939   1.149   2.260   5.196
29899WAT     H289940   1.216   2.407   5.175
29900WAT      O89941   4.684   3.052   5.672
29900WAT     H189942   4.672   2.992   5.592
29900WAT     H289943   4.600   3.103   5.688
29901WAT      O89944   5.173   6.759   6.539
29901WAT     H189945   5.151   6.844   6.491
29901WAT     H289946   5.267   6.762   6.571
29902WAT      O89947   4.847   1.427   5.576
29902WAT     H189948   4.878   1.521   5.590
29902WAT     H289949   4.806   1.393   5.661
29903WAT      O89950   8.617   3.475   1.923
29903WAT     H189951   8.535   3.420   1.906
29903WAT     H289952   8.699   3.418   1.911
29904WAT      O89953   6.370   2.892   5.042
29904WAT     H189954   6.326   2.813   5.083
29904WAT     H289955   6.451   2.917   5.095
29905WAT      O89956   0.887   6.952   6.207
29905WAT     H189957   0.868   7.031   6.149
29905WAT     H289958   0.985   6.933   6.205
29906WAT      O89959   6.784   9.190   7.813
29906WAT     H189960   6.725   9.270   7.824
29906WAT     H289961   6.878   9.215   7.835
29907WAT      O89962   6.475   7.295   6.956
29907WAT     H189963   6.439   7.238   7.030
29907WAT     H289964   6.572   7.272   6.942
29908WAT      O89965   1.333   8.487   9.409
29908WAT     H189966   1.343   8.455   9.315
29908WAT     H289967   1.414   8.462   9.462
29909WAT      O89968   3.035   8.892   6.930
29909WAT     H189969   2.986   8.961   6.983
29909WAT     H289970   3.133   8.914   6.928
29910WAT      O89971   9.416   0.691   5.164
29910WAT     H189972   9.353   0.688   5.087
29910WAT     H289973   9.477   0.612   5.162
29911WAT      O89974   3.807   4.872   4.148
29911WAT     H189975   3.766   4.923   4.225
29911WAT     H289976   3.821   4.777   4.175
29912WAT      O89977   5.041   6.355   3.456
29912WAT     H189978   4.972   6.401   3.399
29912WAT     H289979   5.062   6.265   3.418
29913WAT      O89980   1.143   1.855   6.301
29913WAT     H189981   1.094   1.916   6.238
29913WAT     H289982   1.238   1.885   6.308
29914WAT      O89983   5.011   6.716   1.795
29914WAT     H189984   4.940   6.786   1.791
29914WAT     H289985   5.014   6.677   1.888
29915WAT      O89986   1.395   1.192   8.213
29915WAT     H189987   1.337   1.227   8.140
29915WAT     H289988   1.443   1.268   8.257
29916WAT      O89989   9.845   0.005   5.408
29916WAT     H189990   9.892  -0.067   5.458
29916WAT     H289991   9.751   0.014   5.441
29917WAT      O89992   3.411   6.583   7.955
29917WAT     H189993   3.351   6.656   7.988
29917WAT     H289994   3.425   6.516   8.027
29918WAT      O89995   1.167   1.810   2.359
29918WAT     H189996   1.246   1.748   2.357
29918WAT     H289997   1.118   1.799   2.445
29919WAT      O89998   7.239   2.226   7.960
29919WAT     H189999   7.254   2.311   8.011
29919WAT     H290000   7.255   2.148   8.020
29920WAT      O90001   9.605   2.220   5.213
29920WAT     H190002   9.518   2.171   5.226
29920WAT     H290003   9.679   2.154   5.206
29921WAT      O90004   5.603   6.451   2.470
29921WAT     H190005   5.647   6.538   2.450
29921WAT     H290006   5.523   6.465   2.527
29922WAT      O90007   4.042   1.958   2.521
29922WAT     H190008   4.123   1.923   2.475
29922WAT     H290009   4.012   2.042   2.475
29923WAT      O90010   6.917   6.025   2.295
29923WAT     H190011   6.938   6.119   2.322
29923WAT     H290012   6.983   5.963   2.337
29924WAT      O90013   9.411   9.607   0.312
29924WAT     H190014   9.501   9.614   0.356
29924WAT     H290015   9.415   9.650   0.222
29925WAT      O90016   9.732   2.856   1.399
29925WAT     H190017   9.701   2.827   1.309
29925WAT     H290018   9.789   2.938   1.391
29926WAT      O90019   8.850   5.165   0.128
29926WAT     H190020   8.830   5.255   0.089
29926WAT     H290021   8.912   5.116   0.067
29927WAT      O90022   7.287   1.263   8.771
29927WAT     H190023   7.355   1.246   8.699
29927WAT     H290024   7.330   1.250   8.860
29928WAT      O90025   1.531   0.892   7.259
29928WAT     H190026   1.618   0.942   7.248
29928WAT     H290027   1.488   0.920   7.344
29929WAT      O90028   2.351   7.727   4.614
29929WAT     H190029   2.292   7.711   4.535
29929WAT     H290030   2.423   7.658   4.616
29930WAT      O90031   6.872   7.610   4.785
29930WAT     H190032   6.930   7.529   4.791
29930WAT     H290033   6.797   7.602   4.850
29931WAT      O90034   7.610   4.190   6.444
29931WAT     H190035   7.556   4.259   6.494
29931WAT     H290036   7.704   4.224   6.432
29932WAT      O90037   2.951   9.585   8.079
29932WAT     H190038   2.898   9.641   8.144
29932WAT     H290039   2.979   9.642   8.002
29933WAT      O90040   9.633   9.812   4.279
29933WAT     H190041   9.545   9.806   4.233
29933WAT     H290042   9.652   9.907   4.304
29934WAT      O90043   0.956   0.247   3.607
29934WAT     H190044   0.901   0.329   3.621
29934WAT     H290045   0.998   0.219   3.693
29935WAT      O90046   2.577   2.840   8.474
29935WAT     H190047   2.581   2.939   8.479
29935WAT     H290048   2.645   2.807   8.408
29936WAT      O90049   9.398   0.999   8.428
29936WAT     H190050   9.476   0.990   8.489
29936WAT     H290051   9.366   0.908   8.401
29937WAT      O90052   1.606   1.485   0.253
29937WAT     H190053   1.641   1.406   0.204
29937WAT     H290054   1.680   1.551   0.269
29938WAT      O90055   5.880   6.930   5.212
29938WAT     H190056   5.880   6.847   5.157
29938WAT     H290057   5.785   6.960   5.227
29939WAT      O90058   8.074   7.583   8.836
29939WAT     H190059   8.077   7.512   8.766
29939WAT     H290060   8.082   7.673   8.793
29940WAT      O90061   7.242   4.177   4.536
29940WAT     H190062   7.241   4.277   4.538
29940WAT     H290063   7.310   4.146   4.469
29941WAT      O90064   7.398   1.494   3.470
29941WAT     H190065   7.372   1.474   3.375
29941WAT     H290066   7.329   1.457   3.532
29942WAT      O90067   5.061   5.470   5.105
29942WAT     H190068   5.100   5.535   5.041
29942WAT     H290069   5.077   5.501   5.199
29943WAT      O90070   9.474   6.889   1.254
29943WAT     H190071   9.464   6.988   1.253
29943WAT     H290072   9.399   6.848   1.305
29944WAT      O90073   5.740   7.319   5.987
29944WAT     H190074   5.734   7.412   6.023
29944WAT     H290075   5.675   7.308   5.912
29945WAT      O90076   3.742   1.039   9.765
29945WAT     H190077   3.808   1.037   9.840
29945WAT     H290078   3.783   1.086   9.686
29946WAT      O90079   1.321   3.527   1.371
29946WAT     H190080   1.385   3.575   1.431
29946WAT     H290081   1.254   3.477   1.426
29947WAT      O90082   0.929   8.550   6.889
29947WAT     H190083   0.962   8.520   6.800
29947WAT     H290084   0.982   8.630   6.919
29948WAT      O90085   4.605   8.089   7.471
29948WAT     H190086   4.671   8.129   7.536
29948WAT     H290087   4.559   8.163   7.421
29949WAT      O90088   0.339   8.322   3.340
29949WAT     H190089   0.383   8.236   3.365
29949WAT     H290090   0.242   8.319   3.365
29950WAT      O90091   5.898   2.866   4.516
29950WAT     H190092   5.879   2.857   4.614
29950WAT     H290093   5.812   2.866   4.465
29951WAT      O90094   4.168   4.368   0.865
29951WAT     H190095   4.222   4.449   0.889
29951WAT     H290096   4.156   4.366   0.766
29952WAT      O90097   3.100   9.474   8.820
29952WAT     H190098   3.035   9.485   8.745
29952WAT     H290099   3.053   9.437   8.900
29953WAT      O90100   7.105   2.149   7.231
29953WAT     H190101   7.046   2.071   7.212
29953WAT     H290102   7.097   2.216   7.157
29954WAT      O90103   0.579   4.719   4.532
29954WAT     H190104   0.503   4.667   4.572
29954WAT     H290105   0.557   4.744   4.438
29955WAT      O90106   6.227   3.360   0.743
29955WAT     H190107   6.239   3.456   0.770
29955WAT     H290108   6.130   3.342   0.727
29956WAT      O90109   8.750   8.898   8.011
29956WAT     H190110   8.752   8.878   8.109
29956WAT     H290111   8.682   8.969   7.993
29957WAT      O90112   7.288   7.017   4.663
29957WAT     H190113   7.371   7.073   4.661
29957WAT     H290114   7.232   7.042   4.743
29958WAT      O90115   7.969   7.460   5.769
29958WAT     H190116   7.921   7.492   5.850
29958WAT     H290117   7.979   7.361   5.773
29959WAT      O90118   0.045   5.327   1.187
29959WAT     H190119  -0.020   5.255   1.164
29959WAT     H290120   0.019   5.367   1.276
29960WAT      O90121   7.236   8.355   2.962
29960WAT     H190122   7.190   8.443   2.949
29960WAT     H290123   7.167   8.284   2.974
29961WAT      O90124   1.197   0.700   6.447
29961WAT     H190125   1.185   0.671   6.352
29961WAT     H290126   1.291   0.731   6.461
29962WAT      O90127   5.418   9.625   3.731
29962WAT     H190128   5.376   9.670   3.810
29962WAT     H290129   5.355   9.628   3.654
29963WAT      O90130   3.342   7.963   5.550
29963WAT     H190131   3.288   8.011   5.481
29963WAT     H290132   3.414   8.024   5.584
29964WAT      O90133   7.830   5.736   7.472
29964WAT     H190134   7.928   5.731   7.456
29964WAT     H290135   7.807   5.684   7.554
29965WAT      O90136   1.911   8.481   7.606
29965WAT     H190137   1.990   8.421   7.620
29965WAT     H290138   1.840   8.460   7.674
29966WAT      O90139   5.559   3.323   1.335
29966WAT     H190140   5.521   3.416   1.343
29966WAT     H290141   5.498   3.259   1.382
29967WAT      O90142   0.960   6.979   1.874
29967WAT     H190143   0.886   6.933   1.826
29967WAT     H290144   1.026   7.014   1.807
29968WAT      O90145   9.198   5.136   9.462
29968WAT     H190146   9.201   5.206   9.390
29968WAT     H290147   9.244   5.053   9.429
29969WAT      O90148   2.462   9.431   7.953
29969WAT     H190149   2.474   9.531   7.958
29969WAT     H290150   2.551   9.389   7.933
29970WAT      O90151   2.788   9.459   0.153
29970WAT     H190152   2.832   9.382   0.200
29970WAT     H290153   2.816   9.545   0.196
29971WAT      O90154   7.805   0.269   0.844
29971WAT     H190155   7.805   0.326   0.926
29971WAT     H290156   7.885   0.208   0.846
29972WAT      O90157   8.240   9.586   4.348
29972WAT     H190158   8.277   9.679   4.338
29972WAT     H290159   8.163   9.574   4.285
29973WAT      O90160   0.902   6.662   9.653
29973WAT     H190161   0.898   6.668   9.753
29973WAT     H290162   0.943   6.575   9.626
29974WAT      O90163   8.232   1.112   9.779
29974WAT     H190164   8.233   1.117   9.879
29974WAT     H290165   8.248   1.203   9.742
29975WAT      O90166   7.600   0.947   7.136
29975WAT     H190167   7.523   0.957   7.199
29975WAT     H290168   7.666   0.883   7.175
29976WAT      O90169   6.311   1.934   5.401
29976WAT     H190170   6.388   1.998   5.401
29976WAT     H290171   6.314   1.877   5.319
29977WAT      O90172   9.434   3.119   5.194
29977WAT     H190173   9.417   3.028   5.154
29977WAT     H290174   9.474   3.108   5.284
29978WAT      O90175   7.276   7.965   4.908
29978WAT     H190176   7.357   7.941   4.961
29978WAT     H290177   7.292   7.944   4.811
29979WAT      O90178   4.662   2.017   7.510
29979WAT     H190179   4.595   1.956   7.467
29979WAT     H290180   4.634   2.112   7.495
29980WAT      O90181   2.397   1.135   8.699
29980WAT     H190182   2.410   1.198   8.776
29980WAT     H290183   2.328   1.067   8.724
29981WAT      O90184   0.331   9.611   3.162
29981WAT     H190185   0.343   9.517   3.131
29981WAT     H290186   0.414   9.642   3.209
29982WAT      O90187   2.998   6.407   5.519
29982WAT     H190188   3.098   6.413   5.515
29982WAT     H290189   2.967   6.428   5.612
29983WAT      O90190   1.162   6.578   7.311
29983WAT     H190191   1.074   6.605   7.348
29983WAT     H290192   1.234   6.598   7.378
29984WAT      O90193   8.626   7.873   3.394
29984WAT     H190194   8.527   7.866   3.379
29984WAT     H290195   8.671   7.795   3.352
29985WAT      O90196   6.395   9.024   7.060
29985WAT     H190197   6.344   8.945   7.027
29985WAT     H290198   6.350   9.108   7.030
29986WAT      O90199   0.836   5.002   4.771
29986WAT     H190200   0.845   5.102   4.766
29986WAT     H290201   0.765   4.978   4.837
29987WAT      O90202   7.522   1.474   6.069
29987WAT     H190203   7.462   1.424   6.132
29987WAT     H290204   7.593   1.412   6.036
29988WAT      O90205   2.534   0.737   9.252
29988WAT     H190206   2.562   0.719   9.158
29988WAT     H290207   2.573   0.824   9.282
29989WAT      O90208   3.483   7.923   0.176
29989WAT     H190209   3.393   7.949   0.210
29989WAT     H290210   3.509   7.834   0.215
29990WAT      O90211   7.430   7.989   0.114
29990WAT     H190212   7.502   7.934   0.073
29990WAT     H290213   7.456   8.086   0.109
29991WAT      O90214   4.826   4.492   7.608
29991WAT     H190215   4.771   4.425   7.558
29991WAT     H290216   4.901   4.523   7.550
29992WAT      O90217   8.135   8.276   5.242
29992WAT     H190218   8.168   8.367   5.265
29992WAT     H290219   8.048   8.259   5.288
29993WAT      O90220   7.481   7.691   4.854
29993WAT     H190221   7.564   7.657   4.811
29993WAT     H290222   7.502   7.770   4.912
29994WAT      O90223   2.592   3.527   5.271
29994WAT     H190224   2.656   3.592   5.311
29994WAT     H290225   2.530   3.575   5.208
29995WAT      O90226   8.803   6.620   5.470
29995WAT     H190227   8.764   6.609   5.378
29995WAT     H290228   8.774   6.708   5.507
29996WAT      O90229   6.437   0.540   0.519
29996WAT     H190230   6.371   0.555   0.446
29996WAT     H290231   6.431   0.445   0.550
29997WAT      O90232   3.709   1.515   0.559
29997WAT     H190233   3.689   1.447   0.630
29997WAT     H290234   3.678   1.480   0.471
29998WAT      O90235   9.652   7.803   0.435
29998WAT     H190236   9.597   7.728   0.398
29998WAT     H290237   9.628   7.888   0.389
29999WAT      O90238   3.297   6.546   3.501
29999WAT     H190239   3.336   6.465   3.545
29999WAT     H290240   3.203   6.558   3.531
30000WAT      O90241   9.343   8.206   8.776
30000WAT     H190242   9.258   8.243   8.737
30000WAT     H290243   9.388   8.148   8.708
30001WAT      O90244   2.551   8.887   2.004
30001WAT     H190245   2.605   8.835   1.938
30001WAT     H290246   2.608   8.960   2.043
30002WAT      O90247   5.073   2.467   9.056
30002WAT     H190248   5.094   2.374   9.026
30002WAT     H290249   5.154   2.525   9.043
30003WAT      O90250   6.254   5.599   0.641
30003WAT     H190251   6.271   5.577   0.545
30003WAT     H290252   6.201   5.525   0.683
30004WAT      O90253   2.156   1.030   9.144
30004WAT     H190254   2.235   1.054   9.089
30004WAT     H290255   2.181   1.029   9.241
30005WAT      O90256   2.190   2.153   9.371
30005WAT     H190257   2.183   2.055   9.393
30005WAT     H290258   2.269   2.191   9.418
30006WAT      O90259   2.253   8.685   2.911
30006WAT     H190260   2.301   8.690   2.824
30006WAT     H290261   2.302   8.739   2.980
30007WAT      O90262   8.883   4.671   0.608
30007WAT     H190263   8.925   4.708   0.691
30007WAT     H290264   8.881   4.743   0.538
30008WAT      O90265   7.138   2.723   7.937
30008WAT     H190266   7.074   2.778   7.990
30008WAT     H290267   7.195   2.669   7.998
30009WAT      O90268   2.085   9.390   4.166
30009WAT     H190269   2.054   9.466   4.222
30009WAT     H290270   2.018   9.371   4.094
30010WAT      O90271   7.058   8.239   8.614
30010WAT     H190272   7.135   8.176   8.618
30010WAT     H290273   7.018   8.237   8.522
30011WAT      O90274   6.280   6.482   1.412
30011WAT     H190275   6.236   6.423   1.344
30011WAT     H290276   6.266   6.444   1.503
30012WAT      O90277   5.337   7.430   7.894
30012WAT     H190278   5.284   7.422   7.979
30012WAT     H290279   5.320   7.518   7.852
30013WAT      O90280   2.037   0.516   3.170
30013WAT     H190281   2.137   0.525   3.171
30013WAT     H290282   2.000   0.562   3.090
30014WAT      O90283   8.137   1.256   8.812
30014WAT     H190284   8.129   1.189   8.738
30014WAT     H290285   8.062   1.242   8.877
30015WAT      O90286   3.378   2.655   3.101
30015WAT     H190287   3.355   2.621   3.010
30015WAT     H290288   3.453   2.600   3.139
30016WAT      O90289   0.370   9.638   7.789
30016WAT     H190290   0.329   9.658   7.700
30016WAT     H290291   0.367   9.540   7.806
30017WAT      O90292   3.916   3.610   6.840
30017WAT     H190293   3.856   3.618   6.760
30017WAT     H290294   3.959   3.520   6.841
30018WAT      O90295   1.773   9.505   4.964
30018WAT     H190296   1.855   9.559   4.945
30018WAT     H290297   1.697   9.566   4.986
30019WAT      O90298   7.574   1.424   7.135
30019WAT     H190299   7.658   1.450   7.088
30019WAT     H290300   7.547   1.495   7.200
30020WAT      O90301   3.579   9.427   5.304
30020WAT     H190302   3.556   9.455   5.397
30020WAT     H290303   3.611   9.332   5.304
30021WAT      O90304   5.261   5.454   9.329
30021WAT     H190305   5.332   5.523   9.344
30021WAT     H290306   5.176   5.483   9.372
30022WAT      O90307   8.631   7.773   6.181
30022WAT     H190308   8.553   7.725   6.141
30022WAT     H290309   8.712   7.714   6.175
30023WAT      O90310   8.786   5.776   4.676
30023WAT     H190311   8.726   5.808   4.602
30023WAT     H290312   8.741   5.791   4.764
30024WAT      O90313   4.550   9.579   9.160
30024WAT     H190314   4.615   9.589   9.236
30024WAT     H290315   4.481   9.651   9.166
30025WAT      O90316   7.097   1.033   1.868
30025WAT     H190317   7.133   1.087   1.944
30025WAT     H290318   7.023   0.975   1.900
30026WAT      O90319   1.927   2.727   3.143
30026WAT     H190320   1.986   2.705   3.066
30026WAT     H290321   1.930   2.826   3.161
30027WAT      O90322   0.769   7.428   4.866
30027WAT     H190323   0.865   7.417   4.891
30027WAT     H290324   0.762   7.442   4.767
30028WAT      O90325   7.578   2.497   3.258
30028WAT     H190326   7.620   2.586   3.275
30028WAT     H290327   7.650   2.427   3.251
30029WAT      O90328   9.809   0.086   3.509
30029WAT     H190329   9.908   0.074   3.499
30029WAT     H290330   9.763   0.059   3.424
30030WAT      O90331   9.847   1.280   8.459
30030WAT     H190332   9.810   1.241   8.544
30030WAT     H290333   9.815   1.226   8.381
30031WAT      O90334   0.047   5.713   0.697
30031WAT     H190335   0.065   5.635   0.757
30031WAT     H290336   0.039   5.680   0.603
30032WAT      O90337   3.680   1.973   5.889
30032WAT     H190338   3.598   1.988   5.945
30032WAT     H290339   3.756   1.945   5.947
30033WAT      O90340   6.307   3.136   2.580
30033WAT     H190341   6.372   3.148   2.505
30033WAT     H290342   6.214   3.137   2.544
30034WAT      O90343   8.308   4.545   5.562
30034WAT     H190344   8.210   4.546   5.582
30034WAT     H290345   8.321   4.565   5.465
30035WAT      O90346   9.315   1.155   2.540
30035WAT     H190347   9.295   1.234   2.482
30035WAT     H290348   9.230   1.122   2.582
30036WAT      O90349   1.145   4.823   2.282
30036WAT     H190350   1.121   4.899   2.222
30036WAT     H290351   1.203   4.856   2.356
30037WAT      O90352   1.692   6.420   8.222
30037WAT     H190353   1.775   6.395   8.171
30037WAT     H290354   1.647   6.496   8.175
30038WAT      O90355   4.774   4.657   6.346
30038WAT     H190356   4.753   4.593   6.272
30038WAT     H290357   4.765   4.751   6.313
30039WAT      O90358   7.260   7.020   4.247
30039WAT     H190359   7.186   6.974   4.295
30039WAT     H290360   7.223   7.066   4.166
30040WAT      O90361   0.835   5.093   3.987
30040WAT     H190362   0.832   5.168   4.054
30040WAT     H290363   0.816   5.129   3.896
30041WAT      O90364   5.293   3.331   6.663
30041WAT     H190365   5.309   3.427   6.642
30041WAT     H290366   5.379   3.287   6.689
30042WAT      O90367   6.076   8.310   7.245
30042WAT     H190368   6.170   8.325   7.275
30042WAT     H290369   6.057   8.212   7.242
30043WAT      O90370   4.648   5.434   1.802
30043WAT     H190371   4.724   5.441   1.866
30043WAT     H290372   4.673   5.373   1.727
30044WAT      O90373   8.315   3.495   3.237
30044WAT     H190374   8.306   3.403   3.201
30044WAT     H290375   8.265   3.502   3.324
30045WAT      O90376   9.566   1.901   1.247
30045WAT     H190377   9.653   1.884   1.294
30045WAT     H290378   9.499   1.832   1.274
30046WAT      O90379   3.722   3.462   8.790
30046WAT     H190380   3.702   3.492   8.697
30046WAT     H290381   3.748   3.540   8.847
30047WAT      O90382   5.739   6.307   4.913
30047WAT     H190383   5.668   6.300   4.983
30047WAT     H290384   5.754   6.217   4.872
30048WAT      O90385   2.119   2.495   9.515
30048WAT     H190386   2.202   2.441   9.501
30048WAT     H290387   2.138   2.591   9.493
30049WAT      O90388   7.725   3.234   0.536
30049WAT     H190389   7.769   3.166   0.477
30049WAT     H290390   7.668   3.294   0.480
30050WAT      O90391   4.455   4.049   6.109
30050WAT     H190392   4.437   4.122   6.043
30050WAT     H290393   4.524   4.079   6.174
30051WAT      O90394   3.538   5.378   0.968
30051WAT     H190395   3.588   5.294   0.989
30051WAT     H290396   3.554   5.404   0.873
30052WAT      O90397   0.437   4.681   2.125
30052WAT     H190398   0.406   4.762   2.075
30052WAT     H290399   0.484   4.710   2.208
30053WAT      O90400   8.902   3.172   4.731
30053WAT     H190401   8.887   3.223   4.816
30053WAT     H290402   8.919   3.236   4.656
30054WAT      O90403   4.459   3.309   5.198
30054WAT     H190404   4.502   3.221   5.219
30054WAT     H290405   4.366   3.293   5.165
30055WAT      O90406   1.942   6.059   1.147
30055WAT     H190407   1.923   5.990   1.217
30055WAT     H290408   1.955   6.148   1.191
30056WAT      O90409   2.653   0.890   4.276
30056WAT     H190410   2.633   0.793   4.293
30056WAT     H290411   2.592   0.924   4.204
30057WAT      O90412   4.241   8.452   3.530
30057WAT     H190413   4.169   8.508   3.489
30057WAT     H290414   4.330   8.493   3.509
30058WAT      O90415   9.342   8.586   8.943
30058WAT     H190416   9.372   8.514   9.007
30058WAT     H290417   9.405   8.589   8.866
30059WAT      O90418   3.097   7.211   7.938
30059WAT     H190419   3.053   7.246   7.854
30059WAT     H290420   3.196   7.205   7.923
30060WAT      O90421   3.925   4.539   6.665
30060WAT     H190422   3.924   4.440   6.678
30060WAT     H290423   3.864   4.564   6.590
30061WAT      O90424   6.539   2.681   4.167
30061WAT     H190425   6.631   2.646   4.153
30061WAT     H290426   6.537   2.735   4.251
30062WAT      O90427   7.620   3.072   9.033
30062WAT     H190428   7.641   3.023   8.949
30062WAT     H290429   7.524   3.100   9.032
30063WAT      O90430   9.450   4.908   6.513
30063WAT     H190431   9.363   4.873   6.479
30063WAT     H290432   9.521   4.838   6.502
30064WAT      O90433   5.880   3.039   9.026
30064WAT     H190434   5.796   3.026   8.973
30064WAT     H290435   5.895   2.960   9.086
30065WAT      O90436   0.887   4.265   2.763
30065WAT     H190437   0.960   4.299   2.822
30065WAT     H290438   0.803   4.316   2.781
30066WAT      O90439   6.054   3.404   1.986
30066WAT     H190440   6.147   3.440   1.986
30066WAT     H290441   5.994   3.466   2.038
30067WAT      O90442   0.659   1.497   0.526
30067WAT     H190443   0.585   1.553   0.488
30067WAT     H290444   0.650   1.494   0.626
30068WAT      O90445   6.420   5.435   8.345
30068WAT     H190446   6.443   5.532   8.340
30068WAT     H290447   6.366   5.417   8.428
30069WAT      O90448   9.196   7.165   3.273
30069WAT     H190449   9.242   7.104   3.208
30069WAT     H290450   9.098   7.144   3.275
30070WAT      O90451   6.697   6.596   8.150
30070WAT     H190452   6.783   6.582   8.100
30070WAT     H290453   6.698   6.541   8.233
30071WAT      O90454   1.351   6.944   6.797
30071WAT     H190455   1.273   6.923   6.856
30071WAT     H290456   1.422   6.991   6.849
30072WAT      O90457   4.969   0.882   0.863
30072WAT     H190458   4.956   0.936   0.946
30072WAT     H290459   4.880   0.862   0.822
30073WAT      O90460   3.093   3.531   5.508
30073WAT     H190461   3.162   3.481   5.455
30073WAT     H290462   3.010   3.475   5.515
30074WAT      O90463   0.807   9.378   2.326
30074WAT     H190464   0.766   9.467   2.344
30074WAT     H290465   0.746   9.306   2.359
30075WAT      O90466   3.757   5.838   1.443
30075WAT     H190467   3.749   5.936   1.424
30075WAT     H290468   3.697   5.787   1.381
30076WAT      O90469   8.582   5.209   4.293
30076WAT     H190470   8.558   5.160   4.210
30076WAT     H290471   8.679   5.197   4.312
30077WAT      O90472   9.711   0.990   6.474
30077WAT     H190473   9.673   0.953   6.559
30077WAT     H290474   9.691   1.087   6.468
30078WAT      O90475   8.848   8.326   1.275
30078WAT     H190476   8.913   8.393   1.240
30078WAT     H290477   8.896   8.260   1.333
30079WAT      O90478   8.567   1.982   9.292
30079WAT     H190479   8.637   2.032   9.240
30079WAT     H290480   8.491   1.958   9.232
30080WAT      O90481   6.393   6.361   4.553
30080WAT     H190482   6.412   6.315   4.467
30080WAT     H290483   6.322   6.430   4.539
30081WAT      O90484   2.221   5.777   2.771
30081WAT     H190485   2.291   5.843   2.741
30081WAT     H290486   2.212   5.705   2.703
30082WAT      O90487   6.145   2.318   5.276
30082WAT     H190488   6.161   2.261   5.195
30082WAT     H290489   6.205   2.398   5.273
30083WAT      O90490   5.363   9.668   7.584
30083WAT     H190491   5.430   9.735   7.554
30083WAT     H290492   5.383   9.640   7.678
30084WAT      O90493   2.233   0.122   3.487
30084WAT     H190494   2.151   0.180   3.483
30084WAT     H290495   2.266   0.118   3.581
30085WAT      O90496   4.140   8.602   8.210
30085WAT     H190497   4.075   8.617   8.285
30085WAT     H290498   4.224   8.562   8.246
30086WAT      O90499   1.533   4.640   0.412
30086WAT     H190500   1.573   4.656   0.322
30086WAT     H290501   1.434   4.643   0.406
30087WAT      O90502   1.052   3.888   2.177
30087WAT     H190503   1.134   3.937   2.207
30087WAT     H290504   1.078   3.813   2.117
30088WAT      O90505   9.727   9.222   2.541
30088WAT     H190506   9.646   9.232   2.598
30088WAT     H290507   9.796   9.170   2.590
30089WAT      O90508   4.539   2.048   4.146
30089WAT     H190509   4.540   2.137   4.191
30089WAT     H290510   4.601   1.986   4.194
30090WAT      O90511   4.221   0.136   9.783
30090WAT     H190512   4.264   0.225   9.798
30090WAT     H290513   4.175   0.136   9.694
30091WAT      O90514   1.875   7.316   7.054
30091WAT     H190515   1.875   7.405   7.101
30091WAT     H290516   1.794   7.264   7.083
30092WAT      O90517   1.184   1.156   0.953
30092WAT     H190518   1.239   1.190   0.877
30092WAT     H290519   1.238   1.158   1.037
30093WAT      O90520   4.274   1.832   5.336
30093WAT     H190521   4.318   1.910   5.380
30093WAT     H290522   4.303   1.825   5.241
30094WAT      O90523   6.749   5.311   8.651
30094WAT     H190524   6.723   5.263   8.568
30094WAT     H290525   6.679   5.380   8.673
30095WAT      O90526   9.808   2.249   1.984
30095WAT     H190527   9.862   2.269   1.902
30095WAT     H290528   9.731   2.313   1.989
30096WAT      O90529   6.635   8.264   3.694
30096WAT     H190530   6.723   8.306   3.670
30096WAT     H290531   6.611   8.196   3.624
30097WAT      O90532   7.088   6.275   8.510
30097WAT     H190533   7.013   6.237   8.563
30097WAT     H290534   7.084   6.240   8.416
30098WAT      O90535   3.969   1.613   6.739
30098WAT     H190536   3.984   1.521   6.775
30098WAT     H290537   3.920   1.668   6.806
30099WAT      O90538   4.259   7.488   7.846
30099WAT     H190539   4.213   7.489   7.757
30099WAT     H290540   4.326   7.562   7.849
30100WAT      O90541   3.915   8.990   4.694
30100WAT     H190542   3.870   8.901   4.699
30100WAT     H290543   3.984   8.988   4.622
30101WAT      O90544   0.834   2.182   2.917
30101WAT     H190545   0.778   2.128   2.853
30101WAT     H290546   0.820   2.149   3.010
30102WAT      O90547   7.589   0.474   3.389
30102WAT     H190548   7.652   0.534   3.340
30102WAT     H290549   7.525   0.433   3.324
30103WAT      O90550   7.696   1.224   2.891
30103WAT     H190551   7.611   1.273   2.872
30103WAT     H290552   7.731   1.251   2.981
30104WAT      O90553   5.119   8.661   1.703
30104WAT     H190554   5.097   8.756   1.678
30104WAT     H290555   5.113   8.651   1.802
30105WAT      O90556   6.267   4.439   8.016
30105WAT     H190557   6.286   4.420   8.112
30105WAT     H290558   6.341   4.494   7.978
30106WAT      O90559   6.008   2.226   1.599
30106WAT     H190560   5.937   2.263   1.659
30106WAT     H290561   6.031   2.293   1.529
30107WAT      O90562   7.012   7.111   6.372
30107WAT     H190563   7.020   7.087   6.276
30107WAT     H290564   6.944   7.053   6.416
30108WAT      O90565   1.204   8.092   6.855
30108WAT     H190566   1.160   8.181   6.868
30108WAT     H290567   1.136   8.019   6.864
30109WAT      O90568   8.423   5.458   2.948
30109WAT     H190569   8.340   5.426   2.993
30109WAT     H290570   8.503   5.421   2.995
30110WAT      O90571   7.648   7.086   6.386
30110WAT     H190572   7.668   6.999   6.431
30110WAT     H290573   7.729   7.145   6.390
30111WAT      O90574   4.637   9.022   8.093
30111WAT     H190575   4.721   8.969   8.110
30111WAT     H290576   4.557   8.965   8.112
30112WAT      O90577   2.489   9.506   0.459
30112WAT     H190578   2.507   9.427   0.400
30112WAT     H290579   2.563   9.573   0.448
30113WAT      O90580   3.213   3.779   2.859
30113WAT     H190581   3.252   3.780   2.767
30113WAT     H290582   3.282   3.808   2.925
30114WAT      O90583   0.758   7.198   0.952
30114WAT     H190584   0.778   7.182   1.049
30114WAT     H290585   0.840   7.182   0.898
30115WAT      O90586   3.303   3.472   4.943
30115WAT     H190587   3.342   3.496   4.854
30115WAT     H290588   3.348   3.391   4.979
30116WAT      O90589   3.155   7.485   8.456
30116WAT     H190590   3.198   7.558   8.508
30116WAT     H290591   3.056   7.490   8.466
30117WAT      O90592   7.457   5.786   8.181
30117WAT     H190593   7.403   5.780   8.097
30117WAT     H290594   7.395   5.793   8.260
30118WAT      O90595   5.582   9.377   9.626
30118WAT     H190596   5.639   9.330   9.558
30118WAT     H290597   5.509   9.427   9.580
30119WAT      O90598   2.236   9.309   2.392
30119WAT     H190599   2.144   9.281   2.421
30119WAT     H290600   2.253   9.402   2.425
30120WAT      O90601   7.336   2.365   3.237
30120WAT     H190602   7.418   2.418   3.262
30120WAT     H290603   7.254   2.418   3.260
30121WAT      O90604   6.710   1.105   5.384
30121WAT     H190605   6.620   1.129   5.347
30121WAT     H290606   6.724   1.006   5.376
30122WAT      O90607   8.554   6.924   4.616
30122WAT     H190608   8.463   6.962   4.627
30122WAT     H290609   8.618   6.973   4.675
30123WAT      O90610   3.020   3.455   7.615
30123WAT     H190611   3.100   3.427   7.668
30123WAT     H290612   3.050   3.504   7.532
30124WAT      O90613   5.896   3.765   4.960
30124WAT     H190614   5.907   3.862   4.941
30124WAT     H290615   5.801   3.738   4.943
30125WAT      O90616   1.532   6.833   4.053
30125WAT     H190617   1.484   6.918   4.036
30125WAT     H290618   1.597   6.815   3.979
30126WAT      O90619   4.609   1.945   6.137
30126WAT     H190620   4.644   1.926   6.045
30126WAT     H290621   4.593   1.859   6.185
30127WAT      O90622   6.260   4.579   6.984
30127WAT     H190623   6.331   4.509   6.971
30127WAT     H290624   6.214   4.595   6.896
30128WAT      O90625   2.893   7.382   1.089
30128WAT     H190626   2.900   7.435   1.004
30128WAT     H290627   2.958   7.418   1.156
30129WAT      O90628   4.072   7.013   1.896
30129WAT     H190629   4.160   6.970   1.918
30129WAT     H290630   4.088   7.101   1.851
30130WAT      O90631   7.941   7.348   3.720
30130WAT     H190632   8.019   7.339   3.658
30130WAT     H290633   7.969   7.396   3.803
30131WAT      O90634   9.265   4.368   6.219
30131WAT     H190635   9.334   4.395   6.287
30131WAT     H290636   9.220   4.449   6.184
30132WAT      O90637   5.232   9.234   9.369
30132WAT     H190638   5.135   9.260   9.372
30132WAT     H290639   5.247   9.156   9.430
30133WAT      O90640   5.243   6.773   1.462
30133WAT     H190641   5.322   6.811   1.414
30133WAT     H290642   5.250   6.793   1.559
30134WAT      O90643   5.841   0.622   8.369
30134WAT     H190644   5.916   0.605   8.304
30134WAT     H290645   5.862   0.703   8.423
30135WAT      O90646   1.276   6.317   7.768
30135WAT     H190647   1.229   6.399   7.801
30135WAT     H290648   1.301   6.259   7.845
30136WAT      O90649   2.718   2.905   2.027
30136WAT     H190650   2.626   2.945   2.029
30136WAT     H290651   2.762   2.921   2.116
30137WAT      O90652   3.637   1.247   9.417
30137WAT     H190653   3.584   1.265   9.500
30137WAT     H290654   3.726   1.208   9.442
30138WAT      O90655   3.470   8.655   8.744
30138WAT     H190656   3.470   8.722   8.818
30138WAT     H290657   3.407   8.684   8.672
30139WAT      O90658   0.365   7.300   4.660
30139WAT     H190659   0.456   7.273   4.630
30139WAT     H290660   0.304   7.304   4.582
30140WAT      O90661   1.989   8.542   5.647
30140WAT     H190662   1.897   8.576   5.663
30140WAT     H290663   2.056   8.601   5.692
30141WAT      O90664   6.076   4.686   5.838
30141WAT     H190665   6.141   4.694   5.914
30141WAT     H290666   6.007   4.617   5.860
30142WAT      O90667   6.257   7.235   1.522
30142WAT     H190668   6.289   7.322   1.483
30142WAT     H290669   6.192   7.192   1.460
30143WAT      O90670   8.002   4.478   4.188
30143WAT     H190671   7.912   4.485   4.231
30143WAT     H290672   8.029   4.567   4.151
30144WAT      O90673   9.504   3.317   6.675
30144WAT     H190674   9.504   3.364   6.587
30144WAT     H290675   9.561   3.367   6.740
30145WAT      O90676   7.800   9.090   3.327
30145WAT     H190677   7.885   9.130   3.363
30145WAT     H290678   7.733   9.162   3.311
30146WAT      O90679   6.718   1.828   1.541
30146WAT     H190680   6.669   1.745   1.516
30146WAT     H290681   6.676   1.907   1.496
30147WAT      O90682   2.669   3.506   8.621
30147WAT     H190683   2.573   3.531   8.608
30147WAT     H290684   2.674   3.415   8.664
30148WAT      O90685   5.697   4.405   8.387
30148WAT     H190686   5.678   4.339   8.460
30148WAT     H290687   5.742   4.486   8.426
30149WAT      O90688   9.354   7.202   3.856
30149WAT     H190689   9.403   7.152   3.785
30149WAT     H290690   9.340   7.297   3.828
30150WAT      O90691   4.950   0.392   5.329
30150WAT     H190692   5.032   0.433   5.289
30150WAT     H290693   4.869   0.440   5.297
30151WAT      O90694   8.167   0.362   1.520
30151WAT     H190695   8.195   0.457   1.533
30151WAT     H290696   8.237   0.313   1.469
30152WAT      O90697   4.945   3.918   0.829
30152WAT     H190698   4.889   3.889   0.906
30152WAT     H290699   4.894   3.906   0.744
30153WAT      O90700   1.506   5.932   2.412
30153WAT     H190701   1.560   6.011   2.383
30153WAT     H290702   1.518   5.857   2.346
30154WAT      O90703   3.396   1.905   1.160
30154WAT     H190704   3.472   1.960   1.195
30154WAT     H290705   3.398   1.906   1.060
30155WAT      O90706   1.761   1.425   0.617
30155WAT     H190707   1.810   1.480   0.550
30155WAT     H290708   1.667   1.411   0.586
30156WAT      O90709   3.628   8.068   6.212
30156WAT     H190710   3.555   8.034   6.272
30156WAT     H290711   3.636   8.167   6.223
30157WAT      O90712   6.508   6.996   3.191
30157WAT     H190713   6.495   6.955   3.281
30157WAT     H290714   6.482   7.093   3.194
30158WAT      O90715   7.854   9.836   5.971
30158WAT     H190716   7.922   9.799   6.035
30158WAT     H290717   7.901   9.892   5.902
30159WAT      O90718   1.789   1.108   4.637
30159WAT     H190719   1.775   1.196   4.591
30159WAT     H290720   1.711   1.088   4.696
30160WAT      O90721   9.129   0.192   0.953
30160WAT     H190722   9.039   0.153   0.933
30160WAT     H290723   9.184   0.125   1.003
30161WAT      O90724   9.031   8.746   2.391
30161WAT     H190725   9.063   8.673   2.451
30161WAT     H290726   9.035   8.833   2.439
30162WAT      O90727   9.745   4.558   0.283
30162WAT     H190728   9.805   4.507   0.346
30162WAT     H290729   9.795   4.637   0.247
30163WAT      O90730   3.776   2.623   5.457
30163WAT     H190731   3.719   2.653   5.381
30163WAT     H290732   3.718   2.602   5.536
30164WAT      O90733   4.413   8.325   4.769
30164WAT     H190734   4.395   8.227   4.757
30164WAT     H290735   4.377   8.375   4.691
30165WAT      O90736   1.119   6.807   3.434
30165WAT     H190737   1.080   6.874   3.370
30165WAT     H290738   1.101   6.837   3.528
30166WAT      O90739   2.195   3.371   2.239
30166WAT     H190740   2.222   3.406   2.149
30166WAT     H290741   2.151   3.444   2.291
30167WAT      O90742   7.988   8.024   8.605
30167WAT     H190743   7.896   8.026   8.565
30167WAT     H290744   8.026   8.116   8.604
30168WAT      O90745   0.593   2.790   7.285
30168WAT     H190746   0.564   2.841   7.204
30168WAT     H290747   0.643   2.708   7.256
30169WAT      O90748   4.883   0.914   0.084
30169WAT     H190749   4.797   0.873   0.114
30169WAT     H290750   4.876   0.936  -0.014
30170WAT      O90751   7.050   4.869   6.446
30170WAT     H190752   7.049   4.876   6.346
30170WAT     H290753   7.044   4.773   6.473
30171WAT      O90754   3.245   7.690   4.712
30171WAT     H190755   3.208   7.671   4.803
30171WAT     H290756   3.344   7.677   4.713
30172WAT      O90757   1.696   8.618   9.159
30172WAT     H190758   1.791   8.631   9.189
30172WAT     H290759   1.661   8.705   9.122
30173WAT      O90760   6.461   1.243   8.841
30173WAT     H190761   6.392   1.172   8.856
30173WAT     H290762   6.431   1.328   8.883
30174WAT      O90763   0.634   6.735   3.047
30174WAT     H190764   0.611   6.638   3.051
30174WAT     H290765   0.700   6.757   3.118
30175WAT      O90766   7.941   3.174   7.494
30175WAT     H190767   7.883   3.244   7.537
30175WAT     H290768   7.905   3.084   7.516
30176WAT      O90769   4.018   5.523   7.975
30176WAT     H190770   4.040   5.457   7.904
30176WAT     H290771   4.092   5.525   8.042
30177WAT      O90772   0.160   0.055   1.367
30177WAT     H190773   0.217  -0.020   1.332
30177WAT     H290774   0.186   0.075   1.461
30178WAT      O90775   4.522   6.515   7.097
30178WAT     H190776   4.588   6.522   7.022
30178WAT     H290777   4.486   6.606   7.117
30179WAT      O90778   5.091   8.614   3.113
30179WAT     H190779   5.137   8.702   3.126
30179WAT     H290780   5.157   8.547   3.078
30180WAT      O90781   6.553   2.013   2.461
30180WAT     H190782   6.467   1.992   2.415
30180WAT     H290783   6.610   2.071   2.403
30181WAT      O90784   0.380   6.488   8.773
30181WAT     H190785   0.298   6.431   8.768
30181WAT     H290786   0.364   6.565   8.834
30182WAT      O90787   8.104   7.545   9.541
30182WAT     H190788   8.057   7.458   9.553
30182WAT     H290789   8.045   7.609   9.493
30183WAT      O90790   7.642   1.876   2.333
30183WAT     H190791   7.689   1.960   2.361
30183WAT     H290792   7.560   1.864   2.388
30184WAT      O90793   4.655   0.612   5.489
30184WAT     H190794   4.670   0.552   5.410
30184WAT     H290795   4.723   0.686   5.487
30185WAT      O90796   7.841   5.993   5.089
30185WAT     H190797   7.841   5.932   5.168
30185WAT     H290798   7.774   6.066   5.104
30186WAT      O90799   0.112   8.252   7.370
30186WAT     H190800   0.106   8.191   7.292
30186WAT     H290801   0.021   8.290   7.390
30187WAT      O90802   2.348   6.293   6.675
30187WAT     H190803   2.264   6.312   6.623
30187WAT     H290804   2.338   6.206   6.723
30188WAT      O90805   4.140   6.093   3.067
30188WAT     H190806   4.230   6.054   3.087
30188WAT     H290807   4.075   6.065   3.137
30189WAT      O90808   8.819   9.256   8.742
30189WAT     H190809   8.786   9.229   8.651
30189WAT     H290810   8.755   9.322   8.782
30190WAT      O90811   9.849   6.856   3.254
30190WAT     H190812   9.849   6.889   3.159
30190WAT     H290813   9.788   6.913   3.309
30191WAT      O90814   0.669   7.105   2.880
30191WAT     H190815   0.675   7.008   2.906
30191WAT     H290816   0.689   7.114   2.782
30192WAT      O90817   8.007   3.359   0.665
30192WAT     H190818   8.022   3.455   0.689
30192WAT     H290819   7.909   3.338   0.674
30193WAT      O90820   2.685   9.244   0.694
30193WAT     H190821   2.729   9.162   0.657
30193WAT     H290822   2.678   9.313   0.622
30194WAT      O90823   8.755   1.974   4.023
30194WAT     H190824   8.780   2.063   3.987
30194WAT     H290825   8.723   1.984   4.117
30195WAT      O90826   2.662   4.025   8.275
30195WAT     H190827   2.643   3.980   8.362
30195WAT     H290828   2.620   4.115   8.273
30196WAT      O90829   1.265   3.558   0.774
30196WAT     H190830   1.241   3.474   0.725
30196WAT     H290831   1.192   3.582   0.837
30197WAT      O90832   8.784   0.950   8.137
30197WAT     H190833   8.718   1.021   8.162
30197WAT     H290834   8.737   0.874   8.092
30198WAT      O90835   5.997   7.607   1.994
30198WAT     H190836   5.988   7.553   1.910
30198WAT     H290837   6.084   7.656   1.993
30199WAT      O90838   1.436   5.477   9.004
30199WAT     H190839   1.374   5.459   8.927
30199WAT     H290840   1.526   5.438   8.984
30200WAT      O90841   6.525   5.621   4.557
30200WAT     H190842   6.437   5.583   4.586
30200WAT     H290843   6.556   5.571   4.476
30201WAT      O90844   2.785   7.057   6.496
30201WAT     H190845   2.830   6.989   6.437
30201WAT     H290846   2.709   7.013   6.544
30202WAT      O90847   1.959   7.646   6.192
30202WAT     H190848   2.053   7.613   6.189
30202WAT     H290849   1.957   7.737   6.234
30203WAT      O90850   8.618   4.869   5.150
30203WAT     H190851   8.690   4.801   5.137
30203WAT     H290852   8.553   4.835   5.219
30204WAT      O90853   1.713   8.431   7.779
30204WAT     H190854   1.738   8.442   7.875
30204WAT     H290855   1.620   8.463   7.764
30205WAT      O90856   8.054   8.078   2.473
30205WAT     H190857   8.030   7.981   2.484
30205WAT     H290858   8.153   8.086   2.465
30206WAT      O90859   4.728   5.565   7.860
30206WAT     H190860   4.826   5.574   7.842
30206WAT     H290861   4.679   5.639   7.814
30207WAT      O90862   1.112   1.786   9.288
30207WAT     H190863   1.116   1.796   9.388
30207WAT     H290864   1.032   1.834   9.253
30208WAT      O90865   1.397   4.617   5.106
30208WAT     H190866   1.359   4.673   5.033
30208WAT     H290867   1.483   4.576   5.074
30209WAT      O90868   5.857   2.140   3.485
30209WAT     H190869   5.911   2.138   3.569
30209WAT     H290870   5.890   2.070   3.422
30210WAT      O90871   2.072   0.136   9.532
30210WAT     H190872   2.012   0.146   9.612
30210WAT     H290873   2.100   0.227   9.501
30211WAT      O90874   7.777   8.229   3.059
30211WAT     H190875   7.848   8.275   3.112
30211WAT     H290876   7.706   8.196   3.121
30212WAT      O90877   6.893   2.710   6.016
30212WAT     H190878   6.968   2.776   6.019
30212WAT     H290879   6.910   2.638   6.084
30213WAT      O90880   8.560   4.887   0.934
30213WAT     H190881   8.535   4.977   0.969
30213WAT     H290882   8.482   4.847   0.886
30214WAT      O90883   1.042   8.732   5.209
30214WAT     H190884   1.059   8.695   5.118
30214WAT     H290885   1.125   8.723   5.265
30215WAT      O90886   1.029   3.962   6.999
30215WAT     H190887   1.071   3.926   6.915
30215WAT     H290888   1.029   4.062   6.996
30216WAT      O90889   3.368   0.410   6.729
30216WAT     H190890   3.414   0.321   6.736
30216WAT     H290891   3.410   0.462   6.655
30217WAT      O90892   8.659   2.058   0.271
30217WAT     H190893   8.691   2.102   0.188
30217WAT     H290894   8.718   1.981   0.293
30218WAT      O90895   5.242   2.138   0.360
30218WAT     H190896   5.240   2.054   0.305
30218WAT     H290897   5.149   2.172   0.373
30219WAT      O90898   6.769   6.691   0.819
30219WAT     H190899   6.739   6.718   0.911
30219WAT     H290900   6.724   6.749   0.751
30220WAT      O90901   3.257   4.097   9.038
30220WAT     H190902   3.330   4.040   9.076
30220WAT     H290903   3.181   4.039   9.011
30221WAT      O90904   9.110   3.928   6.972
30221WAT     H190905   9.150   3.936   6.880
30221WAT     H290906   9.162   3.860   7.024
30222WAT      O90907   6.099   6.371   7.820
30222WAT     H190908   6.174   6.427   7.785
30222WAT     H290909   6.103   6.281   7.777
30223WAT      O90910   4.708   0.150   4.179
30223WAT     H190911   4.807   0.155   4.163
30223WAT     H290912   4.666   0.237   4.156
30224WAT      O90913   8.605   5.238   1.496
30224WAT     H190914   8.567   5.147   1.477
30224WAT     H290915   8.637   5.279   1.410
30225WAT      O90916   3.029   9.775   3.880
30225WAT     H190917   3.040   9.748   3.785
30225WAT     H290918   2.938   9.814   3.893
30226WAT      O90919   2.316   4.837   8.542
30226WAT     H190920   2.410   4.870   8.549
30226WAT     H290921   2.290   4.793   8.628
30227WAT      O90922   4.828   2.311   3.764
30227WAT     H190923   4.908   2.305   3.704
30227WAT     H290924   4.775   2.392   3.741
30228WAT      O90925   1.073   8.240   4.537
30228WAT     H190926   0.978   8.235   4.566
30228WAT     H290927   1.125   8.297   4.601
30229WAT      O90928   4.803   1.528   1.127
30229WAT     H190929   4.844   1.453   1.075
30229WAT     H290930   4.704   1.526   1.117
30230WAT      O90931   3.563   4.539   5.868
30230WAT     H190932   3.479   4.522   5.919
30230WAT     H290933   3.540   4.570   5.776
30231WAT      O90934   0.270   7.378   2.970
30231WAT     H190935   0.222   7.326   2.900
30231WAT     H290936   0.245   7.343   3.061
30232WAT      O90937   6.463   7.437   3.886
30232WAT     H190938   6.479   7.372   3.960
30232WAT     H290939   6.434   7.525   3.925
30233WAT      O90940   3.729   7.291   4.522
30233WAT     H190941   3.681   7.235   4.590
30233WAT     H290942   3.679   7.376   4.507
30234WAT      O90943   2.670   8.843   7.162
30234WAT     H190944   2.695   8.939   7.167
30234WAT     H290945   2.660   8.816   7.067
30235WAT      O90946   3.667   4.504   1.609
30235WAT     H190947   3.692   4.436   1.540
30235WAT     H290948   3.642   4.457   1.693
30236WAT      O90949   2.909   8.570   8.054
30236WAT     H190950   2.846   8.636   8.014
30236WAT     H290951   2.974   8.617   8.113
30237WAT      O90952   0.278   3.771   6.306
30237WAT     H190953   0.360   3.823   6.279
30237WAT     H290954   0.260   3.786   6.403
30238WAT      O90955   5.393   2.567   6.286
30238WAT     H190956   5.350   2.480   6.263
30238WAT     H290957   5.491   2.560   6.272
30239WAT      O90958   8.148   1.358   2.400
30239WAT     H190959   8.172   1.432   2.337
30239WAT     H290960   8.048   1.347   2.401
30240WAT      O90961   8.507   5.866   5.143
30240WAT     H190962   8.548   5.781   5.176
30240WAT     H290963   8.423   5.884   5.193
30241WAT      O90964   8.319   6.776   9.531
30241WAT     H190965   8.280   6.850   9.586
30241WAT     H290966   8.283   6.688   9.562
30242WAT      O90967   5.293   9.531   5.887
30242WAT     H190968   5.295   9.630   5.896
30242WAT     H290969   5.370   9.492   5.938
30243WAT      O90970   7.650   1.416   3.494
30243WAT     H190971   7.566   1.469   3.482
30243WAT     H290972   7.628   1.323   3.522
30244WAT      O90973   1.647   0.431   6.850
30244WAT     H190974   1.580   0.409   6.922
30244WAT     H290975   1.736   0.394   6.875
30245WAT      O90976   3.760   9.744   0.322
30245WAT     H190977   3.702   9.671   0.358
30245WAT     H290978   3.794   9.717   0.232
30246WAT      O90979   2.485   2.629   5.685
30246WAT     H190980   2.532   2.642   5.771
30246WAT     H290981   2.438   2.541   5.685
30247WAT      O90982   1.894   5.693   7.938
30247WAT     H190983   1.804   5.652   7.935
30247WAT     H290984   1.912   5.740   7.852
30248WAT      O90985   3.062   0.298   8.541
30248WAT     H190986   3.129   0.311   8.469
30248WAT     H290987   2.977   0.261   8.502
30249WAT      O90988   5.283   9.827   9.805
30249WAT     H190989   5.366   9.782   9.771
30249WAT     H290990   5.305   9.882   9.886
30250WAT      O90991   4.693   2.504   5.865
30250WAT     H190992   4.711   2.453   5.781
30250WAT     H290993   4.595   2.504   5.883
30251WAT      O90994   6.563   1.997   6.172
30251WAT     H190995   6.565   2.091   6.139
30251WAT     H290996   6.582   1.934   6.097
30252WAT      O90997   6.973   7.472   3.349
30252WAT     H190998   6.956   7.393   3.408
30252WAT     H290999   6.886   7.520   3.333
30253WAT      O91000   0.293   7.203   9.302
30253WAT     H191001   0.242   7.258   9.236
30253WAT     H291002   0.265   7.107   9.294
30254WAT      O91003   2.731   7.390   3.681
30254WAT     H191004   2.823   7.384   3.643
30254WAT     H291005   2.707   7.302   3.723
30255WAT      O91006   3.841   6.546   3.763
30255WAT     H191007   3.815   6.464   3.713
30255WAT     H291008   3.860   6.620   3.697
30256WAT      O91009   5.435   1.853   8.363
30256WAT     H191010   5.515   1.793   8.368
30256WAT     H291011   5.456   1.941   8.404
30257WAT      O91012   5.936   8.956   7.192
30257WAT     H191013   5.999   8.879   7.199
30257WAT     H291014   5.986   9.041   7.208
30258WAT      O91015   9.760   0.318   3.618
30258WAT     H191016   9.713   0.365   3.543
30258WAT     H291017   9.779   0.224   3.590
30259WAT      O91018   4.866   6.703   2.229
30259WAT     H191019   4.826   6.734   2.143
30259WAT     H291020   4.842   6.767   2.301
30260WAT      O91021   2.255   2.856   5.747
30260WAT     H191022   2.257   2.834   5.649
30260WAT     H291023   2.172   2.818   5.787
30261WAT      O91024   0.573   4.455   5.894
30261WAT     H191025   0.665   4.416   5.905
30261WAT     H291026   0.576   4.553   5.916
30262WAT      O91027   4.697   7.231   1.220
30262WAT     H191028   4.769   7.167   1.248
30262WAT     H291029   4.674   7.215   1.124
30263WAT      O91030   1.504   1.423   8.353
30263WAT     H191031   1.405   1.415   8.367
30263WAT     H291032   1.550   1.347   8.399
30264WAT      O91033   8.413   1.612   9.141
30264WAT     H191034   8.315   1.602   9.155
30264WAT     H291035   8.461   1.536   9.185
30265WAT      O91036   2.784   5.236   5.618
30265WAT     H191037   2.811   5.324   5.659
30265WAT     H291038   2.701   5.249   5.564
30266WAT      O91039   8.340   0.715   5.635
30266WAT     H191040   8.294   0.797   5.670
30266WAT     H291041   8.303   0.692   5.545
30267WAT      O91042   5.308   8.281   4.809
30267WAT     H191043   5.369   8.355   4.780
30267WAT     H291044   5.259   8.310   4.891
30268WAT      O91045   1.593   1.301   8.989
30268WAT     H191046   1.627   1.345   8.906
30268WAT     H291047   1.513   1.245   8.967
30269WAT      O91048   4.699   5.529   2.375
30269WAT     H191049   4.627   5.589   2.337
30269WAT     H291050   4.673   5.500   2.467
30270WAT      O91051   8.533   0.656   9.845
30270WAT     H191052   8.532   0.650   9.745
30270WAT     H291053   8.517   0.566   9.884
30271WAT      O91054   9.674   3.952   4.123
30271WAT     H191055   9.741   3.988   4.059
30271WAT     H291056   9.632   4.027   4.175
30272WAT      O91057   5.208   7.140   5.381
30272WAT     H191058   5.125   7.090   5.406
30272WAT     H291059   5.183   7.230   5.346
30273WAT      O91060   1.318   2.469   8.047
30273WAT     H191061   1.268   2.388   8.079
30273WAT     H291062   1.270   2.552   8.078
30274WAT      O91063   6.831   7.922   3.991
30274WAT     H191064   6.892   7.844   4.008
30274WAT     H291065   6.768   7.899   3.917
30275WAT      O91066   5.469   1.892   1.235
30275WAT     H191067   5.417   1.815   1.199
30275WAT     H291068   5.506   1.869   1.325
30276WAT      O91069   2.981   8.259   4.380
30276WAT     H191070   3.060   8.304   4.423
30276WAT     H291071   3.004   8.164   4.358
30277WAT      O91072   2.727   2.612   7.145
30277WAT     H191073   2.774   2.688   7.101
30277WAT     H291074   2.791   2.535   7.156
30278WAT      O91075   0.957   6.173   5.141
30278WAT     H191076   0.902   6.220   5.072
30278WAT     H291077   0.995   6.241   5.204
30279WAT      O91078   1.158   2.596   1.396
30279WAT     H191079   1.069   2.642   1.396
30279WAT     H291080   1.228   2.659   1.429
30280WAT      O91081   1.158   5.606   0.346
30280WAT     H191082   1.136   5.620   0.250
30280WAT     H291083   1.126   5.684   0.400
30281WAT      O91084   1.787   2.651   2.618
30281WAT     H191085   1.804   2.558   2.584
30281WAT     H291086   1.742   2.647   2.707
30282WAT      O91087   2.080   2.827   9.148
30282WAT     H191088   2.100   2.734   9.118
30282WAT     H291089   1.984   2.834   9.173
30283WAT      O91090   3.938   7.278   6.199
30283WAT     H191091   3.953   7.194   6.253
30283WAT     H291092   3.907   7.351   6.260
30284WAT      O91093   3.522   0.856   7.380
30284WAT     H191094   3.476   0.770   7.404
30284WAT     H291095   3.606   0.835   7.328
30285WAT      O91096   6.706   3.646   3.249
30285WAT     H191097   6.613   3.625   3.279
30285WAT     H291098   6.725   3.743   3.265
30286WAT      O91099   6.101   9.192   5.971
30286WAT     H191100   6.144   9.272   5.930
30286WAT     H291101   6.011   9.218   6.007
30287WAT      O91102   3.842   5.090   8.593
30287WAT     H191103   3.926   5.039   8.575
30287WAT     H291104   3.781   5.034   8.651
30288WAT      O91105   7.827   0.534   2.829
30288WAT     H191106   7.826   0.526   2.928
30288WAT     H291107   7.859   0.624   2.802
30289WAT      O91108   7.742   9.746   0.709
30289WAT     H191109   7.841   9.760   0.703
30289WAT     H291110   7.704   9.736   0.617
30290WAT      O91111   4.175   4.481   1.479
30290WAT     H191112   4.113   4.422   1.428
30290WAT     H291113   4.221   4.545   1.416
30291WAT      O91114   1.058   7.320   2.277
30291WAT     H191115   1.053   7.418   2.297
30291WAT     H291116   1.073   7.269   2.362
30292WAT      O91117   7.835   6.807   1.563
30292WAT     H191118   7.769   6.734   1.580
30292WAT     H291119   7.810   6.854   1.478
30293WAT      O91120   4.236   9.508   6.835
30293WAT     H191121   4.202   9.494   6.928
30293WAT     H291122   4.229   9.604   6.811
30294WAT      O91123   7.028   8.518   8.593
30294WAT     H191124   7.058   8.422   8.594
30294WAT     H291125   7.101   8.575   8.557
30295WAT      O91126   7.022   1.446   4.712
30295WAT     H191127   7.052   1.460   4.806
30295WAT     H291128   7.031   1.531   4.660
30296WAT      O91129   1.645   5.423   3.078
30296WAT     H191130   1.606   5.515   3.065
30296WAT     H291131   1.634   5.395   3.173
30297WAT      O91132   6.383   7.381   2.668
30297WAT     H191133   6.429   7.447   2.609
30297WAT     H291134   6.320   7.326   2.614
30298WAT      O91135   9.852   5.644   8.133
30298WAT     H191136   9.889   5.672   8.045
30298WAT     H291137   9.927   5.632   8.198
30299WAT      O91138   2.090   6.311   3.017
30299WAT     H191139   2.029   6.291   3.094
30299WAT     H291140   2.044   6.374   2.954
30300WAT      O91141   7.207   3.606   7.473
30300WAT     H191142   7.180   3.685   7.419
30300WAT     H291143   7.137   3.587   7.542
30301WAT      O91144   3.572   3.388   2.090
30301WAT     H191145   3.657   3.435   2.066
30301WAT     H291146   3.505   3.455   2.124
30302WAT      O91147   7.589   8.187   5.276
30302WAT     H191148   7.650   8.108   5.282
30302WAT     H291149   7.547   8.191   5.185
30303WAT      O91150   8.033   5.448   7.887
30303WAT     H191151   8.056   5.541   7.860
30303WAT     H291152   8.111   5.406   7.932
30304WAT      O91153   6.781   8.542   3.056
30304WAT     H191154   6.763   8.572   3.150
30304WAT     H291155   6.779   8.442   3.052
30305WAT      O91156   3.844   5.931   3.883
30305WAT     H191157   3.807   5.946   3.975
30305WAT     H291158   3.939   5.959   3.880
30306WAT      O91159   5.421   5.682   4.865
30306WAT     H191160   5.476   5.764   4.882
30306WAT     H291161   5.471   5.620   4.805
30307WAT      O91162   0.750   0.607   3.155
30307WAT     H191163   0.813   0.565   3.220
30307WAT     H291164   0.657   0.571   3.170
30308WAT      O91165   6.613   5.237   4.401
30308WAT     H191166   6.604   5.143   4.367
30308WAT     H291167   6.605   5.238   4.500
30309WAT      O91168   1.608   5.366   7.337
30309WAT     H191169   1.530   5.305   7.326
30309WAT     H291170   1.693   5.314   7.323
30310WAT      O91171   6.890   2.240   0.709
30310WAT     H191172   6.840   2.327   0.705
30310WAT     H291173   6.947   2.231   0.627
30311WAT      O91174   7.628   7.550   0.932
30311WAT     H191175   7.618   7.521   0.837
30311WAT     H291176   7.612   7.648   0.939
30312WAT      O91177   4.940   9.420   3.190
30312WAT     H191178   4.847   9.456   3.187
30312WAT     H291179   4.958   9.380   3.280
30313WAT      O91180   4.595   5.792   2.511
30313WAT     H191181   4.546   5.770   2.427
30313WAT     H291182   4.532   5.788   2.589
30314WAT      O91183   2.345   6.709   5.184
30314WAT     H191184   2.389   6.730   5.096
30314WAT     H291185   2.294   6.789   5.215
30315WAT      O91186   1.820   3.746   4.913
30315WAT     H191187   1.913   3.778   4.933
30315WAT     H291188   1.817   3.647   4.918
30316WAT      O91189   8.524   4.668   3.128
30316WAT     H191190   8.545   4.592   3.189
30316WAT     H291191   8.546   4.754   3.172
30317WAT      O91192   2.722   8.548   4.630
30317WAT     H191193   2.794   8.532   4.697
30317WAT     H291194   2.701   8.462   4.582
30318WAT      O91195   0.472   2.443   2.188
30318WAT     H191196   0.457   2.537   2.158
30318WAT     H291197   0.414   2.423   2.267
30319WAT      O91198   3.397   1.583   2.452
30319WAT     H191199   3.343   1.657   2.492
30319WAT     H291200   3.462   1.548   2.520
30320WAT      O91201   8.239   2.457   7.555
30320WAT     H191202   8.275   2.453   7.462
30320WAT     H291203   8.140   2.473   7.553
30321WAT      O91204   5.838   0.578   2.445
30321WAT     H191205   5.842   0.597   2.347
30321WAT     H291206   5.802   0.659   2.492
30322WAT      O91207   2.034   7.991   9.859
30322WAT     H191208   2.037   8.084   9.896
30322WAT     H291209   2.100   7.933   9.907
30323WAT      O91210   7.079   9.649   1.211
30323WAT     H191211   7.099   9.743   1.185
30323WAT     H291212   7.153   9.614   1.269
30324WAT      O91213   8.671   8.057   9.393
30324WAT     H191214   8.729   8.138   9.383
30324WAT     H291215   8.728   7.979   9.416
30325WAT      O91216   8.090   7.214   6.230
30325WAT     H191217   8.154   7.145   6.263
30325WAT     H291218   8.137   7.274   6.165
30326WAT      O91219   8.783   5.470   2.024
30326WAT     H191220   8.807   5.462   2.121
30326WAT     H291221   8.703   5.412   2.005
30327WAT      O91222   4.201   6.676   6.422
30327WAT     H191223   4.280   6.616   6.434
30327WAT     H291224   4.123   6.639   6.472
30328WAT      O91225   5.870   8.459   7.179
30328WAT     H191226   5.952   8.410   7.209
30328WAT     H291227   5.894   8.554   7.157
30329WAT      O91228   6.145   5.341   5.075
30329WAT     H191229   6.211   5.305   5.009
30329WAT     H291230   6.097   5.265   5.119
30330WAT      O91231   6.376   8.095   1.400
30330WAT     H191232   6.444   8.027   1.372
30330WAT     H291233   6.297   8.091   1.339
30331WAT      O91234   1.283   0.739   0.250
30331WAT     H191235   1.333   0.732   0.336
30331WAT     H291236   1.190   0.772   0.266
30332WAT      O91237   9.463   9.195   1.146
30332WAT     H191238   9.517   9.183   1.063
30332WAT     H291239   9.438   9.106   1.183
30333WAT      O91240   6.272   3.919   5.243
30333WAT     H191241   6.228   3.844   5.194
30333WAT     H291242   6.322   3.977   5.177
30334WAT      O91243   6.131   7.989   9.667
30334WAT     H191244   6.184   7.922   9.718
30334WAT     H291245   6.147   8.080   9.705
30335WAT      O91246   4.268   2.469   7.325
30335WAT     H191247   4.366   2.453   7.309
30335WAT     H291248   4.214   2.409   7.266
30336WAT      O91249   5.971   1.820   0.252
30336WAT     H191250   6.066   1.828   0.222
30336WAT     H291251   5.959   1.733   0.301
30337WAT      O91252   2.129   6.667   5.796
30337WAT     H191253   2.125   6.727   5.876
30337WAT     H291254   2.097   6.717   5.715
30338WAT      O91255   2.014   4.502   9.742
30338WAT     H191256   2.086   4.451   9.695
30338WAT     H291257   1.966   4.561   9.676
30339WAT      O91258   4.149   3.725   8.438
30339WAT     H191259   4.191   3.807   8.478
30339WAT     H291260   4.099   3.676   8.509
30340WAT      O91261   3.890   6.865   6.919
30340WAT     H191262   3.968   6.821   6.874
30340WAT     H291263   3.836   6.915   6.851
30341WAT      O91264   2.773   4.467   7.963
30341WAT     H191265   2.818   4.534   8.022
30341WAT     H291266   2.695   4.509   7.918
30342WAT      O91267   3.170   0.518   9.142
30342WAT     H191268   3.258   0.524   9.095
30342WAT     H291269   3.098   0.557   9.085
30343WAT      O91270   3.618   6.849   8.690
30343WAT     H191271   3.669   6.844   8.604
30343WAT     H291272   3.633   6.938   8.733
30344WAT      O91273   1.141   1.805   9.542
30344WAT     H191274   1.228   1.854   9.541
30344WAT     H291275   1.072   1.860   9.588
30345WAT      O91276   7.410   1.297   6.964
30345WAT     H191277   7.332   1.261   7.016
30345WAT     H291278   7.472   1.345   7.026
30346WAT      O91279   4.217   1.517   3.355
30346WAT     H191280   4.267   1.501   3.270
30346WAT     H291281   4.147   1.588   3.339
30347WAT      O91282   2.375   2.106   0.250
30347WAT     H191283   2.329   2.073   0.168
30347WAT     H291284   2.371   2.036   0.321
30348WAT      O91285   7.214   5.885   4.552
30348WAT     H191286   7.300   5.918   4.589
30348WAT     H291287   7.200   5.924   4.461
30349WAT      O91288   0.364   3.288   7.110
30349WAT     H191289   0.399   3.297   7.016
30349WAT     H291290   0.264   3.292   7.108
30350WAT      O91291   4.664   3.002   7.669
30350WAT     H191292   4.693   3.087   7.625
30350WAT     H291293   4.725   2.981   7.745
30351WAT      O91294   2.209   3.812   9.135
30351WAT     H191295   2.174   3.749   9.204
30351WAT     H291296   2.288   3.860   9.172
30352WAT      O91297   7.254   4.275   6.711
30352WAT     H191298   7.257   4.178   6.736
30352WAT     H291299   7.246   4.330   6.794
30353WAT      O91300   4.362   0.185   7.644
30353WAT     H191301   4.431   0.120   7.613
30353WAT     H291302   4.395   0.279   7.629
30354WAT      O91303   0.751   6.947   7.676
30354WAT     H191304   0.787   7.008   7.606
30354WAT     H291305   0.667   6.987   7.714
30355WAT      O91306   7.110   2.498   6.558
30355WAT     H191307   7.093   2.593   6.587
30355WAT     H291308   7.106   2.438   6.638
30356WAT      O91309   6.634   8.031   6.348
30356WAT     H191310   6.622   8.085   6.265
30356WAT     H291311   6.677   7.944   6.326
30357WAT      O91312   0.988   6.899   1.038
30357WAT     H191313   1.022   6.985   1.076
30357WAT     H291314   0.960   6.914   0.943
30358WAT      O91315   8.282   9.611   4.950
30358WAT     H191316   8.348   9.595   4.877
30358WAT     H291317   8.281   9.533   5.012
30359WAT      O91318   7.525   1.753   4.875
30359WAT     H191319   7.574   1.675   4.835
30359WAT     H291320   7.439   1.722   4.915
30360WAT      O91321   0.694   4.391   4.747
30360WAT     H191322   0.738   4.474   4.712
30360WAT     H291323   0.716   4.380   4.844
30361WAT      O91324   6.686   0.114   3.287
30361WAT     H191325   6.642   0.197   3.320
30361WAT     H291326   6.785   0.128   3.284
30362WAT      O91327   5.578   8.504   4.476
30362WAT     H191328   5.666   8.458   4.491
30362WAT     H291329   5.506   8.435   4.470
30363WAT      O91330   5.729   4.761   5.200
30363WAT     H191331   5.816   4.741   5.153
30363WAT     H291332   5.745   4.766   5.298
30364WAT      O91333   1.864   1.441   0.886
30364WAT     H191334   1.870   1.539   0.906
30364WAT     H291335   1.816   1.428   0.800
30365WAT      O91336   7.181   3.591   3.254
30365WAT     H191337   7.226   3.582   3.165
30365WAT     H291338   7.177   3.502   3.299
30366WAT      O91339   9.264   0.383   3.035
30366WAT     H191340   9.205   0.460   3.008
30366WAT     H291341   9.214   0.322   3.096
30367WAT      O91342   5.346   9.569   6.219
30367WAT     H191343   5.346   9.534   6.313
30367WAT     H291344   5.306   9.660   6.217
30368WAT      O91345   6.333   5.767   4.072
30368WAT     H191346   6.251   5.724   4.035
30368WAT     H291347   6.398   5.696   4.100
30369WAT      O91348   8.062   5.684   6.995
30369WAT     H191349   7.970   5.688   6.957
30369WAT     H291350   8.124   5.738   6.937
30370WAT      O91351   8.684   9.635   5.812
30370WAT     H191352   8.745   9.670   5.883
30370WAT     H291353   8.615   9.576   5.854
30371WAT      O91354   5.015   7.630   8.286
30371WAT     H191355   4.919   7.606   8.282
30371WAT     H291356   5.031   7.714   8.234
30372WAT      O91357   7.180   8.982   3.401
30372WAT     H191358   7.124   8.994   3.319
30372WAT     H291359   7.210   8.886   3.407
30373WAT      O91360   3.626   3.972   2.903
30373WAT     H191361   3.572   3.912   2.962
30373WAT     H291362   3.723   3.960   2.924
30374WAT      O91363   7.073   0.852   5.437
30374WAT     H191364   7.100   0.763   5.474
30374WAT     H291365   6.978   0.848   5.408
30375WAT      O91366   6.903   4.147   4.047
30375WAT     H191367   6.883   4.245   4.042
30375WAT     H291368   6.856   4.100   3.971
30376WAT      O91369   9.105   0.969   3.597
30376WAT     H191370   9.192   0.920   3.600
30376WAT     H291371   9.046   0.937   3.671
30377WAT      O91372   1.486   4.546   6.838
30377WAT     H191373   1.488   4.557   6.739
30377WAT     H291374   1.410   4.599   6.876
30378WAT      O91375   8.751   9.722   8.606
30378WAT     H191376   8.720   9.748   8.697
30378WAT     H291377   8.671   9.709   8.547
30379WAT      O91378   2.681   9.496   9.650
30379WAT     H191379   2.626   9.436   9.592
30379WAT     H291380   2.772   9.456   9.663
30380WAT      O91381   3.849   4.213   4.336
30380WAT     H191382   3.840   4.311   4.351
30380WAT     H291383   3.772   4.166   4.380
30381WAT      O91384   5.016   2.064   8.591
30381WAT     H191385   4.994   2.138   8.655
30381WAT     H291386   5.037   2.102   8.502
30382WAT      O91387   6.967   4.375   1.022
30382WAT     H191388   6.939   4.354   1.116
30382WAT     H291389   6.993   4.472   1.017
30383WAT      O91390   3.443   6.096   2.651
30383WAT     H191391   3.400   6.006   2.645
30383WAT     H291392   3.511   6.105   2.578
30384WAT      O91393   3.091   5.190   4.902
30384WAT     H191394   3.081   5.214   4.998
30384WAT     H291395   3.045   5.103   4.884
30385WAT      O91396   8.463   8.081   8.696
30385WAT     H191397   8.427   8.009   8.755
30385WAT     H291398   8.562   8.070   8.686
30386WAT      O91399   9.661   5.441   8.165
30386WAT     H191400   9.676   5.350   8.202
30386WAT     H291401   9.749   5.490   8.159
30387WAT      O91402   2.930   2.221   4.147
30387WAT     H191403   2.936   2.227   4.247
30387WAT     H291404   2.853   2.163   4.122
30388WAT      O91405   9.854   9.474   1.040
30388WAT     H191406   9.775   9.529   1.067
30388WAT     H291407   9.879   9.414   1.116
30389WAT      O91408   4.221   1.543   2.492
30389WAT     H191409   4.218   1.462   2.434
30389WAT     H291410   4.154   1.533   2.566
30390WAT      O91411   4.605   9.462   6.414
30390WAT     H191412   4.697   9.483   6.381
30390WAT     H291413   4.549   9.545   6.413
30391WAT      O91414   3.266   5.534   5.638
30391WAT     H191415   3.250   5.631   5.658
30391WAT     H291416   3.234   5.479   5.715
30392WAT      O91417   6.318   3.307   4.816
30392WAT     H191418   6.219   3.312   4.830
30392WAT     H291419   6.337   3.260   4.730
30393WAT      O91420   1.206   6.935   9.758
30393WAT     H191421   1.178   6.877   9.681
30393WAT     H291422   1.213   6.880   9.841
30394WAT      O91423   2.240   3.923   2.790
30394WAT     H191424   2.199   3.859   2.855
30394WAT     H291425   2.221   4.016   2.819
30395WAT      O91426   1.895   9.511   3.248
30395WAT     H191427   1.866   9.517   3.344
30395WAT     H291428   1.962   9.438   3.238
30396WAT      O91429   8.964   2.509   6.124
30396WAT     H191430   9.014   2.458   6.194
30396WAT     H291431   8.868   2.480   6.123
30397WAT      O91432   9.442   2.413   0.192
30397WAT     H191433   9.415   2.392   0.287
30397WAT     H291434   9.362   2.445   0.142
30398WAT      O91435   3.420   2.878   6.275
30398WAT     H191436   3.505   2.867   6.223
30398WAT     H291437   3.407   2.974   6.298
30399WAT      O91438   3.603   8.139   5.199
30399WAT     H191439   3.597   8.201   5.278
30399WAT     H291440   3.584   8.046   5.229
30400WAT      O91441   3.342   7.504   1.454
30400WAT     H191442   3.430   7.519   1.408
30400WAT     H291443   3.350   7.427   1.517
30401WAT      O91444   3.605   6.283   0.091
30401WAT     H191445   3.512   6.254   0.069
30401WAT     H291446   3.601   6.352   0.164
30402WAT      O91447   1.868   0.288   5.914
30402WAT     H191448   1.891   0.257   6.006
30402WAT     H291449   1.824   0.377   5.919
30403WAT      O91450   6.717   6.172   0.636
30403WAT     H191451   6.696   6.151   0.731
30403WAT     H291452   6.637   6.215   0.593
30404WAT      O91453   7.868   6.655   0.801
30404WAT     H191454   7.789   6.619   0.751
30404WAT     H291455   7.864   6.755   0.802
30405WAT      O91456   1.299   7.177   2.734
30405WAT     H191457   1.317   7.090   2.780
30405WAT     H291458   1.382   7.234   2.738
30406WAT      O91459   6.096   6.756   9.654
30406WAT     H191460   6.049   6.784   9.571
30406WAT     H291461   6.051   6.796   9.733
30407WAT      O91462   2.209   4.165   8.727
30407WAT     H191463   2.156   4.145   8.645
30407WAT     H291464   2.178   4.251   8.767
30408WAT      O91465   2.683   7.956   9.592
30408WAT     H191466   2.660   8.012   9.512
30408WAT     H291467   2.603   7.903   9.620
30409WAT      O91468   9.657   2.959   7.722
30409WAT     H191469   9.642   3.013   7.804
30409WAT     H291470   9.748   2.979   7.685
30410WAT      O91471   7.104   0.378   2.398
30410WAT     H191472   7.185   0.333   2.359
30410WAT     H291473   7.124   0.474   2.413
30411WAT      O91474   8.575   9.606   1.768
30411WAT     H191475   8.598   9.641   1.677
30411WAT     H291476   8.494   9.653   1.802
30412WAT      O91477   8.696   9.646   0.202
30412WAT     H191478   8.601   9.637   0.173
30412WAT     H291479   8.755   9.640   0.121
30413WAT      O91480   4.144   1.105   3.312
30413WAT     H191481   4.163   1.164   3.391
30413WAT     H291482   4.120   1.162   3.234
30414WAT      O91483   3.705   4.767   4.651
30414WAT     H191484   3.642   4.690   4.637
30414WAT     H291485   3.656   4.842   4.696
30415WAT      O91486   7.313   6.673   3.148
30415WAT     H191487   7.296   6.578   3.174
30415WAT     H291488   7.411   6.692   3.149
30416WAT      O91489   6.264   4.893   3.413
30416WAT     H191490   6.171   4.864   3.394
30416WAT     H291491   6.306   4.830   3.478
30417WAT      O91492   2.256   4.848   2.282
30417WAT     H191493   2.236   4.935   2.328
30417WAT     H291494   2.220   4.773   2.337
30418WAT      O91495   4.484   4.775   8.240
30418WAT     H191496   4.548   4.847   8.211
30418WAT     H291497   4.526   4.686   8.225
30419WAT      O91498   4.766   7.501   8.239
30419WAT     H191499   4.769   7.504   8.139
30419WAT     H291500   4.675   7.525   8.270
30420WAT      O91501   9.304   7.487   4.313
30420WAT     H191502   9.296   7.537   4.399
30420WAT     H291503   9.362   7.407   4.325
30421WAT      O91504   8.419   6.533   0.755
30421WAT     H191505   8.455   6.542   0.848
30421WAT     H291506   8.488   6.565   0.690
30422WAT      O91507   9.349   2.747   4.988
30422WAT     H191508   9.286   2.814   5.026
30422WAT     H291509   9.413   2.717   5.059
30423WAT      O91510   7.309   5.115   8.406
30423WAT     H191511   7.323   5.214   8.410
30423WAT     H291512   7.371   5.075   8.338
30424WAT      O91513   8.367   5.353   2.129
30424WAT     H191514   8.438   5.330   2.062
30424WAT     H291515   8.385   5.444   2.167
30425WAT      O91516   5.239   2.831   8.418
30425WAT     H191517   5.274   2.886   8.494
30425WAT     H291518   5.256   2.877   8.332
30426WAT      O91519   5.426   2.819   4.600
30426WAT     H191520   5.354   2.884   4.576
30426WAT     H291521   5.450   2.831   4.696
30427WAT      O91522   3.956   8.558   4.674
30427WAT     H191523   3.914   8.647   4.694
30427WAT     H291524   3.885   8.489   4.662
30428WAT      O91525   3.511   0.774   7.088
30428WAT     H191526   3.484   0.680   7.107
30428WAT     H291527   3.602   0.791   7.126
30429WAT      O91528   5.818   2.755   5.077
30429WAT     H191529   5.856   2.838   5.117
30429WAT     H291530   5.883   2.679   5.087
30430WAT      O91531   3.297   8.181   7.932
30430WAT     H191532   3.354   8.130   7.867
30430WAT     H291533   3.353   8.250   7.978
30431WAT      O91534   8.148   7.369   3.549
30431WAT     H191535   8.244   7.348   3.568
30431WAT     H291536   8.136   7.468   3.543
30432WAT      O91537   5.012   6.954   8.903
30432WAT     H191538   5.034   6.860   8.878
30432WAT     H291539   4.956   6.955   8.986
30433WAT      O91540   1.012   9.404   7.084
30433WAT     H191541   1.098   9.452   7.070
30433WAT     H291542   0.935   9.463   7.061
30434WAT      O91543   5.303   1.524   5.039
30434WAT     H191544   5.312   1.431   5.003
30434WAT     H291545   5.282   1.520   5.137
30435WAT      O91546   9.590   6.689   3.781
30435WAT     H191547   9.559   6.594   3.780
30435WAT     H291548   9.646   6.705   3.861
30436WAT      O91549   3.788   9.636   2.870
30436WAT     H191550   3.878   9.680   2.876
30436WAT     H291551   3.718   9.701   2.899
30437WAT      O91552   6.733   0.484   1.170
30437WAT     H191553   6.716   0.439   1.083
30437WAT     H291554   6.677   0.441   1.241
30438WAT      O91555   1.271   7.762   2.434
30438WAT     H191556   1.281   7.760   2.534
30438WAT     H291557   1.362   7.761   2.392
30439WAT      O91558   0.353   8.051   2.124
30439WAT     H191559   0.297   8.118   2.173
30439WAT     H291560   0.312   7.961   2.134
30440WAT      O91561   5.152   2.157   5.528
30440WAT     H191562   5.178   2.137   5.433
30440WAT     H291563   5.160   2.074   5.583
30441WAT      O91564   6.161   7.503   8.024
30441WAT     H191565   6.248   7.456   8.010
30441WAT     H291566   6.170   7.569   8.099
30442WAT      O91567   8.525   3.716   6.382
30442WAT     H191568   8.617   3.683   6.401
30442WAT     H291569   8.513   3.730   6.284
30443WAT      O91570   3.892   0.354   2.527
30443WAT     H191571   3.949   0.278   2.496
30443WAT     H291572   3.808   0.357   2.474
30444WAT      O91573   0.139   6.322   1.748
30444WAT     H191574   0.185   6.303   1.661
30444WAT     H291575   0.048   6.281   1.747
30445WAT      O91576   1.559   6.017   0.945
30445WAT     H191577   1.613   5.939   0.977
30445WAT     H291578   1.619   6.095   0.928
30446WAT      O91579   2.296   3.348   2.642
30446WAT     H191580   2.367   3.347   2.571
30446WAT     H291581   2.211   3.313   2.604
30447WAT      O91582   2.771   8.903   4.661
30447WAT     H191583   2.754   8.907   4.563
30447WAT     H291584   2.777   8.808   4.690
30448WAT      O91585   7.585   6.907   8.186
30448WAT     H191586   7.518   6.964   8.140
30448WAT     H291587   7.641   6.963   8.247
30449WAT      O91588   7.939   5.251   9.665
30449WAT     H191589   7.913   5.154   9.671
30449WAT     H291590   7.886   5.304   9.731
30450WAT      O91591   6.302   7.767   8.448
30450WAT     H191592   6.388   7.756   8.399
30450WAT     H291593   6.294   7.861   8.481
30451WAT      O91594   8.033   4.537   9.657
30451WAT     H191595   8.099   4.464   9.674
30451WAT     H291596   7.941   4.500   9.662
30452WAT      O91597   3.878   5.471   1.979
30452WAT     H191598   3.920   5.553   1.939
30452WAT     H291599   3.830   5.421   1.907
30453WAT      O91600   0.588   2.197   3.507
30453WAT     H191601   0.623   2.252   3.583
30453WAT     H291602   0.662   2.140   3.471
30454WAT      O91603   3.654   4.432   2.404
30454WAT     H191604   3.617   4.511   2.452
30454WAT     H291605   3.725   4.461   2.340
30455WAT      O91606   2.076   0.499   6.081
30455WAT     H191607   2.086   0.412   6.130
30455WAT     H291608   2.166   0.536   6.059
30456WAT      O91609   1.710   8.346   6.859
30456WAT     H191610   1.708   8.440   6.825
30456WAT     H291611   1.742   8.285   6.786
30457WAT      O91612   5.835   5.845   5.867
30457WAT     H191613   5.781   5.917   5.823
30457WAT     H291614   5.783   5.804   5.942
30458WAT      O91615   2.256   9.478   1.584
30458WAT     H191616   2.316   9.400   1.572
30458WAT     H291617   2.234   9.518   1.496
30459WAT      O91618   4.559   8.229   9.401
30459WAT     H191619   4.515   8.151   9.444
30459WAT     H291620   4.527   8.314   9.443
30460WAT      O91621   3.979   4.581   3.926
30460WAT     H191622   4.030   4.595   4.011
30460WAT     H291623   3.967   4.483   3.910
30461WAT      O91624   2.931   8.554   5.565
30461WAT     H191625   2.971   8.477   5.514
30461WAT     H291626   2.833   8.560   5.545
30462WAT      O91627   8.427   0.084   5.803
30462WAT     H191628   8.355   0.133   5.754
30462WAT     H291629   8.513   0.135   5.795
30463WAT      O91630   1.212   8.591   8.786
30463WAT     H191631   1.228   8.566   8.882
30463WAT     H291632   1.291   8.563   8.731
30464WAT      O91633   5.651   6.698   8.665
30464WAT     H191634   5.727   6.745   8.620
30464WAT     H291635   5.580   6.678   8.598
30465WAT      O91636   8.519   9.558   9.054
30465WAT     H191637   8.422   9.576   9.042
30465WAT     H291638   8.544   9.569   9.150
30466WAT      O91639   5.962   2.401   8.295
30466WAT     H191640   6.040   2.366   8.244
30466WAT     H291641   5.976   2.499   8.313
30467WAT      O91642   9.589   6.321   0.251
30467WAT     H191643   9.517   6.275   0.201
30467WAT     H291644   9.646   6.253   0.298
30468WAT      O91645   3.789   1.209   0.742
30468WAT     H191646   3.877   1.243   0.774
30468WAT     H291647   3.804   1.132   0.679
30469WAT      O91648   2.879   4.075   8.094
30469WAT     H191649   2.802   4.061   8.155
30469WAT     H291650   2.943   4.140   8.134
30470WAT      O91651   2.951   2.303   0.176
30470WAT     H191652   3.004   2.232   0.130
30470WAT     H291653   2.953   2.287   0.275
30471WAT      O91654   3.299   8.345   6.466
30471WAT     H191655   3.299   8.389   6.376
30471WAT     H291656   3.387   8.300   6.482
30472WAT      O91657   3.497   4.288   1.399
30472WAT     H191658   3.465   4.382   1.400
30472WAT     H291659   3.588   4.283   1.442
30473WAT      O91660   2.326   7.882   9.072
30473WAT     H191661   2.229   7.861   9.060
30473WAT     H291662   2.337   7.945   9.149
30474WAT      O91663   8.319   9.416   7.126
30474WAT     H191664   8.358   9.366   7.048
30474WAT     H291665   8.385   9.416   7.201
30475WAT      O91666   1.723   9.710   7.091
30475WAT     H191667   1.752   9.762   7.172
30475WAT     H291668   1.696   9.773   7.019
30476WAT      O91669   8.765   0.122   6.935
30476WAT     H191670   8.833   0.056   6.967
30476WAT     H291671   8.808   0.211   6.923
30477WAT      O91672   5.745   7.739   7.069
30477WAT     H191673   5.698   7.656   7.039
30477WAT     H291674   5.706   7.769   7.156
30478WAT      O91675   0.028   9.689   2.555
30478WAT     H191676  -0.023   9.745   2.489
30478WAT     H291677  -0.003   9.595   2.550
30479WAT      O91678   8.449   7.966   7.267
30479WAT     H191679   8.497   8.011   7.192
30479WAT     H291680   8.466   8.015   7.352
30480WAT      O91681   1.858   9.480   2.990
30480WAT     H191682   1.864   9.515   3.083
30480WAT     H291683   1.818   9.550   2.931
30481WAT      O91684   6.265   2.553   9.388
30481WAT     H191685   6.275   2.560   9.487
30481WAT     H291686   6.224   2.638   9.353
30482WAT      O91687   8.775   1.597   1.607
30482WAT     H191688   8.757   1.668   1.538
30482WAT     H291689   8.754   1.507   1.568
30483WAT      O91690   5.076   8.894   5.899
30483WAT     H191691   5.170   8.885   5.932
30483WAT     H291692   5.065   8.841   5.815
30484WAT      O91693   9.289   0.502   4.651
30484WAT     H191694   9.368   0.444   4.672
30484WAT     H291695   9.205   0.457   4.683
30485WAT      O91696   5.108   0.882   3.209
30485WAT     H191697   5.130   0.790   3.242
30485WAT     H291698   5.049   0.875   3.128
30486WAT      O91699   2.317   9.183   6.598
30486WAT     H191700   2.308   9.172   6.499
30486WAT     H291701   2.389   9.122   6.631
30487WAT      O91702   8.758   8.342   5.103
30487WAT     H191703   8.825   8.388   5.044
30487WAT     H291704   8.806   8.294   5.176
30488WAT      O91705   0.522   2.816   6.821
30488WAT     H191706   0.502   2.767   6.906
30488WAT     H291707   0.444   2.872   6.795
30489WAT      O91708   1.458   1.183   7.664
30489WAT     H191709   1.508   1.269   7.652
30489WAT     H291710   1.369   1.202   7.707
30490WAT      O91711   9.631   5.250   2.097
30490WAT     H191712   9.684   5.333   2.081
30490WAT     H291713   9.687   5.183   2.146
30491WAT      O91714   6.012   9.506   1.964
30491WAT     H191715   5.965   9.419   1.951
30491WAT     H291716   6.016   9.528   2.061
30492WAT      O91717   6.856   5.024   1.931
30492WAT     H191718   6.862   5.116   1.968
30492WAT     H291719   6.759   5.000   1.917
30493WAT      O91720   3.891   1.553   8.979
30493WAT     H191721   3.957   1.613   9.024
30493WAT     H291722   3.812   1.538   9.040
30494WAT      O91723   4.591   4.809   1.061
30494WAT     H191724   4.542   4.819   1.148
30494WAT     H291725   4.543   4.860   0.990
30495WAT      O91726   9.075   3.565   0.751
30495WAT     H191727   9.152   3.627   0.766
30495WAT     H291728   9.108   3.478   0.713
30496WAT      O91729   6.237   1.489   5.200
30496WAT     H191730   6.182   1.567   5.171
30496WAT     H291731   6.334   1.508   5.181
30497WAT      O91732   8.833   4.642   8.146
30497WAT     H191733   8.920   4.664   8.190
30497WAT     H291734   8.805   4.550   8.171
30498WAT      O91735   2.668   8.047   2.260
30498WAT     H191736   2.637   8.086   2.174
30498WAT     H291737   2.592   8.000   2.305
30499WAT      O91738   6.395   2.278   0.565
30499WAT     H191739   6.448   2.193   0.572
30499WAT     H291740   6.297   2.256   0.559
30500WAT      O91741   9.480   9.132   2.206
30500WAT     H191742   9.527   9.048   2.230
30500WAT     H291743   9.398   9.141   2.263
30501WAT      O91744   7.588   5.177   7.963
30501WAT     H191745   7.607   5.240   8.039
30501WAT     H291746   7.644   5.095   7.973
30502WAT      O91747   5.143   2.673   6.731
30502WAT     H191748   5.206   2.636   6.662
30502WAT     H291749   5.105   2.597   6.784
30503WAT      O91750   4.699   3.301   2.993
30503WAT     H191751   4.782   3.307   3.049
30503WAT     H291752   4.692   3.383   2.935
30504WAT      O91753   3.387   3.147   6.320
30504WAT     H191754   3.341   3.199   6.393
30504WAT     H291755   3.421   3.210   6.251
30505WAT      O91756   9.055   8.089   1.790
30505WAT     H191757   9.112   8.074   1.709
30505WAT     H291758   9.112   8.089   1.872
30506WAT      O91759   6.399   0.881   9.370
30506WAT     H191760   6.302   0.894   9.390
30506WAT     H291761   6.435   0.806   9.426
30507WAT      O91762   1.693   4.896   6.626
30507WAT     H191763   1.699   4.816   6.566
30507WAT     H291764   1.749   4.970   6.588
30508WAT      O91765   3.064   7.580   9.552
30508WAT     H191766   3.048   7.523   9.472
30508WAT     H291767   3.150   7.554   9.596
30509WAT      O91768   4.187   6.879   7.908
30509WAT     H191769   4.189   6.785   7.941
30509WAT     H291770   4.141   6.882   7.820
30510WAT      O91771   9.331   9.212   5.639
30510WAT     H191772   9.346   9.308   5.615
30510WAT     H291773   9.310   9.160   5.556
30511WAT      O91774   0.573   2.402   4.519
30511WAT     H191775   0.539   2.485   4.564
30511WAT     H291776   0.669   2.389   4.544
30512WAT      O91777   1.140   1.374   2.789
30512WAT     H191778   1.070   1.433   2.830
30512WAT     H291779   1.110   1.279   2.793
30513WAT      O91780   7.487   8.114   7.691
30513WAT     H191781   7.421   8.069   7.631
30513WAT     H291782   7.575   8.066   7.687
30514WAT      O91783   3.959   3.506   6.395
30514WAT     H191784   3.938   3.601   6.418
30514WAT     H291785   4.011   3.503   6.310
30515WAT      O91786   9.787   3.954   9.141
30515WAT     H191787   9.733   3.975   9.059
30515WAT     H291788   9.859   4.023   9.152
30516WAT      O91789   6.769   1.186   3.639
30516WAT     H191790   6.738   1.183   3.543
30516WAT     H291791   6.727   1.265   3.684
30517WAT      O91792   9.757   8.744   0.020
30517WAT     H191793   9.681   8.742  -0.044
30517WAT     H291794   9.751   8.826   0.078
30518WAT      O91795   2.179   8.122   2.639
30518WAT     H191796   2.268   8.166   2.650
30518WAT     H291797   2.190   8.036   2.589
30519WAT      O91798   0.789   8.490   1.160
30519WAT     H191799   0.748   8.438   1.235
30519WAT     H291800   0.805   8.429   1.083
30520WAT      O91801   6.254   7.187   7.375
30520WAT     H191802   6.215   7.252   7.441
30520WAT     H291803   6.247   7.094   7.412
30521WAT      O91804   2.727   8.463   1.732
30521WAT     H191805   2.705   8.370   1.761
30521WAT     H291806   2.672   8.488   1.652
30522WAT      O91807   7.016   7.751   3.172
30522WAT     H191808   7.033   7.736   3.269
30522WAT     H291809   7.050   7.673   3.120
30523WAT      O91810   7.506   3.300   8.760
30523WAT     H191811   7.583   3.323   8.819
30523WAT     H291812   7.446   3.379   8.750
30524WAT      O91813   2.844   9.223   2.894
30524WAT     H191814   2.836   9.323   2.894
30524WAT     H291815   2.786   9.185   2.822
30525WAT      O91816   8.803   3.695   9.805
30525WAT     H191817   8.834   3.785   9.775
30525WAT     H291818   8.705   3.687   9.787
30526WAT      O91819   0.419   2.423   5.955
30526WAT     H191820   0.452   2.336   5.920
30526WAT     H291821   0.329   2.411   5.996
30527WAT      O91822   7.311   2.667   1.991
30527WAT     H191823   7.332   2.583   1.940
30527WAT     H291824   7.215   2.690   1.978
30528WAT      O91825   1.034   5.793   1.709
30528WAT     H191826   0.945   5.756   1.682
30528WAT     H291827   1.055   5.764   1.802
30529WAT      O91828   7.829   0.830   7.987
30529WAT     H191829   7.742   0.803   7.948
30529WAT     H291830   7.899   0.763   7.963
30530WAT      O91831   2.286   7.318   8.553
30530WAT     H191832   2.328   7.230   8.574
30530WAT     H291833   2.347   7.369   8.492
30531WAT      O91834   5.681   2.305   7.830
30531WAT     H191835   5.723   2.334   7.916
30531WAT     H291836   5.595   2.354   7.817
30532WAT      O91837   8.904   1.405   9.146
30532WAT     H191838   8.928   1.313   9.118
30532WAT     H291839   8.948   1.426   9.234
30533WAT      O91840   6.672   7.549   8.979
30533WAT     H191841   6.608   7.594   8.916
30533WAT     H291842   6.699   7.461   8.941
30534WAT      O91843   6.483   7.942   4.422
30534WAT     H191844   6.554   7.923   4.354
30534WAT     H291845   6.393   7.923   4.383
30535WAT      O91846   7.641   0.548   2.606
30535WAT     H191847   7.701   0.520   2.680
30535WAT     H291848   7.694   0.595   2.535
30536WAT      O91849   9.160   6.068   5.642
30536WAT     H191850   9.106   5.990   5.610
30536WAT     H291851   9.256   6.042   5.647
30537WAT      O91852   4.269   8.777   8.916
30537WAT     H191853   4.275   8.859   8.859
30537WAT     H291854   4.174   8.761   8.941
30538WAT      O91855   8.735   2.949   9.789
30538WAT     H191856   8.821   2.920   9.832
30538WAT     H291857   8.710   3.040   9.822
30539WAT      O91858   6.842   8.942   5.018
30539WAT     H191859   6.941   8.957   5.010
30539WAT     H291860   6.797   8.970   4.933
30540WAT      O91861   2.391   4.702   1.145
30540WAT     H191862   2.327   4.653   1.085
30540WAT     H291863   2.361   4.695   1.240
30541WAT      O91864   8.285   6.295   2.589
30541WAT     H191865   8.309   6.362   2.519
30541WAT     H291866   8.348   6.303   2.666
30542WAT      O91867   2.139   2.458   8.369
30542WAT     H191868   2.109   2.553   8.377
30542WAT     H291869   2.062   2.400   8.341
30543WAT      O91870   1.672   9.312   7.625
30543WAT     H191871   1.664   9.318   7.526
30543WAT     H291872   1.682   9.216   7.651
30544WAT      O91873   8.995   4.600   2.917
30544WAT     H191874   8.903   4.563   2.931
30544WAT     H291875   9.062   4.538   2.957
30545WAT      O91876   9.088   5.733   4.612
30545WAT     H191877   9.019   5.792   4.652
30545WAT     H291878   9.145   5.694   4.685
30546WAT      O91879   8.268   1.736   7.230
30546WAT     H191880   8.223   1.702   7.313
30546WAT     H291881   8.366   1.749   7.248
30547WAT      O91882   2.579   5.244   9.028
30547WAT     H191883   2.619   5.226   9.118
30547WAT     H291884   2.649   5.286   8.970
30548WAT      O91885   7.766   9.826   4.521
30548WAT     H191886   7.673   9.861   4.525
30548WAT     H291887   7.831   9.902   4.518
30549WAT      O91888   3.271   7.406   0.164
30549WAT     H191889   3.178   7.369   0.169
30549WAT     H291890   3.269   7.494   0.117
30550WAT      O91891   5.177   2.026   0.748
30550WAT     H191892   5.220   1.976   0.823
30550WAT     H291893   5.127   2.104   0.786
30551WAT      O91894   4.938   7.121   5.181
30551WAT     H191895   4.935   7.058   5.103
30551WAT     H291896   4.878   7.199   5.162
30552WAT      O91897   9.221   7.530   8.101
30552WAT     H191898   9.319   7.543   8.116
30552WAT     H291899   9.203   7.434   8.083
30553WAT      O91900   1.736   9.345   8.474
30553WAT     H191901   1.790   9.262   8.460
30553WAT     H291902   1.641   9.320   8.490
30554WAT      O91903   2.897   7.054   8.046
30554WAT     H191904   2.817   7.108   8.021
30554WAT     H291905   2.979   7.098   8.009
30555WAT      O91906   3.302   0.658   7.456
30555WAT     H191907   3.263   0.566   7.455
30555WAT     H291908   3.306   0.691   7.550
30556WAT      O91909   3.431   6.388   7.541
30556WAT     H191910   3.483   6.447   7.603
30556WAT     H291911   3.439   6.293   7.571
30557WAT      O91912   5.649   3.968   0.014
30557WAT     H191913   5.582   4.010   0.076
30557WAT     H291914   5.611   3.966  -0.079
30558WAT      O91915   2.874   5.709   8.393
30558WAT     H191916   2.793   5.654   8.410
30558WAT     H291917   2.899   5.759   8.476
30559WAT      O91918   0.218   1.718   5.280
30559WAT     H191919   0.201   1.695   5.184
30559WAT     H291920   0.239   1.816   5.287
30560WAT      O91921   7.093   3.409   4.714
30560WAT     H191922   6.996   3.389   4.730
30560WAT     H291923   7.127   3.349   4.641
30561WAT      O91924   5.769   5.724   7.094
30561WAT     H191925   5.676   5.751   7.119
30561WAT     H291926   5.805   5.788   7.026
30562WAT      O91927   1.582   4.000   1.103
30562WAT     H191928   1.664   3.992   1.048
30562WAT     H291929   1.504   3.962   1.053
30563WAT      O91930   1.877   5.974   7.131
30563WAT     H191931   1.950   6.041   7.140
30563WAT     H291932   1.893   5.917   7.050
30564WAT      O91933   1.838   3.399   1.381
30564WAT     H191934   1.899   3.404   1.460
30564WAT     H291935   1.753   3.354   1.407
30565WAT      O91936   5.165   8.714   4.920
30565WAT     H191937   5.253   8.758   4.936
30565WAT     H291938   5.103   8.733   4.997
30566WAT      O91939   1.306   7.889   2.952
30566WAT     H191940   1.306   7.900   2.852
30566WAT     H291941   1.312   7.979   2.996
30567WAT      O91942   9.208   6.565   9.517
30567WAT     H191943   9.182   6.470   9.499
30567WAT     H291944   9.226   6.612   9.431
30568WAT      O91945   8.507   7.535   0.692
30568WAT     H191946   8.455   7.577   0.766
30568WAT     H291947   8.572   7.469   0.730
30569WAT      O91948   1.525   4.266   4.611
30569WAT     H191949   1.523   4.336   4.682
30569WAT     H291950   1.504   4.307   4.522
30570WAT      O91951   4.472   7.185   8.650
30570WAT     H191952   4.466   7.095   8.693
30570WAT     H291953   4.399   7.194   8.582
30571WAT      O91954   3.945   8.382   1.368
30571WAT     H191955   3.860   8.426   1.340
30571WAT     H291956   3.967   8.410   1.462
30572WAT      O91957   8.735   6.575   3.227
30572WAT     H191958   8.733   6.645   3.298
30572WAT     H291959   8.683   6.495   3.258
30573WAT      O91960   5.272   3.626   4.318
30573WAT     H191961   5.239   3.662   4.405
30573WAT     H291962   5.364   3.590   4.330
30574WAT      O91963   2.947   8.085   9.311
30574WAT     H191964   2.968   8.073   9.407
30574WAT     H291965   3.023   8.129   9.264
30575WAT      O91966   3.648  -0.001   8.281
30575WAT     H191967   3.589   0.067   8.325
30575WAT     H291968   3.696   0.041   8.204
30576WAT      O91969   9.448   6.543   0.075
30576WAT     H191970   9.536   6.496   0.071
30576WAT     H291971   9.432   6.593  -0.011
30577WAT      O91972   3.653   4.781   1.664
30577WAT     H191973   3.661   4.682   1.652
30577WAT     H291974   3.732   4.826   1.622
30578WAT      O91975   1.576   5.485   6.450
30578WAT     H191976   1.507   5.511   6.382
30578WAT     H291977   1.530   5.454   6.533
30579WAT      O91978   1.326   5.925   1.073
30579WAT     H191979   1.385   5.988   1.022
30579WAT     H291980   1.283   5.974   1.149
30580WAT      O91981   2.568   3.436   1.028
30580WAT     H191982   2.511   3.355   1.039
30580WAT     H291983   2.570   3.487   1.115
30581WAT      O91984   7.844   6.905   8.139
30581WAT     H191985   7.875   6.954   8.058
30581WAT     H291986   7.749   6.878   8.128
30582WAT      O91987   7.299   9.347   4.752
30582WAT     H191988   7.373   9.288   4.782
30582WAT     H291989   7.336   9.436   4.727
30583WAT      O91990   7.215   0.275   0.188
30583WAT     H191991   7.219   0.253   0.286
30583WAT     H291992   7.299   0.323   0.162
30584WAT      O91993   1.708   2.443   0.590
30584WAT     H191994   1.731   2.468   0.496
30584WAT     H291995   1.634   2.376   0.590
30585WAT      O91996   7.432   3.102   8.561
30585WAT     H191997   7.435   3.010   8.600
30585WAT     H291998   7.446   3.170   8.632
30586WAT      O91999   5.883   2.205   0.042
30586WAT     H192000   5.963   2.155   0.074
30586WAT     H292001   5.911   2.294   0.007
30587WAT      O92002   6.801   7.312   3.003
30587WAT     H192003   6.883   7.254   3.003
30587WAT     H292004   6.754   7.302   3.091
30588WAT      O92005   9.424   8.106   7.449
30588WAT     H192006   9.471   8.018   7.455
30588WAT     H292007   9.422   8.135   7.353
30589WAT      O92008   1.189   5.573   8.317
30589WAT     H192009   1.272   5.527   8.287
30589WAT     H292010   1.124   5.505   8.352
30590WAT      O92011   1.899   8.717   1.508
30590WAT     H192012   1.941   8.659   1.438
30590WAT     H292013   1.801   8.725   1.490
30591WAT      O92014   6.325   2.001   3.130
30591WAT     H192015   6.271   2.081   3.155
30591WAT     H292016   6.272   1.941   3.070
30592WAT      O92017   2.842   7.828   9.196
30592WAT     H192018   2.880   7.913   9.233
30592WAT     H292019   2.786   7.849   9.116
30593WAT      O92020   9.195   0.258   2.432
30593WAT     H192021   9.174   0.206   2.349
30593WAT     H292022   9.218   0.194   2.506
30594WAT      O92023   3.080   5.273   5.167
30594WAT     H192024   3.046   5.365   5.182
30594WAT     H292025   3.120   5.237   5.252
30595WAT      O92026   2.353   7.679   0.506
30595WAT     H192027   2.291   7.717   0.438
30595WAT     H292028   2.322   7.706   0.598
30596WAT      O92029   6.599   0.257   6.175
30596WAT     H192030   6.573   0.227   6.267
30596WAT     H292031   6.625   0.353   6.178
30597WAT      O92032   1.900   4.495   1.362
30597WAT     H192033   1.800   4.491   1.373
30597WAT     H292034   1.922   4.545   1.278
30598WAT      O92035   8.257   4.567   0.145
30598WAT     H192036   8.254   4.626   0.064
30598WAT     H292037   8.190   4.599   0.212
30599WAT      O92038   0.811   1.479   9.077
30599WAT     H192039   0.836   1.458   9.171
30599WAT     H292040   0.720   1.442   9.057
30600WAT      O92041   5.977   5.313   6.194
30600WAT     H192042   5.974   5.343   6.289
30600WAT     H292043   5.895   5.260   6.173
30601WAT      O92044   4.635   6.230   0.706
30601WAT     H192045   4.612   6.144   0.751
30601WAT     H292046   4.715   6.217   0.647
30602WAT      O92047   1.765   5.766   3.623
30602WAT     H192048   1.720   5.691   3.671
30602WAT     H292049   1.697   5.834   3.596
30603WAT      O92050   7.655   2.945   5.529
30603WAT     H192051   7.684   2.960   5.434
30603WAT     H292052   7.724   2.891   5.577
30604WAT      O92053   7.325   3.092   9.247
30604WAT     H192054   7.300   3.002   9.213
30604WAT     H292055   7.274   3.163   9.198
30605WAT      O92056   4.546   5.715   3.419
30605WAT     H192057   4.514   5.808   3.398
30605WAT     H292058   4.510   5.652   3.351
30606WAT      O92059   1.526   5.279   9.467
30606WAT     H192060   1.537   5.372   9.503
30606WAT     H292061   1.567   5.274   9.376
30607WAT      O92062   9.887   5.941   3.087
30607WAT     H192063   9.856   5.923   3.180
30607WAT     H292064   9.948   5.867   3.057
30608WAT      O92065   6.900   1.195   1.724
30608WAT     H192066   6.915   1.220   1.629
30608WAT     H292067   6.984   1.160   1.764
30609WAT      O92068   7.517   7.200   7.323
30609WAT     H192069   7.455   7.155   7.387
30609WAT     H292070   7.609   7.163   7.333
30610WAT      O92071   8.855   7.535   6.897
30610WAT     H192072   8.783   7.472   6.869
30610WAT     H292073   8.827   7.585   6.978
30611WAT      O92074   0.462   8.561   5.764
30611WAT     H192075   0.483   8.592   5.672
30611WAT     H292076   0.435   8.464   5.762
30612WAT      O92077   5.443   2.952   3.245
30612WAT     H192078   5.532   2.963   3.288
30612WAT     H292079   5.371   2.965   3.313
30613WAT      O92080   0.537   8.210   9.734
30613WAT     H192081   0.578   8.125   9.700
30613WAT     H292082   0.516   8.200   9.831
30614WAT      O92083   9.153   3.188   1.206
30614WAT     H192084   9.200   3.171   1.119
30614WAT     H292085   9.217   3.177   1.282
30615WAT      O92086   7.296   8.769   5.647
30615WAT     H192087   7.216   8.804   5.697
30615WAT     H292088   7.269   8.690   5.592
30616WAT      O92089   5.784   2.868   8.098
30616WAT     H192090   5.715   2.905   8.161
30616WAT     H292091   5.748   2.785   8.054
30617WAT      O92092   9.362   3.181   3.399
30617WAT     H192093   9.422   3.245   3.447
30617WAT     H292094   9.414   3.134   3.328
30618WAT      O92095   5.598   4.979   6.906
30618WAT     H192096   5.499   4.992   6.912
30618WAT     H292097   5.627   4.908   6.969
30619WAT      O92098   6.200   4.852   1.863
30619WAT     H192099   6.152   4.871   1.778
30619WAT     H292100   6.256   4.931   1.888
30620WAT      O92101   2.845   9.132   9.726
30620WAT     H192102   2.769   9.125   9.661
30620WAT     H292103   2.885   9.224   9.720
30621WAT      O92104   2.796   3.658   5.379
30621WAT     H192105   2.877   3.627   5.429
30621WAT     H292106   2.820   3.672   5.282
30622WAT      O92107   6.277   3.727   3.249
30622WAT     H192108   6.358   3.674   3.276
30622WAT     H292109   6.200   3.703   3.308
30623WAT      O92110   5.816   0.875   6.383
30623WAT     H192111   5.798   0.966   6.421
30623WAT     H292112   5.806   0.878   6.283
30624WAT      O92113   6.099   1.586   3.137
30624WAT     H192114   6.059   1.496   3.122
30624WAT     H292115   6.091   1.611   3.234
30625WAT      O92116   1.663   1.867   0.396
30625WAT     H192117   1.690   1.861   0.492
30625WAT     H292118   1.708   1.795   0.344
30626WAT      O92119   2.831   1.136   6.459
30626WAT     H192120   2.826   1.099   6.367
30626WAT     H292121   2.761   1.093   6.516
30627WAT      O92122   2.106   5.054   0.684
30627WAT     H192123   2.050   5.136   0.684
30627WAT     H292124   2.164   5.052   0.602
30628WAT      O92125   8.193   5.050   7.829
30628WAT     H192126   8.204   5.149   7.843
30628WAT     H292127   8.121   5.016   7.890
30629WAT      O92128   5.291   7.915   1.250
30629WAT     H192129   5.244   7.976   1.314
30629WAT     H292130   5.390   7.925   1.260
30630WAT      O92131   9.818   9.080   2.340
30630WAT     H192132   9.782   9.133   2.417
30630WAT     H292133   9.839   9.141   2.264
30631WAT      O92134   9.577   0.643   1.955
30631WAT     H192135   9.492   0.655   1.904
30631WAT     H292136   9.559   0.588   2.037
30632WAT      O92137   4.627   3.828   7.123
30632WAT     H192138   4.651   3.887   7.200
30632WAT     H292139   4.589   3.884   7.049
30633WAT      O92140   4.402   5.348   5.698
30633WAT     H192141   4.395   5.427   5.636
30633WAT     H292142   4.380   5.377   5.791
30634WAT      O92143   8.351   4.977   1.598
30634WAT     H192144   8.451   4.982   1.596
30634WAT     H292145   8.323   4.913   1.670
30635WAT      O92146   4.185   7.727   1.054
30635WAT     H192147   4.246   7.711   0.977
30635WAT     H292148   4.237   7.762   1.131
30636WAT      O92149   3.330   2.111   5.215
30636WAT     H192150   3.264   2.114   5.140
30636WAT     H292151   3.418   2.078   5.180
30637WAT      O92152   9.049   5.561   2.277
30637WAT     H192153   8.964   5.509   2.272
30637WAT     H292154   9.108   5.521   2.347
30638WAT      O92155   5.053   0.473   7.946
30638WAT     H192156   5.132   0.532   7.927
30638WAT     H292157   4.988   0.479   7.871
30639WAT      O92158   1.994   7.455   2.858
30639WAT     H192159   2.088   7.472   2.888
30639WAT     H292160   1.989   7.366   2.812
30640WAT      O92161   5.046   0.053   9.699
30640WAT     H192162   5.013  -0.026   9.752
30640WAT     H292163   5.138   0.078   9.731
30641WAT      O92164   6.422   8.600   8.251
30641WAT     H192165   6.505   8.637   8.210
30641WAT     H292166   6.367   8.675   8.289
30642WAT      O92167   5.576   8.434   3.149
30642WAT     H192168   5.493   8.384   3.172
30642WAT     H292169   5.637   8.435   3.229
30643WAT      O92170   8.047   0.503   6.223
30643WAT     H192171   7.987   0.583   6.231
30643WAT     H292172   7.992   0.422   6.205
30644WAT      O92173   8.322   9.244   7.764
30644WAT     H192174   8.257   9.209   7.831
30644WAT     H292175   8.352   9.336   7.791
30645WAT      O92176   7.772   8.098   3.389
30645WAT     H192177   7.802   8.174   3.448
30645WAT     H292178   7.688   8.124   3.342
30646WAT      O92179   1.578   6.124   4.954
30646WAT     H192180   1.587   6.196   5.022
30646WAT     H292181   1.526   6.159   4.876
30647WAT      O92182   6.561   2.736   1.414
30647WAT     H192183   6.528   2.645   1.391
30647WAT     H292184   6.516   2.767   1.498
30648WAT      O92185   6.358   7.715   3.969
30648WAT     H192186   6.384   7.806   3.937
30648WAT     H292187   6.259   7.708   3.974
30649WAT      O92188   5.467   1.635   9.117
30649WAT     H192189   5.393   1.609   9.055
30649WAT     H292190   5.474   1.568   9.191
30650WAT      O92191   8.709   8.223   7.578
30650WAT     H192192   8.659   8.209   7.664
30650WAT     H292193   8.760   8.308   7.583
30651WAT      O92194   2.512   1.373   6.293
30651WAT     H192195   2.492   1.276   6.280
30651WAT     H292196   2.586   1.384   6.359
30652WAT      O92197   3.418   2.776   5.421
30652WAT     H192198   3.375   2.801   5.507
30652WAT     H292199   3.485   2.846   5.396
30653WAT      O92200   8.381   9.012   2.053
30653WAT     H192201   8.443   8.936   2.073
30653WAT     H292202   8.324   9.030   2.133
30654WAT      O92203   3.223   2.571   4.464
30654WAT     H192204   3.172   2.653   4.441
30654WAT     H292205   3.265   2.581   4.555
30655WAT      O92206   1.334   5.750   1.455
30655WAT     H192207   1.332   5.725   1.552
30655WAT     H292208   1.404   5.696   1.408
30656WAT      O92209   7.550   2.808   4.364
30656WAT     H192210   7.529   2.831   4.269
30656WAT     H292211   7.639   2.764   4.369
30657WAT      O92212   2.634   3.975   2.553
30657WAT     H192213   2.537   4.001   2.556
30657WAT     H292214   2.673   4.001   2.464
30658WAT      O92215   7.889   5.741   1.326
30658WAT     H192216   7.828   5.749   1.405
30658WAT     H292217   7.846   5.686   1.255
30659WAT      O92218   1.494   9.427   2.781
30659WAT     H192219   1.465   9.342   2.738
30659WAT     H292220   1.451   9.436   2.870
30660WAT      O92221   8.832   1.375   4.974
30660WAT     H192222   8.777   1.293   4.955
30660WAT     H292223   8.893   1.393   4.897
30661WAT      O92224   2.085   4.465   7.567
30661WAT     H192225   2.165   4.475   7.506
30661WAT     H292226   2.101   4.390   7.631
30662WAT      O92227   0.941   7.904   8.235
30662WAT     H192228   0.911   7.999   8.238
30662WAT     H292229   0.865   7.844   8.262
30663WAT      O92230   7.819   4.109   6.749
30663WAT     H192231   7.867   4.072   6.829
30663WAT     H292232   7.828   4.045   6.673
30664WAT      O92233   9.610   0.644   9.318
30664WAT     H192234   9.568   0.571   9.372
30664WAT     H292235   9.668   0.603   9.247
30665WAT      O92236   1.553   7.584   8.682
30665WAT     H192237   1.530   7.678   8.655
30665WAT     H292238   1.653   7.575   8.688
30666WAT      O92239   6.780   6.999   1.523
30666WAT     H192240   6.735   7.088   1.519
30666WAT     H292241   6.713   6.927   1.539
30667WAT      O92242   5.967   1.651   2.067
30667WAT     H192243   5.924   1.656   1.977
30667WAT     H292244   6.058   1.693   2.063
30668WAT      O92245   7.748   9.259   6.543
30668WAT     H192246   7.729   9.170   6.582
30668WAT     H292247   7.833   9.255   6.490
30669WAT      O92248   4.376   7.567   3.332
30669WAT     H192249   4.323   7.643   3.294
30669WAT     H292250   4.442   7.604   3.399
30670WAT      O92251   0.166   7.215   0.413
30670WAT     H192252   0.106   7.295   0.416
30670WAT     H292253   0.214   7.206   0.501
30671WAT      O92254   1.383   9.648   9.464
30671WAT     H192255   1.326   9.595   9.526
30671WAT     H292256   1.435   9.586   9.405
30672WAT      O92257   3.664   3.714   8.487
30672WAT     H192258   3.578   3.748   8.525
30672WAT     H292259   3.730   3.789   8.479
30673WAT      O92260   6.160   0.465   7.735
30673WAT     H192261   6.147   0.543   7.797
30673WAT     H292262   6.199   0.497   7.649
30674WAT      O92263   4.706   7.666   1.440
30674WAT     H192264   4.669   7.603   1.372
30674WAT     H292265   4.632   7.720   1.479
30675WAT      O92266   5.386   8.191   1.180
30675WAT     H192267   5.386   8.137   1.095
30675WAT     H292268   5.293   8.225   1.198
30676WAT      O92269   9.447   9.051   6.484
30676WAT     H192270   9.461   8.965   6.435
30676WAT     H292271   9.536   9.090   6.507
30677WAT      O92272   2.316   9.377   0.200
30677WAT     H192273   2.402   9.337   0.233
30677WAT     H292274   2.253   9.387   0.277
30678WAT      O92275   5.243   9.074   7.770
30678WAT     H192276   5.281   9.017   7.697
30678WAT     H292277   5.216   9.163   7.732
30679WAT      O92278   2.598   2.865   3.112
30679WAT     H192279   2.617   2.821   3.025
30679WAT     H292280   2.566   2.797   3.178
30680WAT      O92281   6.963   6.065   6.060
30680WAT     H192282   6.920   5.977   6.075
30680WAT     H292283   6.907   6.120   5.999
30681WAT      O92284   9.125   5.332   6.069
30681WAT     H192285   9.205   5.272   6.071
30681WAT     H292286   9.085   5.337   6.161
30682WAT      O92287   1.917   0.620   2.956
30682WAT     H192288   1.830   0.593   2.997
30682WAT     H292289   1.901   0.672   2.872
30683WAT      O92290   2.935   8.470   7.385
30683WAT     H192291   2.848   8.516   7.368
30683WAT     H292292   2.951   8.400   7.316
30684WAT      O92293   6.748   4.581   4.537
30684WAT     H192294   6.687   4.576   4.458
30684WAT     H292295   6.694   4.588   4.620
30685WAT      O92296   5.872   7.564   1.000
30685WAT     H192297   5.806   7.526   1.065
30685WAT     H292298   5.838   7.549   0.907
30686WAT      O92299   7.425   7.333   6.727
30686WAT     H192300   7.384   7.400   6.665
30686WAT     H292301   7.356   7.265   6.753
30687WAT      O92302   8.092   3.964   4.692
30687WAT     H192303   8.127   3.931   4.604
30687WAT     H292304   8.158   4.026   4.734
30688WAT      O92305   0.327   6.815   0.147
30688WAT     H192306   0.416   6.782   0.178
30688WAT     H292307   0.283   6.746   0.090
30689WAT      O92308   4.935   0.532   1.085
30689WAT     H192309   4.873   0.534   1.164
30689WAT     H292310   4.886   0.498   1.005
30690WAT      O92311   2.461   8.022   9.271
30690WAT     H192312   2.535   8.035   9.205
30690WAT     H292313   2.458   7.927   9.300
30691WAT      O92314   4.618   7.947   6.350
30691WAT     H192315   4.558   8.025   6.333
30691WAT     H292316   4.683   7.937   6.274
30692WAT      O92317   5.861   6.317   2.449
30692WAT     H192318   5.766   6.340   2.470
30692WAT     H292319   5.895   6.379   2.378
30693WAT      O92320   5.168   2.700   3.194
30693WAT     H192321   5.128   2.791   3.187
30693WAT     H292322   5.096   2.631   3.182
30694WAT      O92323   3.660   1.441   0.308
30694WAT     H192324   3.744   1.399   0.272
30694WAT     H292325   3.620   1.500   0.239
30695WAT      O92326   0.596   3.272   1.957
30695WAT     H192327   0.598   3.299   1.861
30695WAT     H292328   0.667   3.322   2.007
30696WAT      O92329   9.429   0.409   9.610
30696WAT     H192330   9.346   0.368   9.647
30696WAT     H292331   9.417   0.425   9.512
30697WAT      O92332   0.812   1.769   6.668
30697WAT     H192333   0.767   1.850   6.631
30697WAT     H292334   0.866   1.794   6.748
30698WAT      O92335   1.120   3.628   7.279
30698WAT     H192336   1.100   3.726   7.272
30698WAT     H292337   1.180   3.612   7.357
30699WAT      O92338   8.338   3.220   9.718
30699WAT     H192339   8.320   3.276   9.637
30699WAT     H292340   8.327   3.276   9.800
30700WAT      O92341   9.403   7.142   5.445
30700WAT     H192342   9.478   7.079   5.423
30700WAT     H292343   9.434   7.236   5.435
30701WAT      O92344   8.957   4.055   7.480
30701WAT     H192345   8.964   4.154   7.465
30701WAT     H292346   8.949   4.037   7.578
30702WAT      O92347   2.220   1.498   7.088
30702WAT     H192348   2.175   1.493   6.999
30702WAT     H292349   2.234   1.594   7.113
30703WAT      O92350   1.372   4.696   0.164
30703WAT     H192351   1.453   4.654   0.121
30703WAT     H292352   1.372   4.794   0.143
30704WAT      O92353   6.619   2.849   6.724
30704WAT     H192354   6.550   2.921   6.725
30704WAT     H292355   6.597   2.781   6.794
30705WAT      O92356   6.320   6.471   2.080
30705WAT     H192357   6.383   6.520   2.140
30705WAT     H292358   6.273   6.536   2.021
30706WAT      O92359   9.008   1.613   4.529
30706WAT     H192360   9.026   1.590   4.433
30706WAT     H292361   9.084   1.668   4.565
30707WAT      O92362   6.856   4.206   7.079
30707WAT     H192363   6.765   4.184   7.046
30707WAT     H292364   6.924   4.150   7.030
30708WAT      O92365   0.237   2.655   6.141
30708WAT     H192366   0.311   2.676   6.077
30708WAT     H292367   0.220   2.556   6.141
30709WAT      O92368   2.063   6.450   7.712
30709WAT     H192369   2.121   6.404   7.779
30709WAT     H292370   1.968   6.451   7.744
30710WAT      O92371   9.048   2.095   6.720
30710WAT     H192372   9.070   2.051   6.808
30710WAT     H292373   8.984   2.170   6.736
30711WAT      O92374   4.866   4.828   8.731
30711WAT     H192375   4.835   4.878   8.650
30711WAT     H292376   4.965   4.814   8.726
30712WAT      O92377   3.579   7.481   6.090
30712WAT     H192378   3.551   7.424   6.167
30712WAT     H292379   3.640   7.428   6.030
30713WAT      O92380   5.265   0.358   5.419
30713WAT     H192381   5.258   0.353   5.319
30713WAT     H292382   5.175   0.344   5.460
30714WAT      O92383   3.988   8.111   1.300
30714WAT     H192384   3.947   8.096   1.210
30714WAT     H292385   3.972   8.206   1.328
30715WAT      O92386   5.216   3.013   6.530
30715WAT     H192387   5.158   2.942   6.490
30715WAT     H292388   5.191   3.102   6.491
30716WAT      O92389   7.939   6.797   9.813
30716WAT     H192390   7.921   6.833   9.904
30716WAT     H292391   8.001   6.719   9.819
30717WAT      O92392   2.306   8.883   6.340
30717WAT     H192393   2.394   8.874   6.388
30717WAT     H292394   2.248   8.804   6.362
30718WAT      O92395   8.549   8.949   5.516
30718WAT     H192396   8.523   8.954   5.612
30718WAT     H292397   8.498   9.019   5.465
30719WAT      O92398   8.380   6.829   4.012
30719WAT     H192399   8.360   6.925   4.029
30719WAT     H292400   8.369   6.777   4.097
30720WAT      O92401   6.594   9.460   7.075
30720WAT     H192402   6.601   9.492   6.980
30720WAT     H292403   6.500   9.435   7.095
30721WAT      O92404   2.009   1.274   8.745
30721WAT     H192405   1.989   1.216   8.823
30721WAT     H292406   2.107   1.291   8.739
30722WAT      O92407   2.005   5.674   4.081
30722WAT     H192408   2.089   5.621   4.093
30722WAT     H292409   2.027   5.767   4.054
30723WAT      O92410   3.053   3.120   6.858
30723WAT     H192411   3.096   3.209   6.857
30723WAT     H292412   3.049   3.085   6.952
30724WAT      O92413   5.954   8.086   0.974
30724WAT     H192414   5.924   8.125   1.060
30724WAT     H292415   5.964   7.987   0.984
30725WAT      O92416   2.523   6.209   7.442
30725WAT     H192417   2.540   6.296   7.488
30725WAT     H292418   2.609   6.159   7.430
30726WAT      O92419   1.232   5.881   9.553
30726WAT     H192420   1.157   5.890   9.488
30726WAT     H292421   1.288   5.964   9.550
30727WAT      O92422   7.109   2.739   2.576
30727WAT     H192423   7.075   2.735   2.482
30727WAT     H292424   7.195   2.791   2.577
30728WAT      O92425   6.097   4.936   2.981
30728WAT     H192426   6.111   5.024   3.027
30728WAT     H292427   6.180   4.910   2.931
30729WAT      O92428   8.812   2.243   3.992
30729WAT     H192429   8.873   2.295   4.052
30729WAT     H292430   8.840   2.256   3.897
30730WAT      O92431   7.903   9.550   0.606
30730WAT     H192432   7.967   9.483   0.568
30730WAT     H292433   7.949   9.605   0.675
30731WAT      O92434   1.975   0.214   3.611
30731WAT     H192435   1.977   0.307   3.649
30731WAT     H292436   1.887   0.197   3.568
30732WAT      O92437   7.061   5.391   3.138
30732WAT     H192438   7.122   5.322   3.178
30732WAT     H292439   7.016   5.352   3.057
30733WAT      O92440   9.306   7.728   0.738
30733WAT     H192441   9.280   7.815   0.780
30733WAT     H292442   9.401   7.733   0.706
30734WAT      O92443   9.013   7.379   1.373
30734WAT     H192444   8.920   7.406   1.350
30734WAT     H292445   9.026   7.282   1.350
30735WAT      O92446   5.640   6.788   9.386
30735WAT     H192447   5.636   6.708   9.326
30735WAT     H292448   5.593   6.767   9.471
30736WAT      O92449   9.216   3.407   0.542
30736WAT     H192450   9.137   3.456   0.504
30736WAT     H292451   9.274   3.375   0.467
30737WAT      O92452   6.818   8.981   1.630
30737WAT     H192453   6.835   8.920   1.707
30737WAT     H292454   6.888   8.967   1.560
30738WAT      O92455   6.515   2.836   4.395
30738WAT     H192456   6.479   2.789   4.475
30738WAT     H292457   6.571   2.914   4.424
30739WAT      O92458   3.679   0.628   7.954
30739WAT     H192459   3.755   0.595   7.897
30739WAT     H292460   3.672   0.572   8.037
30740WAT      O92461   0.298   4.730   4.456
30740WAT     H192462   0.256   4.808   4.502
30740WAT     H292463   0.315   4.657   4.522
30741WAT      O92464   9.411   8.683   6.605
30741WAT     H192465   9.364   8.606   6.562
30741WAT     H292466   9.349   8.761   6.610
30742WAT      O92467   7.586   2.656   8.373
30742WAT     H192468   7.656   2.727   8.363
30742WAT     H292469   7.501   2.688   8.333
30743WAT      O92470   4.631   7.140   5.602
30743WAT     H192471   4.671   7.226   5.633
30743WAT     H292472   4.635   7.136   5.502
30744WAT      O92473   1.622   5.836   4.349
30744WAT     H192474   1.655   5.925   4.317
30744WAT     H292475   1.528   5.822   4.319
30745WAT      O92476   4.260   6.786   9.476
30745WAT     H192477   4.206   6.831   9.546
30745WAT     H292478   4.210   6.708   9.440
30746WAT      O92479   2.517   2.641   1.385
30746WAT     H192480   2.615   2.634   1.367
30746WAT     H292481   2.472   2.555   1.359
30747WAT      O92482   7.757   8.673   9.151
30747WAT     H192483   7.682   8.626   9.106
30747WAT     H292484   7.799   8.612   9.219
30748WAT      O92485   9.003   9.143   9.248
30748WAT     H192486   8.970   9.211   9.183
30748WAT     H292487   9.102   9.149   9.256
30749WAT      O92488   1.285   6.677   1.209
30749WAT     H192489   1.309   6.586   1.176
30749WAT     H292490   1.186   6.690   1.200
30750WAT      O92491   2.748   2.143   3.153
30750WAT     H192492   2.826   2.205   3.146
30750WAT     H292493   2.696   2.164   3.237
30751WAT      O92494   1.500   7.199   5.526
30751WAT     H192495   1.472   7.269   5.592
30751WAT     H292496   1.597   7.212   5.504
30752WAT      O92497   9.071   2.026   9.591
30752WAT     H192498   9.086   2.100   9.525
30752WAT     H292499   9.077   1.938   9.544
30753WAT      O92500   3.783   1.408   3.976
30753WAT     H192501   3.854   1.460   4.023
30753WAT     H292502   3.693   1.446   3.999
30754WAT      O92503   1.557   6.128   3.848
30754WAT     H192504   1.517   6.088   3.930
30754WAT     H292505   1.651   6.095   3.836
30755WAT      O92506   6.321   4.159   6.752
30755WAT     H192507   6.412   4.200   6.751
30755WAT     H292508   6.259   4.215   6.807
30756WAT      O92509   4.850   7.001   4.937
30756WAT     H192510   4.802   6.913   4.944
30756WAT     H292511   4.793   7.067   4.889
30757WAT      O92512   3.987   4.458   8.209
30757WAT     H192513   3.971   4.546   8.255
30757WAT     H292514   3.911   4.396   8.228
30758WAT      O92515   4.331   3.396   8.429
30758WAT     H192516   4.386   3.429   8.506
30758WAT     H292517   4.378   3.417   8.343
30759WAT      O92518   1.020   9.725   3.240
30759WAT     H192519   1.060   9.756   3.326
30759WAT     H292520   1.079   9.657   3.198
30760WAT      O92521   7.287   3.508   5.861
30760WAT     H192522   7.216   3.534   5.795
30760WAT     H292523   7.281   3.569   5.941
30761WAT      O92524   9.359   8.949   1.370
30761WAT     H192525   9.458   8.962   1.377
30761WAT     H292526   9.338   8.897   1.287
30762WAT      O92527   0.185   7.648   9.427
30762WAT     H192528   0.247   7.705   9.481
30762WAT     H292529   0.101   7.632   9.479
30763WAT      O92530   5.365   5.887   9.396
30763WAT     H192531   5.268   5.879   9.375
30763WAT     H292532   5.376   5.928   9.487
30764WAT      O92533   2.105   1.132   5.237
30764WAT     H192534   2.199   1.155   5.262
30764WAT     H292535   2.102   1.101   5.142
30765WAT      O92536   2.941   4.138   3.746
30765WAT     H192537   2.917   4.135   3.843
30765WAT     H292538   3.039   4.154   3.736
30766WAT      O92539   9.737   9.139   4.619
30766WAT     H192540   9.729   9.238   4.606
30766WAT     H292541   9.661   9.107   4.676
30767WAT      O92542   1.640   7.423   9.830
30767WAT     H192543   1.664   7.434   9.734
30767WAT     H292544   1.654   7.328   9.857
30768WAT      O92545   0.070   7.177   2.203
30768WAT     H192546   0.054   7.274   2.181
30768WAT     H292547   0.147   7.170   2.266
30769WAT      O92548   0.953   7.116   0.749
30769WAT     H192549   0.895   7.034   0.753
30769WAT     H292550   1.045   7.091   0.720
30770WAT      O92551   1.180   5.618   5.676
30770WAT     H192552   1.159   5.528   5.716
30770WAT     H292553   1.160   5.689   5.743
30771WAT      O92554   7.488   4.728   7.469
30771WAT     H192555   7.392   4.702   7.459
30771WAT     H292556   7.498   4.826   7.450
30772WAT      O92557   2.276   3.042   0.145
30772WAT     H192558   2.301   2.952   0.109
30772WAT     H292559   2.315   3.113   0.086
30773WAT      O92560   2.069   9.115   3.824
30773WAT     H192561   2.042   9.052   3.896
30773WAT     H292562   2.007   9.193   3.824
30774WAT      O92563   1.658   5.624   1.604
30774WAT     H192564   1.677   5.723   1.601
30774WAT     H292565   1.615   5.601   1.691
30775WAT      O92566   3.102   2.506   0.752
30775WAT     H192567   3.069   2.601   0.747
30775WAT     H292568   3.192   2.500   0.710
30776WAT      O92569   3.202   6.852   5.378
30776WAT     H192570   3.301   6.852   5.364
30776WAT     H292571   3.182   6.880   5.472
30777WAT      O92572   3.033   7.375   8.151
30777WAT     H192573   3.082   7.323   8.081
30777WAT     H292574   3.044   7.329   8.240
30778WAT      O92575   8.109   0.966   1.414
30778WAT     H192576   8.205   0.945   1.398
30778WAT     H292577   8.056   0.945   1.332
30779WAT      O92578   4.009   0.891   3.195
30779WAT     H192579   3.914   0.885   3.227
30779WAT     H292580   4.062   0.947   3.258
30780WAT      O92581   2.219   3.371   1.456
30780WAT     H192582   2.255   3.296   1.400
30780WAT     H292583   2.250   3.361   1.550
30781WAT      O92584   3.254   3.792   4.718
30781WAT     H192585   3.253   3.844   4.804
30781WAT     H292586   3.316   3.714   4.727
30782WAT      O92587   0.977   6.116   6.734
30782WAT     H192588   1.031   6.151   6.658
30782WAT     H292589   0.921   6.189   6.773
30783WAT      O92590   3.459   2.714   4.372
30783WAT     H192591   3.370   2.679   4.399
30783WAT     H292592   3.450   2.767   4.287
30784WAT      O92593   6.963   1.852   9.679
30784WAT     H192594   6.950   1.941   9.724
30784WAT     H292595   6.877   1.802   9.680
30785WAT      O92596   5.504   8.626   0.552
30785WAT     H192597   5.529   8.575   0.634
30785WAT     H292598   5.404   8.628   0.543
30786WAT      O92599   6.638   1.544   4.183
30786WAT     H192600   6.682   1.454   4.188
30786WAT     H292601   6.683   1.607   4.246
30787WAT      O92602   1.923   7.032   8.236
30787WAT     H192603   1.882   7.123   8.240
30787WAT     H292604   1.890   6.984   8.155
30788WAT      O92605   1.548   4.025   0.391
30788WAT     H192606   1.624   3.961   0.379
30788WAT     H292607   1.537   4.080   0.308
30789WAT      O92608   9.541   5.420   9.320
30789WAT     H192609   9.572   5.391   9.229
30789WAT     H292610   9.595   5.372   9.389
30790WAT      O92611   2.440   4.045   7.037
30790WAT     H192612   2.534   4.012   7.043
30790WAT     H292613   2.380   3.984   7.090
30791WAT      O92614   6.427   5.391   2.386
30791WAT     H192615   6.515   5.438   2.381
30791WAT     H292616   6.442   5.297   2.416
30792WAT      O92617   4.186   5.676   0.646
30792WAT     H192618   4.247   5.739   0.695
30792WAT     H292619   4.163   5.599   0.706
30793WAT      O92620   6.988   1.073   6.982
30793WAT     H192621   6.995   1.053   6.885
30793WAT     H292622   6.894   1.056   7.013
30794WAT      O92623   8.410   2.491   9.502
30794WAT     H192624   8.345   2.482   9.578
30794WAT     H292625   8.465   2.408   9.495
30795WAT      O92626   5.005   0.422   4.938
30795WAT     H192627   5.048   0.338   4.904
30795WAT     H292628   5.073   0.477   4.986
30796WAT      O92629   3.679   7.097   4.326
30796WAT     H192630   3.594   7.118   4.277
30796WAT     H292631   3.705   7.175   4.383
30797WAT      O92632   3.570   7.188   5.448
30797WAT     H192633   3.505   7.264   5.438
30797WAT     H292634   3.593   7.178   5.545
30798WAT      O92635   1.818   2.215   3.494
30798WAT     H192636   1.901   2.263   3.521
30798WAT     H292637   1.841   2.141   3.431
30799WAT      O92638   7.965   6.783   0.442
30799WAT     H192639   8.016   6.795   0.527
30799WAT     H292640   7.997   6.701   0.395
30800WAT      O92641   8.496   5.734   9.538
30800WAT     H192642   8.423   5.736   9.606
30800WAT     H292643   8.475   5.666   9.469
30801WAT      O92644   5.013   6.034   1.114
30801WAT     H192645   4.948   6.109   1.101
30801WAT     H292646   4.976   5.969   1.180
30802WAT      O92647   6.526   0.043   0.643
30802WAT     H192648   6.612   0.094   0.644
30802WAT     H292649   6.542  -0.049   0.608
30803WAT      O92650   9.357   1.422   1.116
30803WAT     H192651   9.339   1.366   1.034
30803WAT     H292652   9.302   1.388   1.192
30804WAT      O92653   9.099   7.433   7.101
30804WAT     H192654   9.117   7.445   7.004
30804WAT     H292655   9.083   7.523   7.143
30805WAT      O92656   3.422   2.158   4.343
30805WAT     H192657   3.345   2.222   4.347
30805WAT     H292658   3.496   2.192   4.400
30806WAT      O92659   8.816   1.628   2.834
30806WAT     H192660   8.909   1.653   2.861
30806WAT     H292661   8.752   1.662   2.902
30807WAT      O92662   8.789   3.370   4.913
30807WAT     H192663   8.772   3.369   5.012
30807WAT     H292664   8.808   3.464   4.884
30808WAT      O92665   4.297   0.485   2.547
30808WAT     H192666   4.262   0.460   2.637
30808WAT     H292667   4.241   0.441   2.477
30809WAT      O92668   2.585   3.283   4.074
30809WAT     H192669   2.620   3.290   4.168
30809WAT     H292670   2.572   3.187   4.051
30810WAT      O92671   0.144   1.792   1.171
30810WAT     H192672   0.195   1.806   1.085
30810WAT     H292673   0.094   1.705   1.166
30811WAT      O92674   4.793   8.538   3.587
30811WAT     H192675   4.829   8.477   3.657
30811WAT     H292676   4.722   8.596   3.627
30812WAT      O92677   6.988   4.206   4.588
30812WAT     H192678   7.086   4.190   4.595
30812WAT     H292679   6.954   4.169   4.501
30813WAT      O92680   0.945   4.489   1.420
30813WAT     H192681   0.848   4.466   1.413
30813WAT     H292682   0.985   4.440   1.497
30814WAT      O92683   2.179   2.077   6.983
30814WAT     H192684   2.208   1.984   6.966
30814WAT     H292685   2.242   2.141   6.939
30815WAT      O92686   5.176   1.637   6.069
30815WAT     H192687   5.208   1.571   6.002
30815WAT     H292688   5.080   1.659   6.050
30816WAT      O92689   8.680   0.580   6.698
30816WAT     H192690   8.679   0.587   6.599
30816WAT     H292691   8.606   0.636   6.736
30817WAT      O92692   5.476   9.554   8.750
30817WAT     H192693   5.437   9.557   8.659
30817WAT     H292694   5.576   9.562   8.744
30818WAT      O92695   0.930   3.705   2.862
30818WAT     H192696   1.028   3.684   2.861
30818WAT     H292697   0.902   3.732   2.770
30819WAT      O92698   3.042   9.192   9.334
30819WAT     H192699   2.955   9.148   9.311
30819WAT     H292700   3.066   9.259   9.264
30820WAT      O92701   6.244   9.019   2.385
30820WAT     H192702   6.241   9.077   2.467
30820WAT     H292703   6.152   9.011   2.347
30821WAT      O92704   6.391   5.878   8.833
30821WAT     H192705   6.444   5.963   8.835
30821WAT     H292706   6.330   5.879   8.754
30822WAT      O92707   6.144   2.328   4.649
30822WAT     H192708   6.071   2.339   4.716
30822WAT     H292709   6.216   2.270   4.686
30823WAT      O92710   7.312   8.623   4.263
30823WAT     H192711   7.405   8.595   4.286
30823WAT     H292712   7.298   8.718   4.293
30824WAT      O92713   7.111   4.668   1.213
30824WAT     H192714   7.209   4.666   1.192
30824WAT     H292715   7.091   4.599   1.283
30825WAT      O92716   0.364   3.900   3.047
30825WAT     H192717   0.456   3.862   3.055
30825WAT     H292718   0.321   3.902   3.138
30826WAT      O92719   1.466   6.514   5.484
30826WAT     H192720   1.380   6.560   5.506
30826WAT     H292721   1.539   6.582   5.475
30827WAT      O92722   9.437   3.257   5.645
30827WAT     H192723   9.356   3.213   5.683
30827WAT     H292724   9.413   3.349   5.614
30828WAT      O92725   9.469   0.466   3.215
30828WAT     H192726   9.479   0.538   3.146
30828WAT     H292727   9.397   0.403   3.188
30829WAT      O92728   7.302   5.100   9.374
30829WAT     H192729   7.303   5.170   9.445
30829WAT     H292730   7.397   5.079   9.347
30830WAT      O92731   0.896   3.302   8.099
30830WAT     H192732   0.985   3.261   8.119
30830WAT     H292733   0.885   3.385   8.155
30831WAT      O92734   1.887   0.964   1.019
30831WAT     H192735   1.979   0.990   1.046
30831WAT     H292736   1.868   0.998   0.927
30832WAT      O92737   1.731   3.787   5.454
30832WAT     H192738   1.829   3.803   5.469
30832WAT     H292739   1.707   3.817   5.362
30833WAT      O92740   1.700   4.642   0.956
30833WAT     H192741   1.706   4.719   1.019
30833WAT     H292742   1.647   4.668   0.875
30834WAT      O92743   0.405   7.791   5.085
30834WAT     H192744   0.458   7.715   5.047
30834WAT     H292745   0.466   7.867   5.105
30835WAT      O92746   4.282   6.158   9.596
30835WAT     H192747   4.284   6.141   9.695
30835WAT     H292748   4.290   6.257   9.579
30836WAT      O92749   8.969   9.389   5.271
30836WAT     H192750   8.989   9.350   5.361
30836WAT     H292751   8.906   9.328   5.221
30837WAT      O92752   2.880   1.530   3.969
30837WAT     H192753   2.830   1.465   4.027
30837WAT     H292754   2.831   1.542   3.883
30838WAT      O92755   8.167   6.434   8.618
30838WAT     H192756   8.256   6.463   8.653
30838WAT     H292757   8.136   6.354   8.668
30839WAT      O92758   5.362   1.345   7.243
30839WAT     H192759   5.386   1.344   7.146
30839WAT     H292760   5.412   1.273   7.291
30840WAT      O92761   0.792   0.598   2.871
30840WAT     H192762   0.765   0.620   2.964
30840WAT     H292763   0.875   0.542   2.872
30841WAT      O92764   0.542   4.354   0.393
30841WAT     H192765   0.579   4.337   0.484
30841WAT     H292766   0.446   4.381   0.401
30842WAT      O92767   4.121   9.523   4.629
30842WAT     H192768   4.198   9.527   4.566
30842WAT     H292769   4.039   9.558   4.584
30843WAT      O92770   9.787   5.366   1.439
30843WAT     H192771   9.828   5.457   1.436
30843WAT     H292772   9.696   5.369   1.397
30844WAT      O92773   7.436   6.591   9.822
30844WAT     H192774   7.510   6.652   9.794
30844WAT     H292775   7.352   6.619   9.776
30845WAT      O92776   6.849   8.550   8.033
30845WAT     H192777   6.924   8.593   8.082
30845WAT     H292778   6.763   8.594   8.059
30846WAT      O92779   7.890   3.779   1.237
30846WAT     H192780   7.953   3.713   1.278
30846WAT     H292781   7.942   3.857   1.201
30847WAT      O92782   0.420   9.267   9.655
30847WAT     H192783   0.434   9.195   9.587
30847WAT     H292784   0.486   9.256   9.729
30848WAT      O92785   5.634   2.653   0.848
30848WAT     H192786   5.655   2.556   0.836
30848WAT     H292787   5.552   2.662   0.905
30849WAT      O92788   3.569   3.092   4.484
30849WAT     H192789   3.577   3.053   4.393
30849WAT     H292790   3.628   3.172   4.491
30850WAT      O92791   2.712   4.955   0.826
30850WAT     H192792   2.646   4.947   0.901
30850WAT     H292793   2.672   4.918   0.742
30851WAT      O92794   6.454   6.482   6.560
30851WAT     H192795   6.393   6.561   6.550
30851WAT     H292796   6.399   6.399   6.573
30852WAT      O92797   7.889   6.179   1.273
30852WAT     H192798   7.841   6.109   1.326
30852WAT     H292799   7.975   6.141   1.238
30853WAT      O92800   1.140   0.893   5.142
30853WAT     H192801   1.102   0.917   5.053
30853WAT     H292802   1.068   0.895   5.211
30854WAT      O92803   0.844   4.175   1.047
30854WAT     H192804   0.780   4.196   0.974
30854WAT     H292805   0.938   4.183   1.014
30855WAT      O92806   7.816   7.812   2.613
30855WAT     H192807   7.809   7.712   2.619
30855WAT     H292808   7.804   7.841   2.518
30856WAT      O92809   9.775   1.347   5.841
30856WAT     H192810   9.737   1.255   5.832
30856WAT     H292811   9.866   1.350   5.800
30857WAT      O92812   4.690   0.153   5.444
30857WAT     H192813   4.677   0.129   5.347
30857WAT     H292814   4.788   0.154   5.464
30858WAT      O92815   0.763   5.586   9.874
30858WAT     H192816   0.767   5.671   9.926
30858WAT     H292817   0.850   5.537   9.883
30859WAT      O92818   2.605   1.954   9.457
30859WAT     H192819   2.668   1.996   9.523
30859WAT     H292820   2.587   1.859   9.484
30860WAT      O92821   1.343   5.918   0.507
30860WAT     H192822   1.325   5.997   0.448
30860WAT     H292823   1.316   5.835   0.459
30861WAT      O92824   7.636   6.538   0.679
30861WAT     H192825   7.600   6.559   0.588
30861WAT     H292826   7.586   6.590   0.748
30862WAT      O92827   5.292   6.763   1.723
30862WAT     H192828   5.203   6.718   1.727
30862WAT     H292829   5.356   6.715   1.782
30863WAT      O92830   7.450   8.930   3.587
30863WAT     H192831   7.383   8.874   3.539
30863WAT     H292832   7.478   9.006   3.528
30864WAT      O92833   2.542   5.046   0.517
30864WAT     H192834   2.560   5.091   0.429
30864WAT     H292835   2.444   5.029   0.526
30865WAT      O92836   3.953   4.301   9.457
30865WAT     H192837   3.965   4.260   9.547
30865WAT     H292838   3.870   4.265   9.414
30866WAT      O92839   7.044   5.657   5.374
30866WAT     H192840   7.061   5.641   5.472
30866WAT     H292841   7.059   5.571   5.324
30867WAT      O92842   0.639   7.506   9.627
30867WAT     H192843   0.566   7.459   9.577
30867WAT     H292844   0.618   7.604   9.629
30868WAT      O92845   8.827   5.461   7.615
30868WAT     H192846   8.788   5.404   7.543
30868WAT     H292847   8.918   5.426   7.639
30869WAT      O92848   9.824   6.080   5.630
30869WAT     H192849   9.778   6.003   5.587
30869WAT     H292850   9.857   6.143   5.560
30870WAT      O92851   4.669   0.101   5.168
30870WAT     H192852   4.636   0.013   5.135
30870WAT     H292853   4.746   0.131   5.112
30871WAT      O92854   1.125   5.742   0.711
30871WAT     H192855   1.094   5.770   0.620
30871WAT     H292856   1.151   5.645   0.709
30872WAT      O92857   6.729   2.442   6.907
30872WAT     H192858   6.675   2.523   6.930
30872WAT     H292859   6.728   2.379   6.985
30873WAT      O92860   7.211   3.954   2.234
30873WAT     H192861   7.294   3.923   2.188
30873WAT     H292862   7.188   3.890   2.307
30874WAT      O92863   8.230   3.431   1.222
30874WAT     H192864   8.172   3.463   1.297
30874WAT     H292865   8.263   3.510   1.170
30875WAT      O92866   7.807   6.453   2.723
30875WAT     H192867   7.790   6.364   2.765
30875WAT     H292868   7.811   6.523   2.794
30876WAT      O92869   8.811   8.873   5.290
30876WAT     H192870   8.804   8.902   5.194
30876WAT     H292871   8.817   8.773   5.293
30877WAT      O92872   6.763   4.682   3.899
30877WAT     H192873   6.760   4.646   3.805
30877WAT     H292874   6.820   4.764   3.901
30878WAT      O92875   8.054   5.688   5.694
30878WAT     H192876   8.134   5.698   5.753
30878WAT     H292877   8.077   5.717   5.601
30879WAT      O92878   8.696   6.626   8.147
30879WAT     H192879   8.635   6.693   8.190
30879WAT     H292880   8.752   6.672   8.078
30880WAT      O92881   7.248   9.586   8.151
30880WAT     H192882   7.295   9.530   8.084
30880WAT     H292883   7.282   9.565   8.243
30881WAT      O92884   6.894   4.350   7.305
30881WAT     H192885   6.947   4.432   7.284
30881WAT     H292886   6.866   4.306   7.220
30882WAT      O92887   6.290   7.938   5.499
30882WAT     H192888   6.198   7.974   5.517
30882WAT     H292889   6.358   8.001   5.536
30883WAT      O92890   0.042   6.749   3.774
30883WAT     H192891   0.047   6.837   3.726
30883WAT     H292892  -0.054   6.729   3.796
30884WAT      O92893   1.556   1.490   9.807
30884WAT     H192894   1.518   1.553   9.874
30884WAT     H292895   1.498   1.489   9.725
30885WAT      O92896   5.698   7.824   2.467
30885WAT     H192897   5.626   7.766   2.505
30885WAT     H292898   5.783   7.772   2.463
30886WAT      O92899   2.348   6.270   3.056
30886WAT     H192900   2.338   6.194   3.120
30886WAT     H292901   2.259   6.314   3.043
30887WAT      O92902   4.306   8.472   7.596
30887WAT     H192903   4.388   8.528   7.607
30887WAT     H292904   4.276   8.474   7.500
30888WAT      O92905   8.996   4.060   4.828
30888WAT     H192906   9.072   4.105   4.782
30888WAT     H292907   8.985   3.968   4.790
30889WAT      O92908   4.128   1.627   5.411
30889WAT     H192909   4.177   1.712   5.394
30889WAT     H292910   4.103   1.585   5.324
30890WAT      O92911   4.193   8.136   6.546
30890WAT     H192912   4.188   8.042   6.513
30890WAT     H292913   4.110   8.186   6.520
30891WAT      O92914   0.878   4.355   2.452
30891WAT     H192915   0.954   4.416   2.431
30891WAT     H292916   0.887   4.322   2.546
30892WAT      O92917   4.011   8.439   1.116
30892WAT     H192918   4.013   8.398   1.207
30892WAT     H292919   4.092   8.410   1.064
30893WAT      O92920   4.330   8.074   2.129
30893WAT     H192921   4.341   8.165   2.089
30893WAT     H292922   4.376   8.007   2.071
30894WAT      O92923   1.660   5.532   3.727
30894WAT     H192924   1.701   5.535   3.818
30894WAT     H292925   1.701   5.458   3.674
30895WAT      O92926   1.798   8.797   7.765
30895WAT     H192927   1.880   8.851   7.747
30895WAT     H292928   1.758   8.766   7.679
30896WAT      O92929   3.179   3.126   4.216
30896WAT     H192930   3.224   3.201   4.167
30896WAT     H292931   3.222   3.116   4.306
30897WAT      O92932   6.067   1.129   6.905
30897WAT     H192933   6.043   1.036   6.931
30897WAT     H292934   6.151   1.128   6.850
30898WAT      O92935   9.548   0.440   2.147
30898WAT     H192936   9.495   0.438   2.231
30898WAT     H292937   9.593   0.352   2.133
30899WAT      O92938   7.285   9.689   4.514
30899WAT     H192939   7.343   9.657   4.589
30899WAT     H292940   7.334   9.680   4.427
30900WAT      O92941   6.399   4.168   2.993
30900WAT     H192942   6.346   4.227   3.054
30900WAT     H292943   6.382   4.072   3.015
30901WAT      O92944   2.309   2.578   5.111
30901WAT     H192945   2.368   2.657   5.093
30901WAT     H292946   2.300   2.566   5.210
30902WAT      O92947   2.646   3.709   5.822
30902WAT     H192948   2.565   3.734   5.769
30902WAT     H292949   2.632   3.734   5.918
30903WAT      O92950   0.073   3.435   6.558
30903WAT     H192951  -0.016   3.481   6.561
30903WAT     H292952   0.102   3.425   6.463
30904WAT      O92953   3.282   3.442   3.725
30904WAT     H192954   3.336   3.514   3.683
30904WAT     H292955   3.188   3.446   3.690
30905WAT      O92956   1.624   5.305   9.202
30905WAT     H192957   1.688   5.381   9.216
30905WAT     H292958   1.538   5.340   9.165
30906WAT      O92959   4.784   0.540   8.852
30906WAT     H192960   4.835   0.577   8.774
30906WAT     H292961   4.841   0.473   8.899
30907WAT      O92962   9.143   1.632   6.414
30907WAT     H192963   9.046   1.656   6.415
30907WAT     H292964   9.164   1.578   6.496
30908WAT      O92965   6.266   0.631   9.060
30908WAT     H192966   6.365   0.617   9.052
30908WAT     H292967   6.218   0.563   9.003
30909WAT      O92968   4.535   0.085   6.203
30909WAT     H192969   4.563   0.177   6.230
30909WAT     H292970   4.612   0.039   6.158
30910WAT      O92971   9.198   6.711   1.253
30910WAT     H192972   9.140   6.786   1.284
30910WAT     H292973   9.253   6.677   1.330
30911WAT      O92974   4.262   3.563   7.722
30911WAT     H192975   4.209   3.643   7.695
30911WAT     H292976   4.334   3.591   7.786
30912WAT      O92977   9.252   5.805   4.368
30912WAT     H192978   9.306   5.872   4.420
30912WAT     H292979   9.208   5.742   4.432
30913WAT      O92980   3.242   9.348   5.323
30913WAT     H192981   3.150   9.361   5.359
30913WAT     H292982   3.254   9.252   5.297
30914WAT      O92983   4.021   8.446   1.638
30914WAT     H192984   3.958   8.524   1.647
30914WAT     H292985   3.982   8.367   1.685
30915WAT      O92986   2.563   4.559   5.285
30915WAT     H192987   2.547   4.507   5.369
30915WAT     H292988   2.548   4.656   5.303
30916WAT      O92989   5.414   2.970   2.989
30916WAT     H192990   5.419   2.964   3.089
30916WAT     H292991   5.407   2.878   2.951
30917WAT      O92992   3.835   4.058   5.017
30917WAT     H192993   3.909   3.993   5.036
30917WAT     H292994   3.860   4.115   4.939
30918WAT      O92995   0.638   0.188   8.220
30918WAT     H192996   0.555   0.133   8.219
30918WAT     H292997   0.718   0.128   8.217
30919WAT      O92998   5.291   3.867   5.111
30919WAT     H192999   5.272   3.960   5.143
30919WAT     H293000   5.368   3.829   5.163
30920WAT      O93001   8.227   2.462   6.983
30920WAT     H193002   8.146   2.427   7.030
30920WAT     H293003   8.225   2.562   6.981
30921WAT      O93004   5.025   2.453   9.329
30921WAT     H193005   5.053   2.359   9.348
30921WAT     H293006   5.059   2.481   9.240
30922WAT      O93007   8.413   2.256   6.982
30922WAT     H193008   8.401   2.189   7.055
30922WAT     H293009   8.359   2.337   7.001
30923WAT      O93010   5.485   4.002   3.337
30923WAT     H193011   5.469   3.953   3.251
30923WAT     H293012   5.533   3.942   3.401
30924WAT      O93013   2.290   2.584   0.884
30924WAT     H193014   2.280   2.679   0.855
30924WAT     H293015   2.287   2.578   0.983
30925WAT      O93016   8.528   6.911   5.016
30925WAT     H193017   8.469   6.901   4.936
30925WAT     H293018   8.491   6.857   5.091
30926WAT      O93019   0.929   9.789   5.394
30926WAT     H193020   0.900   9.822   5.303
30926WAT     H293021   1.027   9.804   5.405
30927WAT      O93022   0.244   6.214   1.992
30927WAT     H193023   0.201   6.269   2.063
30927WAT     H293024   0.189   6.218   1.909
30928WAT      O93025   8.454   6.113   2.186
30928WAT     H193026   8.434   6.179   2.114
30928WAT     H293027   8.425   6.022   2.156
30929WAT      O93028   8.526   0.385   3.690
30929WAT     H193029   8.565   0.477   3.697
30929WAT     H293030   8.434   0.391   3.651
30930WAT      O93031   4.611   3.522   3.494
30930WAT     H193032   4.611   3.573   3.408
30930WAT     H293033   4.558   3.438   3.482
30931WAT      O93034   2.448   8.709   2.727
30931WAT     H193035   2.451   8.809   2.716
30931WAT     H293036   2.534   8.677   2.766
30932WAT      O93037   0.162   5.142   6.189
30932WAT     H193038   0.089   5.113   6.127
30932WAT     H293039   0.130   5.219   6.244
30933WAT      O93040   5.083   6.971   3.201
30933WAT     H193041   5.080   6.872   3.211
30933WAT     H293042   5.178   7.001   3.189
30934WAT      O93043   6.432   2.549   4.949
30934WAT     H193044   6.455   2.537   4.853
30934WAT     H293045   6.512   2.586   4.998
30935WAT      O93046   6.878   6.745   0.426
30935WAT     H193047   6.922   6.679   0.365
30935WAT     H293048   6.939   6.822   0.443
30936WAT      O93049   0.189   0.143   7.931
30936WAT     H193050   0.216   0.195   8.012
30936WAT     H293051   0.213   0.194   7.848
30937WAT      O93052   5.654   3.655   7.364
30937WAT     H193053   5.615   3.571   7.400
30937WAT     H293054   5.750   3.661   7.391
30938WAT      O93055   2.724   9.160   0.086
30938WAT     H193056   2.662   9.235   0.068
30938WAT     H293057   2.754   9.119  -0.000
30939WAT      O93058   4.258   6.914   1.142
30939WAT     H193059   4.321   6.991   1.134
30939WAT     H293060   4.221   6.892   1.052
30940WAT      O93061   7.314   8.295   0.034
30940WAT     H193062   7.366   8.362   0.085
30940WAT     H293063   7.336   8.303  -0.064
30941WAT      O93064   7.484   3.754   3.545
30941WAT     H193065   7.424   3.834   3.535
30941WAT     H293066   7.494   3.709   3.456
30942WAT      O93067   0.168   3.127   9.103
30942WAT     H193068   0.108   3.206   9.088
30942WAT     H293069   0.113   3.043   9.102
30943WAT      O93070   4.893   7.166   0.611
30943WAT     H193071   4.896   7.165   0.511
30943WAT     H293072   4.899   7.260   0.644
30944WAT      O93073   7.655   5.634   9.630
30944WAT     H193074   7.673   5.595   9.540
30944WAT     H293075   7.662   5.563   9.700
30945WAT      O93076   5.863   9.142   9.623
30945WAT     H193077   5.883   9.204   9.699
30945WAT     H293078   5.828   9.195   9.546
30946WAT      O93079   3.396   4.822   6.244
30946WAT     H193080   3.307   4.817   6.289
30946WAT     H293081   3.469   4.814   6.312
30947WAT      O93082   0.731   7.591   7.583
30947WAT     H193083   0.723   7.601   7.484
30947WAT     H293084   0.814   7.541   7.605
30948WAT      O93085   4.981   2.365   8.471
30948WAT     H193086   4.988   2.457   8.432
30948WAT     H293087   5.021   2.365   8.563
30949WAT      O93088   6.734   5.407   6.804
30949WAT     H193089   6.685   5.462   6.872
30949WAT     H293090   6.765   5.466   6.729
30950WAT      O93091   0.829   0.956   3.505
30950WAT     H193092   0.895   0.988   3.437
30950WAT     H293093   0.752   1.019   3.509
30951WAT      O93094   0.306   9.390   0.545
30951WAT     H193095   0.338   9.316   0.605
30951WAT     H293096   0.206   9.394   0.549
30952WAT      O93097   6.363   6.170   8.673
30952WAT     H193098   6.410   6.185   8.759
30952WAT     H293099   6.391   6.240   8.607
30953WAT      O93100   0.680   8.229   2.191
30953WAT     H193101   0.755   8.174   2.227
30953WAT     H293102   0.659   8.201   2.098
30954WAT      O93103   9.274   4.458   3.837
30954WAT     H193104   9.341   4.465   3.910
30954WAT     H293105   9.290   4.374   3.785
30955WAT      O93106   7.266   1.184   5.220
30955WAT     H193107   7.252   1.085   5.228
30955WAT     H293108   7.256   1.226   5.310
30956WAT      O93109   1.057   2.601   0.311
30956WAT     H193110   1.045   2.538   0.388
30956WAT     H293111   0.983   2.669   0.312
30957WAT      O93112   6.373   8.919   1.336
30957WAT     H193113   6.319   9.001   1.316
30957WAT     H293114   6.465   8.947   1.364
30958WAT      O93115   3.045   5.099   2.222
30958WAT     H193116   2.991   5.141   2.295
30958WAT     H293117   2.985   5.070   2.148
30959WAT      O93118   0.146   5.932   1.239
30959WAT     H193119   0.062   5.983   1.257
30959WAT     H293120   0.142   5.894   1.147
30960WAT      O93121   5.195   9.293   7.121
30960WAT     H193122   5.254   9.247   7.188
30960WAT     H293123   5.233   9.382   7.098
30961WAT      O93124   8.546   8.096   0.055
30961WAT     H193125   8.503   8.186   0.050
30961WAT     H293126   8.625   8.093  -0.006
30962WAT      O93127   3.592   6.772   2.968
30962WAT     H193128   3.568   6.681   2.936
30962WAT     H293129   3.638   6.823   2.895
30963WAT      O93130   7.937   3.591   6.648
30963WAT     H193131   7.870   3.580   6.574
30963WAT     H293132   7.899   3.554   6.733
30964WAT      O93133   5.215   3.322   4.314
30964WAT     H193134   5.140   3.382   4.339
30964WAT     H293135   5.286   3.375   4.267
30965WAT      O93136   8.551   6.832   1.350
30965WAT     H193137   8.508   6.846   1.261
30965WAT     H293138   8.524   6.742   1.386
30966WAT      O93139   1.396   3.354   3.855
30966WAT     H193140   1.437   3.343   3.946
30966WAT     H293141   1.373   3.263   3.818
30967WAT      O93142   6.091   8.827   5.626
30967WAT     H193143   6.189   8.807   5.620
30967WAT     H293144   6.071   8.908   5.571
30968WAT      O93145   4.857   7.274   8.403
30968WAT     H193146   4.833   7.280   8.500
30968WAT     H293147   4.811   7.346   8.353
30969WAT      O93148   5.345   2.155   1.186
30969WAT     H193149   5.338   2.196   1.095
30969WAT     H293150   5.414   2.083   1.185
30970WAT      O93151   9.189   8.090   6.507
30970WAT     H193152   9.147   7.999   6.510
30970WAT     H293153   9.141   8.151   6.570
30971WAT      O93154   2.143   2.358   7.317
30971WAT     H193155   2.200   2.438   7.300
30971WAT     H293156   2.188   2.276   7.280
30972WAT      O93157   6.721   8.800   0.015
30972WAT     H193158   6.745   8.708  -0.015
30972WAT     H293159   6.642   8.796   0.076
30973WAT      O93160   3.466   5.851   5.681
30973WAT     H193161   3.369   5.826   5.689
30973WAT     H293162   3.475   5.930   5.620
30974WAT      O93163   9.540   5.876   8.412
30974WAT     H193164   9.529   5.783   8.448
30974WAT     H293165   9.586   5.873   8.324
30975WAT      O93166   5.914   2.844   1.316
30975WAT     H193167   5.876   2.878   1.402
30975WAT     H293168   5.845   2.850   1.244
30976WAT      O93169   1.159   0.035   5.036
30976WAT     H193170   1.244   0.075   5.072
30976WAT     H293171   1.124   0.092   4.963
30977WAT      O93172   9.445   4.005   1.615
30977WAT     H193173   9.531   3.958   1.637
30977WAT     H293174   9.427   4.074   1.685
30978WAT      O93175   0.344   0.185   3.603
30978WAT     H193176   0.315   0.279   3.619
30978WAT     H293177   0.437   0.172   3.637
30979WAT      O93178   1.227   1.960   5.057
30979WAT     H193179   1.292   1.929   5.127
30979WAT     H293180   1.156   2.016   5.100
30980WAT      O93181   0.808   2.059   1.788
30980WAT     H193182   0.907   2.070   1.790
30980WAT     H293183   0.783   1.997   1.714
30981WAT      O93184   8.062   3.232   7.028
30981WAT     H193185   8.050   3.133   7.040
30981WAT     H293186   7.992   3.267   6.965
30982WAT      O93187   7.113   4.174   7.029
30982WAT     H193188   7.165   4.127   6.958
30982WAT     H293189   7.126   4.272   7.020
30983WAT      O93190   7.497   3.097   1.448
30983WAT     H193191   7.427   3.146   1.500
30983WAT     H293192   7.464   3.081   1.355
30984WAT      O93193   9.870   7.497   6.028
30984WAT     H193194   9.839   7.455   6.113
30984WAT     H293195   9.964   7.531   6.040
30985WAT      O93196   3.107   8.052   0.911
30985WAT     H193197   3.207   8.049   0.900
30985WAT     H293198   3.070   7.960   0.899
30986WAT      O93199   7.570   0.674   5.913
30986WAT     H193200   7.500   0.631   5.857
30986WAT     H293201   7.605   0.609   5.980
30987WAT      O93202   2.748   4.599   0.640
30987WAT     H193203   2.774   4.535   0.568
30987WAT     H293204   2.743   4.692   0.603
30988WAT      O93205   4.993   4.845   0.235
30988WAT     H193206   4.941   4.931   0.242
30988WAT     H293207   4.987   4.796   0.322
30989WAT      O93208   9.005   5.060   6.009
30989WAT     H193209   9.018   4.980   5.950
30989WAT     H293210   9.068   5.133   5.981
30990WAT      O93211   3.603   8.335   5.420
30990WAT     H193212   3.623   8.417   5.366
30990WAT     H293213   3.657   8.336   5.503
30991WAT      O93214   4.785   4.069   2.160
30991WAT     H193215   4.767   3.995   2.226
30991WAT     H293216   4.728   4.055   2.079
30992WAT      O93217   3.946   0.202   4.749
30992WAT     H193218   3.959   0.299   4.726
30992WAT     H293219   4.012   0.146   4.699
30993WAT      O93220   2.626   0.040   0.713
30993WAT     H193221   2.594  -0.033   0.774
30993WAT     H293222   2.616   0.011   0.618
30994WAT      O93223   5.911   7.494   9.755
30994WAT     H193224   5.906   7.581   9.803
30994WAT     H293225   5.843   7.431   9.792
30995WAT      O93226   1.494   5.896   2.665
30995WAT     H193227   1.512   5.902   2.567
30995WAT     H293228   1.531   5.977   2.710
30996WAT      O93229   6.560   7.585   2.854
30996WAT     H193230   6.563   7.581   2.953
30996WAT     H293231   6.519   7.500   2.819
30997WAT      O93232   9.296   8.774   3.632
30997WAT     H193233   9.246   8.783   3.546
30997WAT     H293234   9.345   8.859   3.652
30998WAT      O93235   3.988   2.334   6.364
30998WAT     H193236   4.073   2.361   6.319
30998WAT     H293237   4.006   2.317   6.461
30999WAT      O93238   2.903   5.049   0.591
30999WAT     H193239   2.875   5.107   0.514
30999WAT     H293240   2.865   4.957   0.579
31000WAT      O93241   1.845   3.503   0.808
31000WAT     H193242   1.748   3.523   0.827
31000WAT     H293243   1.902   3.554   0.872
31001WAT      O93244   4.716   7.014   0.422
31001WAT     H193245   4.771   6.933   0.438
31001WAT     H293246   4.690   7.055   0.510
31002WAT      O93247   9.736   9.262   3.775
31002WAT     H193248   9.680   9.320   3.716
31002WAT     H293249   9.687   9.177   3.796
31003WAT      O93250   7.968   8.158   2.697
31003WAT     H193251   7.915   8.093   2.751
31003WAT     H293252   7.987   8.120   2.607
31004WAT      O93253   2.852   3.390   3.212
31004WAT     H193254   2.886   3.311   3.162
31004WAT     H293255   2.855   3.371   3.310
31005WAT      O93256   9.337   9.030   5.414
31005WAT     H193257   9.408   8.986   5.359
31005WAT     H293258   9.275   9.081   5.355
31006WAT      O93259   5.526   7.066   1.412
31006WAT     H193260   5.471   7.020   1.343
31006WAT     H293261   5.467   7.091   1.489
31007WAT      O93262   4.579   6.648   2.442
31007WAT     H193263   4.525   6.626   2.361
31007WAT     H293264   4.611   6.563   2.485
31008WAT      O93265   1.357   4.655   8.723
31008WAT     H193266   1.378   4.672   8.819
31008WAT     H293267   1.366   4.741   8.671
31009WAT      O93268   5.735   8.117   0.084
31009WAT     H193269   5.834   8.115   0.089
31009WAT     H293270   5.697   8.048   0.145
31010WAT      O93271   2.425   5.166   5.068
31010WAT     H193272   2.411   5.222   4.987
31010WAT     H293273   2.453   5.074   5.040
31011WAT      O93274   8.524   5.805   0.659
31011WAT     H193275   8.439   5.857   0.660
31011WAT     H293276   8.561   5.804   0.566
31012WAT      O93277   4.547   1.784   0.857
31012WAT     H193278   4.486   1.860   0.834
31012WAT     H293279   4.626   1.786   0.796
31013WAT      O93280   1.132   5.624   2.533
31013WAT     H193281   1.156   5.648   2.439
31013WAT     H293282   1.206   5.571   2.574
31014WAT      O93283   8.722   3.140   6.101
31014WAT     H193284   8.759   3.198   6.173
31014WAT     H293285   8.753   3.172   6.012
31015WAT      O93286   4.668   1.423   1.871
31015WAT     H193287   4.594   1.407   1.936
31015WAT     H293288   4.709   1.335   1.845
31016WAT      O93289   2.820   3.943   0.979
31016WAT     H193290   2.746   3.884   1.012
31016WAT     H293291   2.786   3.998   0.902
31017WAT      O93292   3.414   4.370   1.825
31017WAT     H193293   3.479   4.294   1.822
31017WAT     H293294   3.349   4.355   1.900
31018WAT      O93295   6.041   5.437   0.802
31018WAT     H193296   6.022   5.375   0.726
31018WAT     H293297   6.118   5.401   0.855
31019WAT      O93298   0.357   9.780   7.287
31019WAT     H193299   0.278   9.769   7.228
31019WAT     H293300   0.432   9.722   7.255
31020WAT      O93301   8.641   6.952   5.834
31020WAT     H193302   8.590   7.030   5.799
31020WAT     H293303   8.732   6.950   5.793
31021WAT      O93304   0.122   0.909   7.224
31021WAT     H193305   0.096   0.885   7.131
31021WAT     H293306   0.105   0.832   7.285
31022WAT      O93307   7.645   0.205   2.233
31022WAT     H193308   7.609   0.247   2.149
31022WAT     H293309   7.658   0.107   2.217
31023WAT      O93310   4.650   0.620   3.671
31023WAT     H193311   4.700   0.630   3.585
31023WAT     H293312   4.615   0.527   3.679
31024WAT      O93313   1.946   4.307   3.642
31024WAT     H193314   1.969   4.216   3.677
31024WAT     H293315   1.851   4.328   3.664
31025WAT      O93316   8.185   0.413   8.329
31025WAT     H193317   8.279   0.384   8.306
31025WAT     H293318   8.181   0.513   8.332
31026WAT      O93319   0.217   9.042   2.353
31026WAT     H193320   0.268   8.955   2.354
31026WAT     H293321   0.121   9.023   2.333
31027WAT      O93322   8.256   0.171   6.547
31027WAT     H193323   8.224   0.255   6.503
31027WAT     H293324   8.193   0.147   6.621
31028WAT      O93325   5.566   1.549   1.298
31028WAT     H193326   5.635   1.535   1.227
31028WAT     H293327   5.609   1.539   1.388
31029WAT      O93328   8.840   3.206   9.595
31029WAT     H193329   8.766   3.274   9.588
31029WAT     H293330   8.883   3.213   9.685
31030WAT      O93331   3.166   5.215   1.029
31030WAT     H193332   3.192   5.134   1.082
31030WAT     H293333   3.114   5.186   0.948
31031WAT      O93334   0.346   4.920   7.196
31031WAT     H193335   0.379   4.943   7.104
31031WAT     H293336   0.413   4.951   7.263
31032WAT      O93337   4.442   6.612   7.457
31032WAT     H193338   4.423   6.686   7.392
31032WAT     H293339   4.463   6.651   7.547
31033WAT      O93340   9.355   2.298   3.645
31033WAT     H193341   9.427   2.242   3.688
31033WAT     H293342   9.393   2.385   3.616
31034WAT      O93343   7.042   0.202   0.006
31034WAT     H193344   7.108   0.225   0.078
31034WAT     H293345   7.020   0.104   0.011
31035WAT      O93346   4.571   6.290   8.403
31035WAT     H193347   4.605   6.379   8.372
31035WAT     H293348   4.598   6.220   8.337
31036WAT      O93349   1.111   7.909   9.607
31036WAT     H193350   1.167   7.973   9.556
31036WAT     H293351   1.028   7.954   9.639
31037WAT      O93352   4.490   4.935   2.113
31037WAT     H193353   4.487   4.986   2.027
31037WAT     H293354   4.480   4.837   2.094
31038WAT      O93355   5.276   3.855   6.982
31038WAT     H193356   5.244   3.761   6.989
31038WAT     H293357   5.221   3.913   7.043
31039WAT      O93358   6.388   1.975   8.756
31039WAT     H193359   6.356   1.904   8.818
31039WAT     H293360   6.355   1.956   8.663
31040WAT      O93361   9.346   8.290   0.923
31040WAT     H193362   9.442   8.273   0.946
31040WAT     H293363   9.313   8.218   0.863
31041WAT      O93364   8.801   1.028   0.471
31041WAT     H193365   8.720   0.971   0.460
31041WAT     H293366   8.782   1.102   0.535
31042WAT      O93367   6.423   7.631   0.887
31042WAT     H193368   6.383   7.541   0.905
31042WAT     H293369   6.359   7.702   0.915
31043WAT      O93370   4.531   9.555   0.894
31043WAT     H193371   4.540   9.649   0.861
31043WAT     H293372   4.460   9.508   0.841
31044WAT      O93373   8.471   0.968   3.170
31044WAT     H193374   8.503   1.058   3.200
31044WAT     H293375   8.373   0.960   3.190
31045WAT      O93376   5.557   7.207   2.504
31045WAT     H193377   5.589   7.253   2.422
31045WAT     H293378   5.605   7.244   2.584
31046WAT      O93379   0.217   3.913   9.642
31046WAT     H193380   0.202   3.840   9.576
31046WAT     H293381   0.253   3.994   9.595
31047WAT      O93382   8.368   4.204   3.299
31047WAT     H193383   8.411   4.181   3.386
31047WAT     H293384   8.282   4.152   3.291
31048WAT      O93385   8.103   8.740   5.606
31048WAT     H193386   8.195   8.732   5.569
31048WAT     H293387   8.081   8.659   5.661
31049WAT      O93388   9.742   8.295   5.032
31049WAT     H193389   9.676   8.338   4.971
31049WAT     H293390   9.823   8.268   4.980
31050WAT      O93391   0.294   4.385   6.824
31050WAT     H193392   0.321   4.368   6.729
31050WAT     H293393   0.374   4.377   6.884
31051WAT      O93394   2.595   0.814   3.702
31051WAT     H193395   2.549   0.855   3.623
31051WAT     H293396   2.688   0.787   3.675
31052WAT      O93397   8.670   1.995   2.100
31052WAT     H193398   8.651   2.081   2.053
31052WAT     H293399   8.737   2.011   2.173
31053WAT      O93400   4.988   2.653   0.165
31053WAT     H193401   5.016   2.721   0.099
31053WAT     H293402   4.889   2.658   0.179
31054WAT      O93403   4.910   3.377   6.159
31054WAT     H193404   4.961   3.292   6.175
31054WAT     H293405   4.919   3.404   6.064
31055WAT      O93406   4.167   8.377   0.636
31055WAT     H193407   4.193   8.395   0.541
31055WAT     H293408   4.190   8.455   0.693
31056WAT      O93409   4.190   5.483   3.491
31056WAT     H193410   4.252   5.533   3.552
31056WAT     H293411   4.151   5.547   3.424
31057WAT      O93412   4.944   5.434   3.756
31057WAT     H193413   4.985   5.510   3.706
31057WAT     H293414   4.999   5.413   3.837
31058WAT      O93415   5.954   0.874   3.032
31058WAT     H193416   5.886   0.939   3.067
31058WAT     H293417   5.956   0.793   3.090
31059WAT      O93418   6.155   6.200   2.728
31059WAT     H193419   6.082   6.153   2.679
31059WAT     H293420   6.191   6.274   2.671
31060WAT      O93421   3.578   7.250   3.746
31060WAT     H193422   3.552   7.312   3.821
31060WAT     H293423   3.602   7.161   3.784
31061WAT      O93424   6.379   9.271   1.488
31061WAT     H193425   6.305   9.339   1.485
31061WAT     H293426   6.461   9.311   1.446
31062WAT      O93427   9.779   6.345   2.415
31062WAT     H193428   9.726   6.399   2.350
31062WAT     H293429   9.838   6.405   2.469
31063WAT      O93430   3.645   2.720   4.588
31063WAT     H193431   3.574   2.716   4.519
31063WAT     H293432   3.669   2.816   4.606
31064WAT      O93433   1.396   5.532   0.481
31064WAT     H193434   1.419   5.605   0.545
31064WAT     H293435   1.324   5.564   0.419
31065WAT      O93436   9.483   6.855   0.168
31065WAT     H193437   9.470   6.756   0.164
31065WAT     H293438   9.503   6.890   0.076
31066WAT      O93439   3.372   6.498   0.181
31066WAT     H193440   3.354   6.585   0.136
31066WAT     H293441   3.303   6.481   0.250
31067WAT      O93442   5.890   5.604   8.066
31067WAT     H193443   5.931   5.581   7.977
31067WAT     H293444   5.962   5.612   8.135
31068WAT      O93445   4.355   1.140   7.976
31068WAT     H193446   4.299   1.218   8.005
31068WAT     H293447   4.364   1.141   7.877
31069WAT      O93448   1.719   9.474   2.337
31069WAT     H193449   1.641   9.531   2.314
31069WAT     H293450   1.746   9.490   2.432
31070WAT      O93451   0.083   8.725   3.206
31070WAT     H193452   0.067   8.774   3.120
31070WAT     H293453   0.028   8.641   3.207
31071WAT      O93454   1.433   1.211   4.298
31071WAT     H193455   1.360   1.279   4.301
31071WAT     H293456   1.414   1.139   4.365
31072WAT      O93457   4.759   6.219   4.163
31072WAT     H193458   4.793   6.228   4.256
31072WAT     H293459   4.661   6.200   4.164
31073WAT      O93460   1.746   6.978   5.664
31073WAT     H193461   1.713   7.059   5.713
31073WAT     H293462   1.817   7.005   5.599
31074WAT      O93463   7.933   2.229   1.045
31074WAT     H193464   7.964   2.240   0.951
31074WAT     H293465   7.897   2.315   1.079
31075WAT      O93466   4.478   4.221   2.106
31075WAT     H193467   4.393   4.229   2.156
31075WAT     H293468   4.543   4.290   2.137
31076WAT      O93469   7.410   7.430   3.298
31076WAT     H193470   7.342   7.389   3.238
31076WAT     H293471   7.477   7.360   3.325
31077WAT      O93472   0.538   3.101   4.627
31077WAT     H193473   0.604   3.165   4.586
31077WAT     H293474   0.572   3.007   4.615
31078WAT      O93475   1.252   6.003   6.723
31078WAT     H193476   1.161   6.043   6.737
31078WAT     H293477   1.317   6.049   6.782
31079WAT      O93478   8.852   8.187   1.628
31079WAT     H193479   8.922   8.149   1.689
31079WAT     H293480   8.871   8.161   1.534
31080WAT      O93481   8.599   4.013   6.107
31080WAT     H193482   8.562   4.049   6.193
31080WAT     H293483   8.553   3.927   6.084
31081WAT      O93484   9.160   3.995   6.451
31081WAT     H193485   9.125   4.077   6.405
31081WAT     H293486   9.256   3.981   6.424
31082WAT      O93487   1.203   3.723   5.865
31082WAT     H193488   1.104   3.735   5.859
31082WAT     H293489   1.227   3.628   5.845
31083WAT      O93490   5.642   0.913   4.410
31083WAT     H193491   5.558   0.966   4.408
31083WAT     H293492   5.622   0.818   4.387
31084WAT      O93493   3.076   3.607   5.890
31084WAT     H193494   3.111   3.513   5.890
31084WAT     H293495   3.004   3.615   5.821
31085WAT      O93496   9.152   0.290   9.644
31085WAT     H193497   9.137   0.267   9.548
31085WAT     H293498   9.105   0.376   9.666
31086WAT      O93499   0.677   0.382   5.368
31086WAT     H193500   0.754   0.421   5.419
31086WAT     H293501   0.592   0.421   5.402
31087WAT      O93502   7.278   7.093   2.249
31087WAT     H193503   7.212   7.075   2.175
31087WAT     H293504   7.345   7.019   2.252
31088WAT      O93505   1.748   4.449   7.600
31088WAT     H193506   1.708   4.522   7.656
31088WAT     H293507   1.778   4.374   7.660
31089WAT      O93508   6.102   4.806   6.192
31089WAT     H193509   6.126   4.850   6.279
31089WAT     H293510   6.183   4.761   6.154
31090WAT      O93511   4.285   1.832   7.127
31090WAT     H193512   4.350   1.781   7.071
31090WAT     H293513   4.249   1.772   7.199
31091WAT      O93514   8.434   0.020   7.472
31091WAT     H193515   8.482  -0.018   7.393
31091WAT     H293516   8.361   0.080   7.440
31092WAT      O93517   6.325   7.072   5.059
31092WAT     H193518   6.384   7.118   4.994
31092WAT     H293519   6.346   6.974   5.060
31093WAT      O93520   0.666   3.899   0.666
31093WAT     H193521   0.757   3.898   0.707
31093WAT     H293522   0.612   3.821   0.699
31094WAT      O93523   5.632   3.037   4.857
31094WAT     H193524   5.616   3.117   4.915
31094WAT     H293525   5.583   3.047   4.771
31095WAT      O93526   1.214   5.757   2.307
31095WAT     H193527   1.218   5.855   2.330
31095WAT     H293528   1.121   5.733   2.278
31096WAT      O93529   2.227   4.438   8.821
31096WAT     H193530   2.147   4.495   8.840
31096WAT     H293531   2.254   4.448   8.726
31097WAT      O93532   1.191   0.130   2.413
31097WAT     H193533   1.261   0.197   2.392
31097WAT     H293534   1.189   0.060   2.341
31098WAT      O93535   4.068   1.435   7.793
31098WAT     H193536   4.029   1.344   7.805
31098WAT     H293537   4.015   1.486   7.724
31099WAT      O93538   9.436   2.205   4.775
31099WAT     H193539   9.358   2.146   4.753
31099WAT     H293540   9.438   2.282   4.711
31100WAT      O93541   5.374   2.833   5.406
31100WAT     H193542   5.298   2.889   5.375
31100WAT     H293543   5.400   2.769   5.334
31101WAT      O93544   1.027   6.665   0.860
31101WAT     H193545   0.936   6.654   0.820
31101WAT     H293546   1.021   6.722   0.941
31102WAT      O93547   8.509   8.706   6.597
31102WAT     H193548   8.479   8.620   6.556
31102WAT     H293549   8.597   8.732   6.559
31103WAT      O93550   0.490   4.400   2.192
31103WAT     H193551   0.464   4.496   2.182
31103WAT     H293552   0.450   4.363   2.276
31104WAT      O93553   3.534   6.086   1.027
31104WAT     H193554   3.543   5.999   0.980
31104WAT     H293555   3.549   6.161   0.963
31105WAT      O93556   3.677   5.432   8.973
31105WAT     H193557   3.716   5.487   9.047
31105WAT     H293558   3.751   5.386   8.923
31106WAT      O93559   8.376   4.465   7.659
31106WAT     H193560   8.293   4.520   7.664
31106WAT     H293561   8.456   4.526   7.653
31107WAT      O93562   5.397   0.031   0.719
31107WAT     H193563   5.410   0.014   0.622
31107WAT     H293564   5.302   0.057   0.736
31108WAT      O93565   4.363   9.773   9.165
31108WAT     H193566   4.269   9.761   9.134
31108WAT     H293567   4.365   9.838   9.241
31109WAT      O93568   1.881   9.402   6.027
31109WAT     H193569   1.908   9.485   5.980
31109WAT     H293570   1.854   9.423   6.121
31110WAT      O93571   5.028   6.062   7.683
31110WAT     H193572   4.960   6.057   7.610
31110WAT     H293573   4.984   6.089   7.769
31111WAT      O93574   2.995   7.946   3.590
31111WAT     H193575   2.994   8.037   3.548
31111WAT     H293576   2.911   7.932   3.641
31112WAT      O93577   1.382   1.722   9.860
31112WAT     H193578   1.319   1.681   9.925
31112WAT     H293579   1.362   1.689   9.768
31113WAT      O93580   4.721   1.805   7.678
31113WAT     H193581   4.782   1.762   7.612
31113WAT     H293582   4.682   1.888   7.638
31114WAT      O93583   1.153   3.537   3.218
31114WAT     H193584   1.066   3.569   3.180
31114WAT     H293585   1.150   3.437   3.226
31115WAT      O93586   5.367   9.732   9.411
31115WAT     H193587   5.371   9.632   9.403
31115WAT     H293588   5.412   9.760   9.496
31116WAT      O93589   1.085   6.893   6.988
31116WAT     H193590   1.005   6.901   7.048
31116WAT     H293591   1.131   6.806   7.007
31117WAT      O93592   9.766   3.374   8.127
31117WAT     H193593   9.811   3.459   8.102
31117WAT     H293594   9.795   3.346   8.219
31118WAT      O93595   4.670   1.984   6.691
31118WAT     H193596   4.648   1.920   6.618
31118WAT     H293597   4.593   1.991   6.754
31119WAT      O93598   4.300   3.644   2.909
31119WAT     H193599   4.330   3.734   2.941
31119WAT     H293600   4.310   3.638   2.810
31120WAT      O93601   9.364   8.558   4.440
31120WAT     H193602   9.317   8.541   4.526
31120WAT     H293603   9.429   8.633   4.451
31121WAT      O93604   1.000   4.617   8.331
31121WAT     H193605   0.997   4.666   8.244
31121WAT     H293606   0.908   4.615   8.370
31122WAT      O93607   7.280   8.440   7.089
31122WAT     H193608   7.225   8.364   7.124
31122WAT     H293609   7.245   8.526   7.127
31123WAT      O93610   2.962   2.850   8.837
31123WAT     H193611   3.037   2.789   8.862
31123WAT     H293612   2.887   2.797   8.798
31124WAT      O93613   9.300   3.517   7.634
31124WAT     H193614   9.219   3.458   7.630
31124WAT     H293615   9.274   3.611   7.612
31125WAT      O93616   5.609   6.485   7.579
31125WAT     H193617   5.558   6.571   7.571
31125WAT     H293618   5.595   6.448   7.671
31126WAT      O93619   2.623   9.821   3.020
31126WAT     H193620   2.597   9.832   2.924
31126WAT     H293621   2.708   9.872   3.037
31127WAT      O93622   4.393   7.192   0.660
31127WAT     H193623   4.420   7.206   0.564
31127WAT     H293624   4.350   7.275   0.695
31128WAT      O93625   0.623   4.813   6.825
31128WAT     H193626   0.679   4.794   6.745
31128WAT     H293627   0.633   4.738   6.891
31129WAT      O93628   0.222   0.522   8.972
31129WAT     H193629   0.275   0.581   8.911
31129WAT     H293630   0.186   0.576   9.048
31130WAT      O93631   8.059   7.893   7.029
31130WAT     H193632   7.983   7.831   7.015
31130WAT     H293633   8.135   7.843   7.071
31131WAT      O93634   2.318   0.621   2.549
31131WAT     H193635   2.221   0.640   2.533
31131WAT     H293636   2.330   0.581   2.641
31132WAT      O93637   5.828   2.813   1.010
31132WAT     H193638   5.875   2.901   1.000
31132WAT     H293639   5.765   2.800   0.933
31133WAT      O93640   4.622   3.822   8.014
31133WAT     H193641   4.640   3.920   8.013
31133WAT     H293642   4.701   3.774   8.053
31134WAT      O93643   0.928   9.634   1.326
31134WAT     H193644   0.973   9.621   1.238
31134WAT     H293645   0.994   9.617   1.399
31135WAT      O93646   8.629   2.652   8.042
31135WAT     H193647   8.660   2.746   8.023
31135WAT     H293648   8.655   2.627   8.135
31136WAT      O93649   2.225   2.904   7.709
31136WAT     H193650   2.196   2.817   7.748
31136WAT     H293651   2.248   2.892   7.612
31137WAT      O93652   4.671   4.645   6.077
31137WAT     H193653   4.715   4.732   6.103
31137WAT     H293654   4.733   4.592   6.020
31138WAT      O93655   4.799   6.018   9.437
31138WAT     H193656   4.771   6.067   9.519
31138WAT     H293657   4.874   6.067   9.392
31139WAT      O93658   5.149   1.834   9.486
31139WAT     H193659   5.131   1.866   9.393
31139WAT     H293660   5.071   1.780   9.519
31140WAT      O93661   8.357   4.583   6.323
31140WAT     H193662   8.265   4.564   6.357
31140WAT     H293663   8.398   4.499   6.288
31141WAT      O93664   8.608   6.890   0.384
31141WAT     H193665   8.671   6.846   0.320
31141WAT     H293666   8.519   6.902   0.339
31142WAT      O93667   0.945   0.667   4.229
31142WAT     H193668   0.964   0.762   4.206
31142WAT     H293669   1.023   0.629   4.279
31143WAT      O93670   8.054   8.750   4.513
31143WAT     H193671   8.025   8.710   4.600
31143WAT     H293672   8.140   8.708   4.484
31144WAT      O93673   0.462   9.192   8.373
31144WAT     H193674   0.488   9.106   8.331
31144WAT     H293675   0.544   9.241   8.403
31145WAT      O93676   8.827   4.759   7.212
31145WAT     H193677   8.799   4.801   7.126
31145WAT     H293678   8.925   4.739   7.210
31146WAT      O93679   5.902   7.787   5.478
31146WAT     H193680   5.947   7.875   5.463
31146WAT     H293681   5.950   7.716   5.428
31147WAT      O93682   1.756   5.160   1.523
31147WAT     H193683   1.785   5.243   1.571
31147WAT     H293684   1.791   5.161   1.430
31148WAT      O93685   2.538   1.870   4.351
31148WAT     H193686   2.533   1.836   4.444
31148WAT     H293687   2.562   1.968   4.352
31149WAT      O93688   2.830   8.844   1.198
31149WAT     H193689   2.826   8.803   1.289
31149WAT     H293690   2.847   8.772   1.130
31150WAT      O93691   1.324   8.684   6.277
31150WAT     H193692   1.270   8.688   6.194
31150WAT     H293693   1.347   8.589   6.299
31151WAT      O93694   5.527   5.026   1.928
31151WAT     H193695   5.523   5.061   1.834
31151WAT     H293696   5.557   4.931   1.927
31152WAT      O93697   5.331   6.695   0.283
31152WAT     H193698   5.329   6.767   0.214
31152WAT     H293699   5.413   6.639   0.270
31153WAT      O93700   4.493   9.375   2.642
31153WAT     H193701   4.514   9.463   2.597
31153WAT     H293702   4.557   9.306   2.610
31154WAT      O93703   4.102   2.676   7.163
31154WAT     H193704   4.177   2.610   7.171
31154WAT     H293705   4.089   2.700   7.067
31155WAT      O93706   4.782   1.417   2.456
31155WAT     H193707   4.765   1.507   2.497
31155WAT     H293708   4.799   1.350   2.529
31156WAT      O93709   5.648   1.283   3.665
31156WAT     H193710   5.695   1.361   3.624
31156WAT     H293711   5.606   1.228   3.593
31157WAT      O93712   1.052   4.666   7.745
31157WAT     H193713   1.023   4.747   7.796
31157WAT     H293714   1.080   4.595   7.809
31158WAT      O93715   2.392   8.238   0.105
31158WAT     H193716   2.393   8.161   0.041
31158WAT     H293717   2.412   8.205   0.197
31159WAT      O93718   4.064   7.737   1.652
31159WAT     H193719   4.031   7.750   1.558
31159WAT     H293720   4.090   7.825   1.690
31160WAT      O93721   7.253   9.346   9.767
31160WAT     H193722   7.275   9.443   9.778
31160WAT     H293723   7.258   9.322   9.670
31161WAT      O93724   5.077   2.867   4.584
31161WAT     H193725   4.988   2.907   4.606
31161WAT     H293726   5.081   2.774   4.619
31162WAT      O93727   0.091   3.355   1.852
31162WAT     H193728   0.096   3.255   1.848
31162WAT     H293729   0.025   3.382   1.923
31163WAT      O93730   6.603   8.175   9.841
31163WAT     H193731   6.632   8.260   9.798
31163WAT     H293732   6.628   8.098   9.782
31164WAT      O93733   7.715   3.438   8.447
31164WAT     H193734   7.695   3.345   8.479
31164WAT     H293735   7.694   3.504   8.518
31165WAT      O93736   1.137   8.386   9.221
31165WAT     H193737   1.155   8.379   9.319
31165WAT     H293738   1.043   8.355   9.203
31166WAT      O93739   8.032   4.362   3.600
31166WAT     H193740   7.969   4.337   3.526
31166WAT     H293741   8.038   4.286   3.665
31167WAT      O93742   2.930   8.331   8.802
31167WAT     H193743   2.961   8.244   8.839
31167WAT     H293744   2.891   8.316   8.711
31168WAT      O93745   2.889   7.280   6.387
31168WAT     H193746   2.847   7.200   6.432
31168WAT     H293747   2.825   7.317   6.320
31169WAT      O93748   9.642   5.336   1.828
31169WAT     H193749   9.704   5.281   1.772
31169WAT     H293750   9.619   5.285   1.911
31170WAT      O93751   5.086   5.600   6.623
31170WAT     H193752   5.107   5.687   6.667
31170WAT     H293753   5.112   5.525   6.684
31171WAT      O93754   5.668   7.693   6.247
31171WAT     H193755   5.648   7.784   6.285
31171WAT     H293756   5.589   7.633   6.261
31172WAT      O93757   0.221   5.002   0.745
31172WAT     H193758   0.147   5.062   0.714
31172WAT     H293759   0.190   4.907   0.742
31173WAT      O93760   0.069   9.126   3.713
31173WAT     H193761   0.126   9.191   3.662
31173WAT     H293762  -0.015   9.172   3.742
31174WAT      O93763   4.050   6.897   0.198
31174WAT     H193764   3.974   6.834   0.182
31174WAT     H293765   4.067   6.905   0.296
31175WAT      O93766   3.248   0.476   1.802
31175WAT     H193767   3.326   0.523   1.761
31175WAT     H293768   3.170   0.478   1.739
31176WAT      O93769   0.179   0.763   9.485
31176WAT     H193770   0.228   0.699   9.545
31176WAT     H293771   0.234   0.780   9.403
31177WAT      O93772   2.700   6.287   5.787
31177WAT     H193773   2.690   6.222   5.713
31177WAT     H293774   2.693   6.380   5.751
31178WAT      O93775   1.279   8.393   0.041
31178WAT     H193776   1.271   8.305  -0.007
31178WAT     H293777   1.218   8.460  -0.001
31179WAT      O93778   9.572   3.934   9.626
31179WAT     H193779   9.602   3.943   9.531
31179WAT     H293780   9.648   3.955   9.687
31180WAT      O93781   3.236   6.066   8.802
31180WAT     H193782   3.175   6.145   8.812
31180WAT     H293783   3.322   6.096   8.760
31181WAT      O93784   4.301   0.861   6.815
31181WAT     H193785   4.271   0.915   6.737
31181WAT     H293786   4.256   0.772   6.814
31182WAT      O93787   9.331   6.578   2.946
31182WAT     H193788   9.326   6.676   2.966
31182WAT     H293789   9.279   6.559   2.863
31183WAT      O93790   1.776   1.012   8.380
31183WAT     H193791   1.823   1.024   8.467
31183WAT     H293792   1.748   0.916   8.370
31184WAT      O93793   9.865   6.510   0.820
31184WAT     H193794   9.884   6.507   0.918
31184WAT     H293795   9.787   6.570   0.803
31185WAT      O93796   6.324   9.691   0.044
31185WAT     H193797   6.267   9.669   0.123
31185WAT     H293798   6.285   9.770  -0.004
31186WAT      O93799   1.852   5.857   1.290
31186WAT     H193800   1.919   5.786   1.268
31186WAT     H293801   1.831   5.855   1.387
31187WAT      O93802   1.847   6.008   7.560
31187WAT     H193803   1.804   5.952   7.489
31187WAT     H293804   1.905   6.078   7.517
31188WAT      O93805   9.348   3.853   4.993
31188WAT     H193806   9.278   3.782   5.005
31188WAT     H293807   9.421   3.818   4.934
31189WAT      O93808   2.422   6.190   8.734
31189WAT     H193809   2.417   6.128   8.812
31189WAT     H293810   2.357   6.265   8.746
31190WAT      O93811   7.041   8.076   2.384
31190WAT     H193812   7.068   8.124   2.468
31190WAT     H293813   6.976   8.132   2.333
31191WAT      O93814   2.870   8.008   4.565
31191WAT     H193815   2.776   8.043   4.568
31191WAT     H293816   2.874   7.928   4.505
31192WAT      O93817   5.274   4.542   1.186
31192WAT     H193818   5.286   4.470   1.117
31192WAT     H293819   5.204   4.514   1.252
31193WAT      O93820   7.509   8.845   9.040
31193WAT     H193821   7.528   8.877   8.948
31193WAT     H293822   7.503   8.745   9.040
31194WAT      O93823   2.915   1.970   6.930
31194WAT     H193824   2.958   1.990   6.842
31194WAT     H293825   2.965   1.897   6.976
31195WAT      O93826   6.989   7.520   2.040
31195WAT     H193827   6.960   7.466   1.962
31195WAT     H293828   6.987   7.617   2.016
31196WAT      O93829   9.776   6.055   3.747
31196WAT     H193830   9.801   5.971   3.699
31196WAT     H293831   9.779   6.040   3.846
31197WAT      O93832   1.117   7.904   7.512
31197WAT     H193833   1.179   7.975   7.544
31197WAT     H293834   1.095   7.841   7.587
31198WAT      O93835   7.839   7.873   7.553
31198WAT     H193836   7.821   7.972   7.560
31198WAT     H293837   7.795   7.837   7.471
31199WAT      O93838   1.199   7.074   6.013
31199WAT     H193839   1.171   7.028   5.928
31199WAT     H293840   1.171   7.018   6.091
31200WAT      O93841   9.678   1.910   7.614
31200WAT     H193842   9.623   1.831   7.588
31200WAT     H293843   9.769   1.879   7.643
31201WAT      O93844   6.249   9.372   1.830
31201WAT     H193845   6.337   9.416   1.812
31201WAT     H293846   6.182   9.440   1.859
31202WAT      O93847   5.398   5.647   0.551
31202WAT     H193848   5.354   5.557   0.555
31202WAT     H293849   5.495   5.638   0.569
31203WAT      O93850   8.586   3.903   2.763
31203WAT     H193851   8.628   3.857   2.686
31203WAT     H293852   8.653   3.962   2.809
31204WAT      O93853   1.691   6.622   1.200
31204WAT     H193854   1.786   6.625   1.230
31204WAT     H293855   1.676   6.541   1.143
31205WAT      O93856   6.665   3.806   1.793
31205WAT     H193857   6.680   3.711   1.768
31205WAT     H293858   6.589   3.843   1.740
31206WAT      O93859   5.832   6.770   6.200
31206WAT     H193860   5.826   6.775   6.101
31206WAT     H293861   5.753   6.719   6.236
31207WAT      O93862   4.942   5.612   7.158
31207WAT     H193863   4.941   5.677   7.234
31207WAT     H293864   4.888   5.531   7.181
31208WAT      O93865   7.828   6.168   4.592
31208WAT     H193866   7.758   6.123   4.536
31208WAT     H293867   7.916   6.124   4.576
31209WAT      O93868   2.853   0.509   0.465
31209WAT     H193869   2.853   0.430   0.527
31209WAT     H293870   2.759   0.533   0.442
31210WAT      O93871   4.013   9.278   2.701
31210WAT     H193872   3.961   9.291   2.785
31210WAT     H293873   4.107   9.253   2.724
31211WAT      O93874   4.787   0.446   1.875
31211WAT     H193875   4.791   0.504   1.793
31211WAT     H293876   4.694   0.448   1.912
31212WAT      O93877   2.892   1.233   9.789
31212WAT     H193878   2.865   1.297   9.718
31212WAT     H293879   2.825   1.159   9.795
31213WAT      O93880   4.927   7.182   9.645
31213WAT     H193881   4.839   7.143   9.619
31213WAT     H293882   5.000   7.133   9.597
31214WAT      O93883   4.521   6.060   8.247
31214WAT     H193884   4.562   6.028   8.162
31214WAT     H293885   4.422   6.043   8.245
31215WAT      O93886   7.064   8.690   8.250
31215WAT     H193887   7.147   8.736   8.216
31215WAT     H293888   7.010   8.755   8.303
31216WAT      O93889   0.042   7.174   3.688
31216WAT     H193890   0.031   7.186   3.590
31216WAT     H293891  -0.036   7.213   3.736
31217WAT      O93892   3.862   7.378   7.714
31217WAT     H193893   3.805   7.339   7.787
31217WAT     H293894   3.876   7.475   7.732
31218WAT      O93895   0.685   0.644   6.345
31218WAT     H193896   0.586   0.636   6.353
31218WAT     H293897   0.712   0.625   6.251
31219WAT      O93898   1.068   6.523   8.309
31219WAT     H193899   1.069   6.503   8.407
31219WAT     H293900   1.022   6.610   8.293
31220WAT      O93901   7.380   6.089   3.718
31220WAT     H193902   7.338   6.064   3.805
31220WAT     H293903   7.313   6.138   3.661
31221WAT      O93904   9.687   2.000   7.350
31221WAT     H193905   9.671   1.989   7.448
31221WAT     H293906   9.695   1.910   7.307
31222WAT      O93907   8.684   4.030   0.681
31222WAT     H193908   8.715   4.067   0.768
31222WAT     H293909   8.596   4.070   0.657
31223WAT      O93910   3.629   6.088   0.597
31223WAT     H193911   3.613   6.177   0.553
31223WAT     H293912   3.647   6.019   0.527
31224WAT      O93913   0.162   4.421   4.839
31224WAT     H193914   0.254   4.380   4.838
31224WAT     H293915   0.094   4.348   4.847
31225WAT      O93916   5.066   7.771   9.235
31225WAT     H193917   5.060   7.736   9.328
31225WAT     H293918   4.988   7.830   9.216
31226WAT      O93919   2.262   1.423   3.492
31226WAT     H193920   2.359   1.401   3.500
31226WAT     H293921   2.223   1.434   3.583
31227WAT      O93922   8.134   7.050   4.097
31227WAT     H193923   8.097   7.003   4.177
31227WAT     H293924   8.058   7.082   4.039
31228WAT      O93925   8.350   6.637   5.006
31228WAT     H193926   8.331   6.702   4.932
31228WAT     H293927   8.329   6.544   4.974
31229WAT      O93928   1.412   5.459   7.882
31229WAT     H193929   1.357   5.541   7.862
31229WAT     H293930   1.353   5.391   7.926
31230WAT      O93931   2.350   7.333   4.395
31230WAT     H193932   2.430   7.290   4.352
31230WAT     H293933   2.353   7.319   4.493
31231WAT      O93934   9.223   3.716   7.080
31231WAT     H193935   9.249   3.641   7.019
31231WAT     H293936   9.305   3.751   7.126
31232WAT      O93937   6.364   5.932   5.016
31232WAT     H193938   6.303   5.913   4.939
31232WAT     H293939   6.335   6.016   5.061
31233WAT      O93940   8.419   8.796   8.890
31233WAT     H193941   8.370   8.736   8.952
31233WAT     H293942   8.479   8.856   8.943
31234WAT      O93943   3.731   6.478   7.109
31234WAT     H193944   3.643   6.447   7.072
31234WAT     H293945   3.805   6.428   7.065
31235WAT      O93946   9.640   8.276   3.707
31235WAT     H193947   9.578   8.197   3.705
31235WAT     H293948   9.612   8.339   3.779
31236WAT      O93949   5.916   1.664   1.569
31236WAT     H193950   5.936   1.715   1.485
31236WAT     H293951   5.829   1.616   1.560
31237WAT      O93952   2.768   9.467   6.586
31237WAT     H193953   2.748   9.399   6.657
31237WAT     H293954   2.835   9.429   6.522
31238WAT      O93955   1.715   8.241   2.492
31238WAT     H193956   1.813   8.246   2.509
31238WAT     H293957   1.682   8.148   2.510
31239WAT      O93958   7.088   5.430   2.128
31239WAT     H193959   7.035   5.512   2.149
31239WAT     H293960   7.114   5.431   2.031
31240WAT      O93961   3.546   3.481   0.895
31240WAT     H193962   3.453   3.452   0.871
31240WAT     H293963   3.548   3.581   0.902
31241WAT      O93964   0.077   6.372   2.174
31241WAT     H193965  -0.010   6.345   2.214
31241WAT     H293966   0.134   6.415   2.245
31242WAT      O93967   7.724   4.155   3.537
31242WAT     H193968   7.651   4.193   3.594
31242WAT     H293969   7.776   4.229   3.496
31243WAT      O93970   4.323   4.186   2.556
31243WAT     H193971   4.363   4.106   2.514
31243WAT     H293972   4.318   4.173   2.655
31244WAT      O93973   1.754   7.514   2.631
31244WAT     H193974   1.680   7.448   2.641
31244WAT     H293975   1.815   7.508   2.710
31245WAT      O93976   1.481   8.051   9.408
31245WAT     H193977   1.476   7.971   9.468
31245WAT     H293978   1.402   8.050   9.346
31246WAT      O93979   3.548   2.631   1.700
31246WAT     H193980   3.620   2.668   1.759
31246WAT     H293981   3.459   2.648   1.743
31247WAT      O93982   0.187   2.676   1.915
31247WAT     H193983   0.188   2.741   1.839
31247WAT     H293984   0.249   2.600   1.894
31248WAT      O93985   9.088   6.580   5.448
31248WAT     H193986   9.007   6.602   5.502
31248WAT     H293987   9.150   6.525   5.504
31249WAT      O93988   0.254   2.983   0.775
31249WAT     H193989   0.280   2.913   0.841
31249WAT     H293990   0.162   2.964   0.741
31250WAT      O93991   2.658   2.971   1.316
31250WAT     H193992   2.715   2.899   1.356
31250WAT     H293993   2.612   2.936   1.235
31251WAT      O93994   6.452   6.285   4.302
31251WAT     H193995   6.505   6.211   4.261
31251WAT     H293996   6.370   6.302   4.248
31252WAT      O93997   0.626   3.003   5.891
31252WAT     H193998   0.646   2.909   5.866
31252WAT     H293999   0.711   3.056   5.891
31253WAT      O94000   1.572   7.067   6.900
31253WAT     H194001   1.604   7.121   6.822
31253WAT     H294002   1.615   7.101   6.983
31254WAT      O94003   8.804   1.166   4.436
31254WAT     H194004   8.846   1.164   4.526
31254WAT     H294005   8.706   1.146   4.444
31255WAT      O94006   2.404   5.582   3.234
31255WAT     H194007   2.394   5.590   3.135
31255WAT     H294008   2.401   5.486   3.261
31256WAT      O94009   9.549   1.233   6.118
31256WAT     H194010   9.572   1.138   6.094
31256WAT     H294011   9.457   1.236   6.155
31257WAT      O94012   2.525   9.714   9.299
31257WAT     H194013   2.549   9.670   9.212
31257WAT     H294014   2.441   9.674   9.334
31258WAT      O94015   3.068   7.749   4.242
31258WAT     H194016   3.118   7.694   4.174
31258WAT     H294017   3.114   7.741   4.330
31259WAT      O94018   8.651   3.397   3.589
31259WAT     H194019   8.618   3.426   3.499
31259WAT     H294020   8.608   3.311   3.615
31260WAT      O94021   3.719   4.556   9.433
31260WAT     H194022   3.787   4.519   9.497
31260WAT     H294023   3.756   4.555   9.340
31261WAT      O94024   9.025   7.653   0.790
31261WAT     H194025   9.018   7.574   0.730
31261WAT     H294026   9.118   7.691   0.785
31262WAT      O94027   2.875   0.047   5.584
31262WAT     H194028   2.892   0.047   5.682
31262WAT     H294029   2.944  -0.010   5.538
31263WAT      O94030   1.484   3.610   2.397
31263WAT     H194031   1.582   3.615   2.377
31263WAT     H294032   1.449   3.520   2.370
31264WAT      O94033   7.291   0.671   2.542
31264WAT     H194034   7.212   0.624   2.582
31264WAT     H294035   7.342   0.716   2.614
31265WAT      O94036   6.979   4.516   9.479
31265WAT     H194037   6.973   4.608   9.518
31265WAT     H294038   6.891   4.470   9.489
31266WAT      O94039   9.363   4.130   2.477
31266WAT     H194040   9.296   4.060   2.451
31266WAT     H294041   9.438   4.088   2.528
31267WAT      O94042   0.172   9.361   2.300
31267WAT     H194043   0.127   9.392   2.216
31267WAT     H294044   0.113   9.381   2.378
31268WAT      O94045   9.757   0.320   5.069
31268WAT     H194046   9.724   0.286   4.981
31268WAT     H294047   9.809   0.247   5.115
31269WAT      O94048   1.856   5.248   3.896
31269WAT     H194049   1.930   5.201   3.848
31269WAT     H294050   1.867   5.347   3.886
31270WAT      O94051   9.080   0.939   6.332
31270WAT     H194052   9.119   1.001   6.400
31270WAT     H294053   8.981   0.951   6.327
31271WAT      O94054   3.981   3.534   2.244
31271WAT     H194055   3.958   3.612   2.303
31271WAT     H294056   3.951   3.449   2.288
31272WAT      O94057   7.996   1.955   1.669
31272WAT     H194058   7.896   1.958   1.674
31272WAT     H294059   8.035   1.977   1.758
31273WAT      O94060   0.599   4.645   1.648
31273WAT     H194061   0.609   4.576   1.719
31273WAT     H294062   0.594   4.736   1.689
31274WAT      O94063   0.380   4.502   9.527
31274WAT     H194064   0.480   4.498   9.521
31274WAT     H294065   0.347   4.579   9.471
31275WAT      O94066   2.706   5.669   3.343
31275WAT     H194067   2.607   5.673   3.357
31275WAT     H294068   2.726   5.608   3.266
31276WAT      O94069   7.143   2.661   6.207
31276WAT     H194070   7.216   2.673   6.139
31276WAT     H294071   7.097   2.574   6.191
31277WAT      O94072   2.651   4.935   7.220
31277WAT     H194073   2.566   4.947   7.271
31277WAT     H294074   2.632   4.895   7.131
31278WAT      O94075   2.036   8.531   9.847
31278WAT     H194076   2.122   8.501   9.888
31278WAT     H294077   2.051   8.554   9.751
31279WAT      O94078   6.620   9.383   6.611
31279WAT     H194079   6.549   9.317   6.587
31279WAT     H294080   6.669   9.410   6.528
31280WAT      O94081   5.210   9.521   5.133
31280WAT     H194082   5.296   9.472   5.118
31280WAT     H294083   5.200   9.539   5.231
31281WAT      O94084   3.090   6.745   1.249
31281WAT     H194085   3.038   6.674   1.204
31281WAT     H294086   3.128   6.709   1.335
31282WAT      O94087   3.962   3.424   0.465
31282WAT     H194088   4.053   3.448   0.431
31282WAT     H294089   3.903   3.398   0.389
31283WAT      O94090   6.959   9.527   4.262
31283WAT     H194091   7.047   9.545   4.219
31283WAT     H294092   6.892   9.503   4.192
31284WAT      O94093   8.372   4.230   8.408
31284WAT     H194094   8.330   4.148   8.448
31284WAT     H294095   8.302   4.301   8.396
31285WAT      O94096   1.477   8.995   4.115
31285WAT     H194097   1.386   8.954   4.114
31285WAT     H294098   1.478   9.075   4.056
31286WAT      O94099   7.054   2.318   9.888
31286WAT     H194100   7.148   2.315   9.854
31286WAT     H294101   6.993   2.276   9.820
31287WAT      O94102   4.348   4.061   3.510
31287WAT     H194103   4.282   4.103   3.573
31287WAT     H294104   4.352   3.963   3.527
31288WAT      O94105   2.666   8.417   5.463
31288WAT     H194106   2.639   8.424   5.560
31288WAT     H294107   2.586   8.391   5.409
31289WAT      O94108   7.493   3.228   5.148
31289WAT     H194109   7.571   3.229   5.211
31289WAT     H294110   7.524   3.202   5.056
31290WAT      O94111   1.769   5.636   4.210
31290WAT     H194112   1.725   5.695   4.278
31290WAT     H294113   1.848   5.683   4.172
31291WAT      O94114   6.690   6.746   1.074
31291WAT     H194115   6.591   6.747   1.061
31291WAT     H294116   6.712   6.689   1.154
31292WAT      O94117   0.199   0.451   4.468
31292WAT     H194118   0.197   0.353   4.452
31292WAT     H294119   0.236   0.498   4.388
31293WAT      O94120   0.972   4.740   5.048
31293WAT     H194121   0.968   4.791   5.134
31293WAT     H294122   0.885   4.692   5.034
31294WAT      O94123   4.085   1.317   3.106
31294WAT     H194124   4.054   1.275   3.021
31294WAT     H294125   4.180   1.348   3.095
31295WAT      O94126   4.052   6.129   9.844
31295WAT     H194127   4.071   6.127   9.943
31295WAT     H294128   4.090   6.047   9.802
31296WAT      O94129   8.809   4.826   1.409
31296WAT     H194130   8.834   4.904   1.351
31296WAT     H294131   8.883   4.759   1.408
31297WAT      O94132   0.204   9.353   9.487
31297WAT     H194133   0.289   9.369   9.536
31297WAT     H294134   0.126   9.369   9.548
31298WAT      O94135   2.861   9.566   9.398
31298WAT     H194136   2.786   9.574   9.464
31298WAT     H294137   2.824   9.551   9.307
31299WAT      O94138   3.697   8.823   5.021
31299WAT     H194139   3.611   8.778   5.043
31299WAT     H294140   3.760   8.814   5.098
31300WAT      O94141   2.586   7.035   9.202
31300WAT     H194142   2.503   7.001   9.245
31300WAT     H294143   2.562   7.100   9.129
31301WAT      O94144   7.030   0.493   0.671
31301WAT     H194145   7.063   0.487   0.576
31301WAT     H294146   7.036   0.588   0.702
31302WAT      O94147   8.920   4.572   4.622
31302WAT     H194148   8.842   4.635   4.618
31302WAT     H294149   8.918   4.522   4.709
31303WAT      O94150   7.691   4.895   8.529
31303WAT     H194151   7.723   4.848   8.446
31303WAT     H294152   7.746   4.867   8.607
31304WAT      O94153   7.388   6.689   9.395
31304WAT     H194154   7.349   6.625   9.329
31304WAT     H294155   7.486   6.675   9.401
31305WAT      O94156   3.103   3.473   1.984
31305WAT     H194157   3.166   3.518   1.920
31305WAT     H294158   3.079   3.536   2.057
31306WAT      O94159   0.257   2.404   7.647
31306WAT     H194160   0.331   2.337   7.650
31306WAT     H294161   0.189   2.375   7.579
31307WAT      O94162   8.518   6.858   2.456
31307WAT     H194163   8.567   6.939   2.423
31307WAT     H294164   8.447   6.834   2.391
31308WAT      O94165   0.668   8.911   4.488
31308WAT     H194166   0.640   8.857   4.567
31308WAT     H294167   0.594   8.972   4.460
31309WAT      O94168   9.051   4.536   9.594
31309WAT     H194169   9.121   4.470   9.621
31309WAT     H294170   9.094   4.624   9.574
31310WAT      O94171   8.609   7.300   3.953
31310WAT     H194172   8.662   7.339   4.029
31310WAT     H294173   8.657   7.218   3.918
31311WAT      O94174   4.771   5.533   9.637
31311WAT     H194175   4.762   5.435   9.657
31311WAT     H294176   4.867   5.558   9.633
31312WAT      O94177   0.384   0.683   6.233
31312WAT     H194178   0.296   0.660   6.190
31312WAT     H294179   0.367   0.729   6.320
31313WAT      O94180   3.449   8.251   1.942
31313WAT     H194181   3.489   8.251   2.033
31313WAT     H294182   3.380   8.178   1.935
31314WAT      O94183   6.520   5.128   5.808
31314WAT     H194184   6.514   5.142   5.709
31314WAT     H294185   6.609   5.089   5.831
31315WAT      O94186   3.591   2.974   3.638
31315WAT     H194187   3.637   3.063   3.645
31315WAT     H294188   3.650   2.903   3.676
31316WAT      O94189   8.719   9.583   5.171
31316WAT     H194190   8.795   9.637   5.135
31316WAT     H294191   8.680   9.631   5.250
31317WAT      O94192   7.077   7.830   9.842
31317WAT     H194193   7.159   7.800   9.794
31317WAT     H294194   7.099   7.852   9.937
31318WAT      O94195   1.082   5.552   9.230
31318WAT     H194196   1.065   5.469   9.281
31318WAT     H294197   1.041   5.545   9.139
31319WAT      O94198   7.717   2.575   4.119
31319WAT     H194199   7.740   2.627   4.201
31319WAT     H294200   7.630   2.527   4.134
31320WAT      O94201   8.081   7.356   5.515
31320WAT     H194202   8.019   7.280   5.535
31320WAT     H294203   8.096   7.409   5.599
31321WAT      O94204   4.209   8.380   1.483
31321WAT     H194205   4.154   8.431   1.549
31321WAT     H294206   4.211   8.430   1.396
31322WAT      O94207   9.179   8.382   9.507
31322WAT     H194208   9.257   8.420   9.557
31322WAT     H294209   9.196   8.285   9.487
31323WAT      O94210   8.617   2.288   9.203
31323WAT     H194211   8.629   2.261   9.108
31323WAT     H294212   8.627   2.388   9.211
31324WAT      O94213   0.972   2.366   4.039
31324WAT     H194214   0.936   2.399   4.126
31324WAT     H294215   0.954   2.268   4.031
31325WAT      O94216   5.501   1.280   2.996
31325WAT     H194217   5.491   1.205   2.930
31325WAT     H294218   5.412   1.300   3.037
31326WAT      O94219   2.000   0.300   0.920
31326WAT     H194220   1.925   0.324   0.859
31326WAT     H294221   1.994   0.355   1.004
31327WAT      O94222   8.567   1.472   4.765
31327WAT     H194223   8.573   1.459   4.864
31327WAT     H294224   8.651   1.515   4.732
31328WAT      O94225   5.045   4.886   9.016
31328WAT     H194226   5.087   4.977   9.008
31328WAT     H294227   5.026   4.867   9.113
31329WAT      O94228   7.086   3.564   4.025
31329WAT     H194229   7.169   3.510   4.014
31329WAT     H294230   7.014   3.528   3.965
31330WAT      O94231   7.009   7.735   4.056
31330WAT     H194232   7.006   7.652   4.112
31330WAT     H294233   7.101   7.773   4.059
31331WAT      O94234   3.758   3.452   7.730
31331WAT     H194235   3.672   3.420   7.690
31331WAT     H294236   3.823   3.472   7.658
31332WAT      O94237   9.840   9.712   2.030
31332WAT     H194238   9.786   9.648   1.976
31332WAT     H294239   9.932   9.675   2.043
31333WAT      O94240   5.522   6.787   3.231
31333WAT     H194241   5.545   6.857   3.298
31333WAT     H294242   5.603   6.734   3.208
31334WAT      O94243   2.850   7.218   6.878
31334WAT     H194244   2.784   7.190   6.948
31334WAT     H294245   2.898   7.300   6.908
31335WAT      O94246   4.239   3.311   3.982
31335WAT     H194247   4.249   3.269   3.892
31335WAT     H294248   4.300   3.390   3.990
31336WAT      O94249   2.538   9.553   4.988
31336WAT     H194250   2.465   9.595   5.042
31336WAT     H294251   2.612   9.524   5.049
31337WAT      O94252   2.485   8.473   9.181
31337WAT     H194253   2.553   8.441   9.116
31337WAT     H294254   2.437   8.395   9.220
31338WAT      O94255   3.205   1.964   7.694
31338WAT     H194256   3.245   1.873   7.701
31338WAT     H294257   3.208   2.009   7.783
31339WAT      O94258   3.437   6.346   1.526
31339WAT     H194259   3.498   6.268   1.537
31339WAT     H294260   3.352   6.316   1.481
31340WAT      O94261   9.496   1.224   8.281
31340WAT     H194262   9.456   1.137   8.309
31340WAT     H294263   9.460   1.298   8.337
31341WAT      O94264   2.827   9.648   8.945
31341WAT     H194265   2.917   9.682   8.970
31341WAT     H294266   2.767   9.725   8.924
31342WAT      O94267   2.685   8.568   0.899
31342WAT     H194268   2.760   8.627   0.927
31342WAT     H294269   2.607   8.581   0.961
31343WAT      O94270   1.769   7.915   0.983
31343WAT     H194271   1.799   7.884   0.893
31343WAT     H294272   1.677   7.954   0.975
31344WAT      O94273   1.212   0.515   5.790
31344WAT     H194274   1.158   0.584   5.741
31344WAT     H294275   1.173   0.425   5.773
31345WAT      O94276   7.478   8.341   0.730
31345WAT     H194277   7.388   8.342   0.686
31345WAT     H294278   7.469   8.370   0.825
31346WAT      O94279   5.036   4.658   6.278
31346WAT     H194280   4.951   4.622   6.318
31346WAT     H294281   5.054   4.611   6.192
31347WAT      O94282   8.292   4.337   7.925
31347WAT     H194283   8.345   4.259   7.957
31347WAT     H294284   8.320   4.360   7.831
31348WAT      O94285   3.546   5.140   3.670
31348WAT     H194286   3.512   5.134   3.764
31348WAT     H294287   3.475   5.178   3.611
31349WAT      O94288   5.510   1.226   9.465
31349WAT     H194289   5.432   1.167   9.488
31349WAT     H294290   5.541   1.273   9.547
31350WAT      O94291   9.813   7.674   5.042
31350WAT     H194292   9.734   7.637   5.091
31350WAT     H294293   9.871   7.599   5.010
31351WAT      O94294   8.644   1.832   9.731
31351WAT     H194295   8.581   1.779   9.789
31351WAT     H294296   8.698   1.769   9.676
31352WAT      O94297   1.262   6.912   5.503
31352WAT     H194298   1.349   6.889   5.545
31352WAT     H294299   1.274   6.991   5.442
31353WAT      O94300   3.846   0.480   3.772
31353WAT     H194301   3.931   0.533   3.777
31353WAT     H294302   3.862   0.388   3.808
31354WAT      O94303   8.245   2.160   4.300
31354WAT     H194304   8.270   2.071   4.340
31354WAT     H294305   8.171   2.200   4.354
31355WAT      O94306   4.728   7.822   4.058
31355WAT     H194307   4.787   7.857   3.985
31355WAT     H294308   4.761   7.855   4.146
31356WAT      O94309   4.795   1.635   4.278
31356WAT     H194310   4.737   1.568   4.324
31356WAT     H294311   4.812   1.606   4.184
31357WAT      O94312   4.740   6.252   1.899
31357WAT     H194313   4.719   6.244   1.997
31357WAT     H294314   4.770   6.164   1.863
31358WAT      O94315   4.387   0.673   1.368
31358WAT     H194316   4.306   0.629   1.328
31358WAT     H294317   4.383   0.771   1.350
31359WAT      O94318   1.023   7.484   7.565
31359WAT     H194319   1.098   7.494   7.500
31359WAT     H294320   1.037   7.401   7.620
31360WAT      O94321   5.346   5.810   2.520
31360WAT     H194322   5.251   5.814   2.489
31360WAT     H294323   5.380   5.903   2.536
31361WAT      O94324   1.096   5.133   1.254
31361WAT     H194325   1.163   5.063   1.229
31361WAT     H294326   1.032   5.146   1.178
31362WAT      O94327   3.323   9.583   9.529
31362WAT     H194328   3.259   9.509   9.548
31362WAT     H294329   3.273   9.661   9.491
31363WAT      O94330   1.207   2.903   9.170
31363WAT     H194331   1.227   2.909   9.072
31363WAT     H294332   1.272   2.960   9.221
31364WAT      O94333   7.424   4.485   8.224
31364WAT     H194334   7.402   4.429   8.144
31364WAT     H294335   7.424   4.428   8.305
31365WAT      O94336   2.786   0.269   8.148
31365WAT     H194337   2.696   0.269   8.191
31365WAT     H294338   2.780   0.306   8.056
31366WAT      O94339   1.091   4.960   8.254
31366WAT     H194340   1.062   4.893   8.185
31366WAT     H294341   1.049   4.939   8.341
31367WAT      O94342   5.872   1.679   6.793
31367WAT     H194343   5.852   1.740   6.870
31367WAT     H294344   5.964   1.640   6.805
31368WAT      O94345   4.779   7.348   7.554
31368WAT     H194346   4.746   7.278   7.617
31368WAT     H294347   4.876   7.332   7.535
31369WAT      O94348   0.788   8.200   6.749
31369WAT     H194349   0.786   8.114   6.698
31369WAT     H294350   0.880   8.239   6.744
31370WAT      O94351   2.205   0.319   9.351
31370WAT     H194352   2.250   0.377   9.283
31370WAT     H294353   2.271   0.292   9.421
31371WAT      O94354   0.192   7.768   2.168
31371WAT     H194355   0.268   7.724   2.217
31371WAT     H294356   0.189   7.732   2.075
31372WAT      O94357   8.090   7.895   8.809
31372WAT     H194358   8.035   7.931   8.884
31372WAT     H294359   8.063   7.939   8.723
31373WAT      O94360   3.889   0.598   2.617
31373WAT     H194361   3.894   0.499   2.604
31373WAT     H294362   3.923   0.622   2.708
31374WAT      O94363   1.332   1.524   3.689
31374WAT     H194364   1.310   1.437   3.646
31374WAT     H294365   1.358   1.508   3.785
31375WAT      O94366   9.621   6.319   9.664
31375WAT     H194367   9.606   6.343   9.568
31375WAT     H294368   9.657   6.399   9.713
31376WAT      O94369   9.744   9.446   4.568
31376WAT     H194370   9.727   9.464   4.472
31376WAT     H294371   9.829   9.490   4.596
31377WAT      O94372   8.031   5.044   6.658
31377WAT     H194373   8.065   5.101   6.733
31377WAT     H294374   7.986   4.963   6.695
31378WAT      O94375   3.472   5.883   1.760
31378WAT     H194376   3.383   5.927   1.769
31378WAT     H294377   3.468   5.816   1.685
31379WAT      O94378   9.274   7.640   4.547
31379WAT     H194379   9.367   7.663   4.576
31379WAT     H294380   9.214   7.639   4.627
31380WAT      O94381   2.667   4.365   6.388
31380WAT     H194382   2.676   4.423   6.306
31380WAT     H294383   2.736   4.293   6.386
31381WAT      O94384   9.414   2.547   7.712
31381WAT     H194385   9.367   2.490   7.780
31381WAT     H294386   9.443   2.490   7.635
31382WAT      O94387   4.187   1.946   9.780
31382WAT     H194388   4.177   1.969   9.684
31382WAT     H294389   4.244   2.014   9.826
31383WAT      O94390   3.092   0.481   6.257
31383WAT     H194391   3.076   0.566   6.206
31383WAT     H294392   3.117   0.504   6.351
31384WAT      O94393   4.298   5.082   0.562
31384WAT     H194394   4.258   5.140   0.634
31384WAT     H294395   4.234   5.009   0.540
31385WAT      O94396   1.916   9.518   3.524
31385WAT     H194397   1.968   9.596   3.559
31385WAT     H294398   1.971   9.435   3.533
31386WAT      O94399   3.571   7.762   6.406
31386WAT     H194400   3.580   7.770   6.307
31386WAT     H294401   3.515   7.837   6.441
31387WAT      O94402   8.604   9.226   0.186
31387WAT     H194403   8.646   9.157   0.126
31387WAT     H294404   8.669   9.252   0.257
31388WAT      O94405   4.062   7.469   2.880
31388WAT     H194406   4.044   7.381   2.924
31388WAT     H294407   4.055   7.458   2.781
31389WAT      O94408   4.529   9.198   1.751
31389WAT     H194409   4.536   9.170   1.655
31389WAT     H294410   4.454   9.263   1.762
31390WAT      O94411   4.134   0.110   9.519
31390WAT     H194412   4.101   0.015   9.516
31390WAT     H294413   4.070   0.169   9.471
31391WAT      O94414   8.425   7.457   5.079
31391WAT     H194415   8.376   7.395   5.141
31391WAT     H294416   8.362   7.526   5.045
31392WAT      O94417   2.531   3.279   2.006
31392WAT     H194418   2.532   3.185   2.038
31392WAT     H294419   2.590   3.288   1.925
31393WAT      O94420   3.951   3.295   2.649
31393WAT     H194421   3.858   3.329   2.663
31393WAT     H294422   3.967   3.217   2.710
31394WAT      O94423   0.346   2.812   2.791
31394WAT     H194424   0.408   2.762   2.852
31394WAT     H294425   0.397   2.845   2.711
31395WAT      O94426   7.774   9.248   7.346
31395WAT     H194427   7.714   9.252   7.266
31395WAT     H294428   7.821   9.335   7.358
31396WAT      O94429   8.451   3.789   6.090
31396WAT     H194430   8.468   3.691   6.105
31396WAT     H294431   8.356   3.809   6.113
31397WAT      O94432   4.216   3.005   1.583
31397WAT     H194433   4.169   2.982   1.668
31397WAT     H294434   4.165   2.968   1.505
31398WAT      O94435   4.829   9.682   2.543
31398WAT     H194436   4.818   9.651   2.637
31398WAT     H294437   4.923   9.668   2.514
31399WAT      O94438   1.693   7.777   8.950
31399WAT     H194439   1.742   7.858   8.919
31399WAT     H294440   1.745   7.695   8.925
31400WAT      O94441   5.569   0.454   8.025
31400WAT     H194442   5.568   0.371   7.970
31400WAT     H294443   5.507   0.442   8.103
31401WAT      O94444   6.763   5.444   6.536
31401WAT     H194445   6.676   5.485   6.510
31401WAT     H294446   6.754   5.345   6.541
31402WAT      O94447   7.755   4.119   3.823
31402WAT     H194448   7.843   4.166   3.834
31402WAT     H294449   7.761   4.055   3.745
31403WAT      O94450   2.978   3.880   9.250
31403WAT     H194451   2.976   3.891   9.151
31403WAT     H294452   2.957   3.968   9.294
31404WAT      O94453   4.660   9.654   5.634
31404WAT     H194454   4.609   9.632   5.551
31404WAT     H294455   4.605   9.631   5.714
31405WAT      O94456   5.094   2.267   6.252
31405WAT     H194457   5.007   2.218   6.256
31405WAT     H294458   5.078   2.365   6.267
31406WAT      O94459   4.690   6.579   8.944
31406WAT     H194460   4.687   6.670   8.902
31406WAT     H294461   4.756   6.580   9.020
31407WAT      O94462   7.843   5.468   3.328
31407WAT     H194463   7.779   5.410   3.377
31407WAT     H294464   7.793   5.523   3.261
31408WAT      O94465   7.346   9.799   8.811
31408WAT     H194466   7.410   9.739   8.860
31408WAT     H294467   7.339   9.886   8.858
31409WAT      O94468   0.480   1.424   3.255
31409WAT     H194469   0.386   1.458   3.265
31409WAT     H294470   0.542   1.484   3.307
31410WAT      O94471   1.695   7.039   0.982
31410WAT     H194472   1.650   6.950   0.993
31410WAT     H294473   1.788   7.033   1.018
31411WAT      O94474   8.567   3.252   7.061
31411WAT     H194475   8.644   3.288   7.009
31411WAT     H294476   8.486   3.307   7.044
31412WAT      O94477   0.367   8.769   6.326
31412WAT     H194478   0.403   8.742   6.237
31412WAT     H294479   0.435   8.748   6.397
31413WAT      O94480   4.206   0.451   9.871
31413WAT     H194481   4.193   0.524   9.939
31413WAT     H294482   4.239   0.491   9.785
31414WAT      O94483   9.619   0.665   0.346
31414WAT     H194484   9.562   0.716   0.281
31414WAT     H294485   9.715   0.691   0.335
31415WAT      O94486   4.048   3.919   5.131
31415WAT     H194487   4.087   3.853   5.068
31415WAT     H294488   4.109   3.998   5.139
31416WAT      O94489   3.525   0.064   6.266
31416WAT     H194490   3.562  -0.010   6.323
31416WAT     H294491   3.487   0.025   6.182
31417WAT      O94492   4.999   3.973   6.443
31417WAT     H194493   4.988   4.021   6.530
31417WAT     H294494   4.910   3.949   6.406
31418WAT      O94495   4.915   5.225   9.128
31418WAT     H194496   4.953   5.261   9.043
31418WAT     H294497   4.819   5.202   9.115
31419WAT      O94498   1.648   6.090   8.727
31419WAT     H194499   1.686   6.157   8.663
31419WAT     H294500   1.719   6.025   8.754
31420WAT      O94501   0.468   0.217   7.597
31420WAT     H194502   0.512   0.127   7.585
31420WAT     H294503   0.538   0.285   7.620
31421WAT      O94504   1.580   1.386   2.948
31421WAT     H194505   1.631   1.333   3.016
31421WAT     H294506   1.582   1.338   2.860
31422WAT      O94507   5.867   4.424   5.209
31422WAT     H194508   5.943   4.360   5.201
31422WAT     H294509   5.863   4.461   5.302
31423WAT      O94510   7.177   6.844   3.325
31423WAT     H194511   7.196   6.942   3.322
31423WAT     H294512   7.236   6.796   3.260
31424WAT      O94513   2.965   9.206   1.401
31424WAT     H194514   2.929   9.283   1.454
31424WAT     H294515   3.047   9.236   1.351
31425WAT      O94516   6.310   9.494   9.773
31425WAT     H194517   6.327   9.564   9.843
31425WAT     H294518   6.245   9.530   9.706
31426WAT      O94519   3.704   4.716   1.341
31426WAT     H194520   3.612   4.718   1.381
31426WAT     H294521   3.771   4.742   1.410
31427WAT      O94522   0.001   0.090   5.141
31427WAT     H194523   0.093   0.067   5.111
31427WAT     H294524  -0.024   0.032   5.220
31428WAT      O94525   8.959   2.490   7.568
31428WAT     H194526   9.027   2.459   7.502
31428WAT     H294527   9.005   2.529   7.648
31429WAT      O94528   0.458   2.293   1.944
31429WAT     H194529   0.471   2.332   2.035
31429WAT     H294530   0.402   2.210   1.950
31430WAT      O94531   7.549   4.718   2.688
31430WAT     H194532   7.621   4.663   2.730
31430WAT     H294533   7.506   4.776   2.757
31431WAT      O94534   1.756   5.246   6.657
31431WAT     H194535   1.848   5.215   6.682
31431WAT     H294536   1.744   5.236   6.558
31432WAT      O94537   3.692   3.395   2.723
31432WAT     H194538   3.639   3.342   2.657
31432WAT     H294539   3.630   3.440   2.787
31433WAT      O94540   6.284   6.265   6.191
31433WAT     H194541   6.263   6.334   6.121
31433WAT     H294542   6.315   6.181   6.146
31434WAT      O94543   1.030   7.460   8.604
31434WAT     H194544   0.981   7.493   8.523
31434WAT     H294545   0.969   7.461   8.683
31435WAT      O94546   2.391   9.497   6.204
31435WAT     H194547   2.486   9.465   6.205
31435WAT     H294548   2.346   9.466   6.120
31436WAT      O94549   7.720   7.620   4.036
31436WAT     H194550   7.692   7.659   3.948
31436WAT     H294551   7.797   7.672   4.072
31437WAT      O94552   0.542   0.664   7.550
31437WAT     H194553   0.564   0.734   7.482
31437WAT     H294554   0.443   0.650   7.551
31438WAT      O94555   3.802   1.062   7.935
31438WAT     H194556   3.888   1.016   7.913
31438WAT     H294557   3.816   1.161   7.930
31439WAT      O94558   1.353   7.535   2.144
31439WAT     H194559   1.298   7.575   2.071
31439WAT     H294560   1.406   7.607   2.189
31440WAT      O94561   1.677   9.690   5.384
31440WAT     H194562   1.703   9.726   5.294
31440WAT     H294563   1.752   9.634   5.421
31441WAT      O94564   6.890   3.615   4.504
31441WAT     H194565   6.930   3.685   4.444
31441WAT     H294566   6.901   3.525   4.461
31442WAT      O94567   4.657   8.959   6.692
31442WAT     H194568   4.725   9.020   6.731
31442WAT     H294569   4.672   8.949   6.594
31443WAT      O94570   2.943   0.922   3.226
31443WAT     H194571   3.004   0.969   3.291
31443WAT     H294572   2.993   0.902   3.142
31444WAT      O94573   7.679   6.026   1.377
31444WAT     H194574   7.676   6.114   1.424
31444WAT     H294575   7.602   6.020   1.314
31445WAT      O94576   9.795   0.707   4.721
31445WAT     H194577   9.766   0.746   4.809
31445WAT     H294578   9.715   0.691   4.664
31446WAT      O94579   7.996   8.364   7.807
31446WAT     H194580   7.977   8.359   7.709
31446WAT     H294581   8.069   8.431   7.824
31447WAT      O94582   7.258   7.502   1.660
31447WAT     H194583   7.158   7.490   1.663
31447WAT     H294584   7.281   7.566   1.587
31448WAT      O94585   7.950   8.056   5.772
31448WAT     H194586   7.916   8.147   5.798
31448WAT     H294587   7.877   7.988   5.785
31449WAT      O94588   1.615   2.945   4.936
31449WAT     H194589   1.693   2.970   4.993
31449WAT     H294590   1.647   2.929   4.842
31450WAT      O94591   7.226   4.936   6.648
31450WAT     H194592   7.218   4.847   6.693
31450WAT     H294593   7.159   4.943   6.574
31451WAT      O94594   1.491   4.513   1.784
31451WAT     H194595   1.590   4.500   1.781
31451WAT     H294596   1.450   4.446   1.845
31452WAT      O94597   8.418   8.987   4.319
31452WAT     H194598   8.368   8.957   4.238
31452WAT     H294599   8.467   9.072   4.299
31453WAT      O94600   3.036   2.043   5.351
31453WAT     H194601   3.106   2.031   5.281
31453WAT     H294602   2.948   2.009   5.317
31454WAT      O94603   9.606   9.357   1.329
31454WAT     H194604   9.606   9.357   1.429
31454WAT     H294605   9.529   9.302   1.296
31455WAT      O94606   2.575   9.314   7.479
31455WAT     H194607   2.562   9.350   7.387
31455WAT     H294608   2.589   9.215   7.475
31456WAT      O94609   8.351   2.489   4.638
31456WAT     H194610   8.323   2.552   4.710
31456WAT     H294611   8.387   2.542   4.560
31457WAT      O94612   1.740   3.262   4.390
31457WAT     H194613   1.824   3.210   4.378
31457WAT     H294614   1.755   3.357   4.367
31458WAT      O94615   0.045   2.044   3.130
31458WAT     H194616   0.055   2.136   3.093
31458WAT     H294617  -0.029   1.997   3.082
31459WAT      O94618   6.019   7.236   3.415
31459WAT     H194619   5.976   7.184   3.489
31459WAT     H294620   6.118   7.233   3.426
31460WAT      O94621   7.148   7.119   3.364
31460WAT     H194622   7.060   7.107   3.319
31460WAT     H294623   7.209   7.171   3.304
31461WAT      O94624   1.559   3.497   1.992
31461WAT     H194625   1.541   3.400   2.007
31461WAT     H294626   1.526   3.550   2.070
31462WAT      O94627   2.926   3.188   7.387
31462WAT     H194628   2.898   3.112   7.446
31462WAT     H294629   2.870   3.188   7.304
31463WAT      O94630   3.463   2.709   1.445
31463WAT     H194631   3.496   2.709   1.540
31463WAT     H294632   3.420   2.797   1.425
31464WAT      O94633   3.153   7.153   6.579
31464WAT     H194634   3.119   7.151   6.485
31464WAT     H294635   3.108   7.227   6.629
31465WAT      O94636   3.331   6.914   8.916
31465WAT     H194637   3.404   6.903   8.984
31465WAT     H294638   3.248   6.948   8.962
31466WAT      O94639   2.503   1.568   8.336
31466WAT     H194640   2.574   1.506   8.303
31466WAT     H294641   2.413   1.535   8.307
31467WAT      O94642   4.661   8.961   4.073
31467WAT     H194643   4.653   9.059   4.055
31467WAT     H294644   4.718   8.947   4.154
31468WAT      O94645   4.198   9.270   4.689
31468WAT     H194646   4.142   9.351   4.705
31468WAT     H294647   4.219   9.226   4.777
31469WAT      O94648   5.726   3.470   4.829
31469WAT     H194649   5.757   3.495   4.737
31469WAT     H294650   5.688   3.551   4.874
31470WAT      O94651   1.215   1.364   7.123
31470WAT     H194652   1.172   1.280   7.090
31470WAT     H294653   1.246   1.351   7.217
31471WAT      O94654   7.058   9.265   5.263
31471WAT     H194655   7.062   9.337   5.195
31471WAT     H294656   6.972   9.272   5.314
31472WAT      O94657   0.478   7.493   0.335
31472WAT     H194658   0.411   7.556   0.376
31472WAT     H294659   0.563   7.497   0.387
31473WAT      O94660   5.646   7.858   5.434
31473WAT     H194661   5.621   7.770   5.395
31473WAT     H294662   5.742   7.857   5.461
31474WAT      O94663   8.927   2.270   3.176
31474WAT     H194664   8.979   2.280   3.091
31474WAT     H294665   8.848   2.212   3.160
31475WAT      O94666   4.426   7.842   8.174
31475WAT     H194667   4.485   7.848   8.255
31475WAT     H294668   4.335   7.879   8.196
31476WAT      O94669   1.363   8.391   8.171
31476WAT     H194670   1.302   8.340   8.233
31476WAT     H294671   1.373   8.341   8.085
31477WAT      O94672   0.439   8.235   6.175
31477WAT     H194673   0.347   8.197   6.186
31477WAT     H294674   0.484   8.190   6.098
31478WAT      O94675   8.832   2.377   8.188
31478WAT     H194676   8.821   2.292   8.241
31478WAT     H294677   8.781   2.450   8.232
31479WAT      O94678   4.819   8.511   6.938
31479WAT     H194679   4.875   8.430   6.951
31479WAT     H294680   4.875   8.593   6.950
31480WAT      O94681   8.896   3.461   6.071
31480WAT     H194682   8.871   3.556   6.052
31480WAT     H294683   8.859   3.434   6.160
31481WAT      O94684   8.545   5.935   2.956
31481WAT     H194685   8.561   5.981   3.043
31481WAT     H294686   8.456   5.962   2.919
31482WAT      O94687   7.994   0.105   4.699
31482WAT     H194688   8.043   0.181   4.741
31482WAT     H294689   7.965   0.132   4.607
31483WAT      O94690   9.101   2.425   2.646
31483WAT     H194691   9.007   2.441   2.676
31483WAT     H294692   9.162   2.490   2.691
31484WAT      O94693   5.215   0.886   5.776
31484WAT     H194694   5.269   0.835   5.844
31484WAT     H294695   5.158   0.954   5.822
31485WAT      O94696   4.340   4.815   6.667
31485WAT     H194697   4.241   4.801   6.656
31485WAT     H294698   4.371   4.885   6.603
31486WAT      O94699   8.642   3.622   4.347
31486WAT     H194700   8.626   3.720   4.336
31486WAT     H294701   8.574   3.584   4.410
31487WAT      O94702   4.560   9.372   1.074
31487WAT     H194703   4.471   9.348   1.112
31487WAT     H294704   4.548   9.430   0.994
31488WAT      O94705   7.111   3.095   7.944
31488WAT     H194706   7.067   3.185   7.940
31488WAT     H294707   7.080   3.040   7.866
31489WAT      O94708   8.277   4.955   8.962
31489WAT     H194709   8.312   5.035   8.914
31489WAT     H294710   8.274   4.877   8.900
31490WAT      O94711   4.323   6.237   7.802
31490WAT     H194712   4.297   6.241   7.706
31490WAT     H294713   4.374   6.152   7.819
31491WAT      O94714   3.025   2.377   7.614
31491WAT     H194715   3.049   2.287   7.577
31491WAT     H294716   2.963   2.366   7.691
31492WAT      O94717   3.145   3.925   3.901
31492WAT     H194718   3.174   4.008   3.854
31492WAT     H294719   3.226   3.878   3.937
31493WAT      O94720   1.827   8.784   5.582
31493WAT     H194721   1.768   8.830   5.648
31493WAT     H294722   1.911   8.837   5.571
31494WAT      O94723   8.165   8.046   6.463
31494WAT     H194724   8.073   8.075   6.489
31494WAT     H294725   8.200   7.981   6.531
31495WAT      O94726   8.569   5.116   6.605
31495WAT     H194727   8.601   5.026   6.636
31495WAT     H294728   8.528   5.106   6.514
31496WAT      O94729   2.639   5.457   4.327
31496WAT     H194730   2.606   5.534   4.271
31496WAT     H294731   2.581   5.448   4.408
31497WAT      O94732   7.412   9.063   3.812
31497WAT     H194733   7.337   9.125   3.793
31497WAT     H294734   7.420   8.995   3.740
31498WAT      O94735   3.387   5.846   7.307
31498WAT     H194736   3.443   5.803   7.378
31498WAT     H294737   3.422   5.822   7.217
31499WAT      O94738   9.523   9.844   5.764
31499WAT     H194739   9.486   9.751   5.771
31499WAT     H294740   9.615   9.840   5.726
31500WAT      O94741   5.341   2.195   7.226
31500WAT     H194742   5.349   2.190   7.127
31500WAT     H294743   5.267   2.258   7.250
31501WAT      O94744   9.687   2.797   0.827
31501WAT     H194745   9.605   2.803   0.770
31501WAT     H294746   9.704   2.701   0.851
31502WAT      O94747   5.195   9.616   3.263
31502WAT     H194748   5.113   9.648   3.215
31502WAT     H294749   5.267   9.596   3.196
31503WAT      O94750   8.331   6.864   4.841
31503WAT     H194751   8.260   6.860   4.770
31503WAT     H294752   8.292   6.901   4.925
31504WAT      O94753   5.993   2.468   9.775
31504WAT     H194754   6.090   2.474   9.800
31504WAT     H294755   5.951   2.558   9.785
31505WAT      O94756   6.271   7.749   9.755
31505WAT     H194757   6.350   7.790   9.801
31505WAT     H294758   6.225   7.685   9.817
31506WAT      O94759   4.228   7.147   6.518
31506WAT     H194760   4.164   7.071   6.520
31506WAT     H294761   4.322   7.111   6.518
31507WAT      O94762   0.629   4.343   3.291
31507WAT     H194763   0.696   4.374   3.223
31507WAT     H294764   0.583   4.261   3.256
31508WAT      O94765   9.246   1.098   1.915
31508WAT     H194766   9.290   1.170   1.860
31508WAT     H294767   9.276   1.105   2.010
31509WAT      O94768   6.783   3.559   7.347
31509WAT     H194769   6.725   3.511   7.413
31509WAT     H294770   6.879   3.540   7.368
31510WAT      O94771   2.586   4.440   2.953
31510WAT     H194772   2.519   4.384   2.905
31510WAT     H294773   2.671   4.389   2.964
31511WAT      O94774   6.685   3.715   8.255
31511WAT     H194775   6.627   3.744   8.331
31511WAT     H294776   6.747   3.643   8.285
31512WAT      O94777   7.508   5.982   0.468
31512WAT     H194778   7.459   5.898   0.446
31512WAT     H294779   7.578   5.999   0.399
31513WAT      O94780   4.444   0.809   3.707
31513WAT     H194781   4.379   0.821   3.632
31513WAT     H294782   4.521   0.752   3.677
31514WAT      O94783   9.889   6.241   5.451
31514WAT     H194784   9.812   6.257   5.389
31514WAT     H294785   9.955   6.316   5.442
31515WAT      O94786   8.526   9.673   6.553
31515WAT     H194787   8.571   9.719   6.629
31515WAT     H294788   8.543   9.723   6.469
31516WAT      O94789   4.929   2.246   4.985
31516WAT     H194790   4.894   2.178   4.921
31516WAT     H294791   4.856   2.275   5.047
31517WAT      O94792   5.229   6.787   7.506
31517WAT     H194793   5.140   6.786   7.551
31517WAT     H294794   5.253   6.882   7.483
31518WAT      O94795   0.965   1.699   6.432
31518WAT     H194796   0.897   1.753   6.481
31518WAT     H294797   1.017   1.758   6.371
31519WAT      O94798   4.801   0.586   4.824
31519WAT     H194799   4.738   0.519   4.784
31519WAT     H294800   4.874   0.538   4.873
31520WAT      O94801   9.709   3.397   3.771
31520WAT     H194802   9.690   3.483   3.818
31520WAT     H294803   9.798   3.403   3.726
31521WAT      O94804   0.236   3.513   8.666
31521WAT     H194805   0.331   3.481   8.656
31521WAT     H294806   0.176   3.435   8.681
31522WAT      O94807   9.187   6.125   8.353
31522WAT     H194808   9.097   6.167   8.360
31522WAT     H294809   9.178   6.025   8.362
31523WAT      O94810   1.067   8.651   0.578
31523WAT     H194811   1.043   8.697   0.493
31523WAT     H294812   1.112   8.716   0.640
31524WAT      O94813   8.494   5.954   9.149
31524WAT     H194814   8.512   6.042   9.104
31524WAT     H294815   8.574   5.927   9.203
31525WAT      O94816   1.446   0.562   3.623
31525WAT     H194817   1.346   0.551   3.619
31525WAT     H294818   1.472   0.644   3.573
31526WAT      O94819   3.416   7.900   7.215
31526WAT     H194820   3.320   7.928   7.219
31526WAT     H294821   3.456   7.908   7.307
31527WAT      O94822   8.541   6.277   6.246
31527WAT     H194823   8.456   6.330   6.248
31527WAT     H294824   8.525   6.191   6.198
31528WAT      O94825   6.980   7.075   9.395
31528WAT     H194826   7.007   7.158   9.346
31528WAT     H294827   7.057   7.011   9.397
31529WAT      O94828   3.462   8.803   8.985
31529WAT     H194829   3.539   8.812   9.048
31529WAT     H294830   3.377   8.797   9.036
31530WAT      O94831   8.095   5.949   1.349
31530WAT     H194832   8.016   5.890   1.335
31530WAT     H294833   8.120   5.992   1.262
31531WAT      O94834   2.591   0.302   8.801
31531WAT     H194835   2.581   0.273   8.897
31531WAT     H294836   2.687   0.316   8.781
31532WAT      O94837   1.003   4.896   0.310
31532WAT     H194838   1.094   4.927   0.339
31532WAT     H294839   0.997   4.900   0.211
31533WAT      O94840   0.655   4.395   2.768
31533WAT     H194841   0.592   4.380   2.844
31533WAT     H294842   0.642   4.486   2.731
31534WAT      O94843   6.572   0.308   2.510
31534WAT     H194844   6.477   0.339   2.507
31534WAT     H294845   6.579   0.218   2.466
31535WAT      O94846   0.924   4.080   0.674
31535WAT     H194847   0.972   4.165   0.697
31535WAT     H294848   0.834   4.103   0.637
31536WAT      O94849   9.710   7.017   5.015
31536WAT     H194850   9.658   7.088   5.064
31536WAT     H294851   9.808   7.039   5.018
31537WAT      O94852   3.628   5.145   1.840
31537WAT     H194853   3.565   5.123   1.766
31537WAT     H294854   3.701   5.205   1.806
31538WAT      O94855   3.283   5.330   5.447
31538WAT     H194856   3.290   5.366   5.354
31538WAT     H294857   3.253   5.403   5.508
31539WAT      O94858   9.695   5.586   7.809
31539WAT     H194859   9.660   5.674   7.844
31539WAT     H294860   9.621   5.536   7.765
31540WAT      O94861   7.500   7.570   6.076
31540WAT     H194862   7.442   7.488   6.072
31540WAT     H294863   7.473   7.632   6.002
31541WAT      O94864   2.338   8.064   6.609
31541WAT     H194865   2.370   8.109   6.525
31541WAT     H294866   2.306   7.972   6.587
31542WAT      O94867   4.745   1.102   3.516
31542WAT     H194868   4.778   1.143   3.601
31542WAT     H294869   4.822   1.088   3.454
31543WAT      O94870   2.041   5.544   8.759
31543WAT     H194871   2.048   5.509   8.852
31543WAT     H294872   2.132   5.559   8.722
31544WAT      O94873   7.277   1.287   1.714
31544WAT     H194874   7.286   1.187   1.719
31544WAT     H294875   7.214   1.311   1.641
31545WAT      O94876   0.586   9.023   6.362
31545WAT     H194877   0.575   8.928   6.391
31545WAT     H294878   0.677   9.035   6.322
31546WAT      O94879   1.829   5.401   1.613
31546WAT     H194880   1.871   5.485   1.576
31546WAT     H294881   1.743   5.424   1.658
31547WAT      O94882   2.650   7.517   6.877
31547WAT     H194883   2.659   7.482   6.970
31547WAT     H294884   2.714   7.592   6.863
31548WAT      O94885   0.491   3.445   8.632
31548WAT     H194886   0.534   3.536   8.638
31548WAT     H294887   0.512   3.404   8.544
31549WAT      O94888   9.101   1.364   4.093
31549WAT     H194889   9.169   1.305   4.050
31549WAT     H294890   9.030   1.307   4.136
31550WAT      O94891   6.544   4.893   6.622
31550WAT     H194892   6.612   4.895   6.695
31550WAT     H294893   6.590   4.875   6.535
31551WAT      O94894   0.861   0.674   6.079
31551WAT     H194895   0.864   0.760   6.131
31551WAT     H294896   0.812   0.689   5.994
31552WAT      O94897   8.107   4.703   9.345
31552WAT     H194898   8.161   4.727   9.426
31552WAT     H294899   8.016   4.673   9.374
31553WAT      O94900   9.163   9.761   2.394
31553WAT     H194901   9.202   9.802   2.476
31553WAT     H294902   9.156   9.830   2.322
31554WAT      O94903   5.791   9.217   9.168
31554WAT     H194904   5.723   9.192   9.099
31554WAT     H294905   5.818   9.312   9.155
31555WAT      O94906   2.680   8.753   3.267
31555WAT     H194907   2.660   8.677   3.205
31555WAT     H294908   2.682   8.719   3.361
31556WAT      O94909   3.064   1.344   6.808
31556WAT     H194910   3.138   1.343   6.741
31556WAT     H294911   3.043   1.250   6.835
31557WAT      O94912   0.885   3.016   0.914
31557WAT     H194913   0.955   3.030   0.984
31557WAT     H294914   0.849   2.923   0.922
31558WAT      O94915   3.291   4.164   6.014
31558WAT     H194916   3.254   4.072   6.001
31558WAT     H294917   3.287   4.214   5.927
31559WAT      O94918   3.290   0.703   0.174
31559WAT     H194919   3.308   0.612   0.138
31559WAT     H294920   3.204   0.703   0.225
31560WAT      O94921   7.017   5.013   3.516
31560WAT     H194922   7.050   4.920   3.498
31560WAT     H294923   6.943   5.010   3.583
31561WAT      O94924   0.594   4.138   2.154
31561WAT     H194925   0.642   4.138   2.242
31561WAT     H294926   0.561   4.230   2.134
31562WAT      O94927   7.024   0.250   1.598
31562WAT     H194928   7.116   0.211   1.611
31562WAT     H294929   6.962   0.211   1.666
31563WAT      O94930   4.415   3.780   7.445
31563WAT     H194931   4.450   3.775   7.539
31563WAT     H294932   4.380   3.872   7.427
31564WAT      O94933   5.693   3.862   7.557
31564WAT     H194934   5.698   3.823   7.649
31564WAT     H294935   5.666   3.791   7.491
31565WAT      O94936   2.706   8.596   7.266
31565WAT     H194937   2.612   8.567   7.249
31565WAT     H294938   2.716   8.693   7.245
31566WAT      O94939   7.609   4.649   9.055
31566WAT     H194940   7.597   4.562   9.103
31566WAT     H294941   7.672   4.707   9.105
31567WAT      O94942   5.466   1.545   4.361
31567WAT     H194943   5.389   1.579   4.307
31567WAT     H294944   5.515   1.475   4.309
31568WAT      O94945   2.170   8.757   0.192
31568WAT     H194946   2.217   8.844   0.203
31568WAT     H294947   2.128   8.753   0.101
31569WAT      O94948   5.857   9.523   9.686
31569WAT     H194949   5.817   9.492   9.600
31569WAT     H294950   5.857   9.448   9.752
31570WAT      O94951   4.934   5.261   3.386
31570WAT     H194952   4.900   5.229   3.298
31570WAT     H294953   4.865   5.245   3.456
31571WAT      O94954   9.410   0.124   3.309
31571WAT     H194955   9.315   0.141   3.283
31571WAT     H294956   9.417   0.034   3.352
31572WAT      O94957   2.718   5.678   4.647
31572WAT     H194958   2.645   5.609   4.641
31572WAT     H294959   2.736   5.715   4.556
31573WAT      O94960   6.665   2.115   3.359
31573WAT     H194961   6.756   2.156   3.348
31573WAT     H294962   6.643   2.060   3.279
31574WAT      O94963   1.510   2.107   3.143
31574WAT     H194964   1.495   2.011   3.167
31574WAT     H294965   1.608   2.126   3.141
31575WAT      O94966   0.842   7.785   1.349
31575WAT     H194967   0.934   7.815   1.373
31575WAT     H294968   0.830   7.790   1.250
31576WAT      O94969   2.606   0.186   1.575
31576WAT     H194970   2.571   0.096   1.601
31576WAT     H294971   2.705   0.182   1.562
31577WAT      O94972   2.979   0.671   2.121
31577WAT     H194973   2.903   0.728   2.090
31577WAT     H294974   3.065   0.704   2.081
31578WAT      O94975   2.979   1.380   0.204
31578WAT     H194976   2.888   1.343   0.222
31578WAT     H294977   2.977   1.434   0.121
31579WAT      O94978   0.825   9.809   6.345
31579WAT     H194979   0.800   9.816   6.441
31579WAT     H294980   0.753   9.762   6.294
31580WAT      O94981   5.088   0.708   0.104
31580WAT     H194982   5.004   0.762   0.096
31580WAT     H294983   5.125   0.690   0.012
31581WAT      O94984   6.318   6.693   3.736
31581WAT     H194985   6.220   6.673   3.743
31581WAT     H294986   6.351   6.729   3.824
31582WAT      O94987   8.312   8.792   6.162
31582WAT     H194988   8.263   8.785   6.075
31582WAT     H294989   8.401   8.835   6.147
31583WAT      O94990   2.360   4.136   1.779
31583WAT     H194991   2.267   4.144   1.742
31583WAT     H294992   2.420   4.200   1.730
31584WAT      O94993   7.668   8.967   1.409
31584WAT     H194994   7.686   9.062   1.434
31584WAT     H294995   7.754   8.918   1.397
31585WAT      O94996   2.864   6.732   3.605
31585WAT     H194997   2.959   6.761   3.618
31585WAT     H294998   2.858   6.675   3.523
31586WAT      O94999   8.662   6.374   5.534
31586WAT     H195000   8.718   6.454   5.512
31586WAT     H295001   8.715   6.291   5.517
31587WAT      O95002   4.797   7.783   1.924
31587WAT     H195003   4.871   7.832   1.970
31587WAT     H295004   4.830   7.693   1.894
31588WAT      O95005   5.375   2.539   2.841
31588WAT     H195006   5.279   2.515   2.827
31588WAT     H295007   5.383   2.601   2.920
31589WAT      O95008   2.119   2.682   4.713
31589WAT     H195009   2.062   2.610   4.750
31589WAT     H295010   2.095   2.769   4.755
31590WAT      O95011   0.899   3.306   6.571
31590WAT     H195012   0.895   3.206   6.572
31590WAT     H295013   0.970   3.337   6.635
31591WAT      O95014   3.685   1.581   5.686
31591WAT     H195015   3.759   1.559   5.749
31591WAT     H295016   3.616   1.510   5.690
31592WAT      O95017   5.167   8.621   3.749
31592WAT     H195018   5.162   8.583   3.656
31592WAT     H295019   5.226   8.701   3.749
31593WAT      O95020   7.511   7.915   1.398
31593WAT     H195021   7.562   7.992   1.436
31593WAT     H295022   7.455   7.873   1.470
31594WAT      O95023   1.419   0.696   9.041
31594WAT     H195024   1.518   0.700   9.057
31594WAT     H295025   1.374   0.657   9.121
31595WAT      O95026   8.536   8.995   6.694
31595WAT     H195027   8.509   8.993   6.790
31595WAT     H295028   8.526   8.903   6.655
31596WAT      O95029   2.938   2.385   8.883
31596WAT     H195030   3.026   2.357   8.920
31596WAT     H295031   2.882   2.304   8.864
31597WAT      O95032   1.733   1.372   6.030
31597WAT     H195033   1.740   1.297   6.096
31597WAT     H295034   1.728   1.335   5.938
31598WAT      O95035   3.211   9.011   7.241
31598WAT     H195036   3.293   9.043   7.287
31598WAT     H295037   3.233   8.981   7.148
31599WAT      O95038   8.424   8.397   3.531
31599WAT     H195039   8.522   8.388   3.513
31599WAT     H295040   8.388   8.311   3.565
31600WAT      O95041   7.632   4.109   9.329
31600WAT     H195042   7.718   4.132   9.284
31600WAT     H295043   7.647   4.104   9.428
31601WAT      O95044   6.126   9.722   8.988
31601WAT     H195045   6.145   9.801   8.929
31601WAT     H295046   6.204   9.659   8.985
31602WAT      O95047   3.366   0.208   7.934
31602WAT     H195048   3.425   0.279   7.896
31602WAT     H295049   3.272   0.241   7.938
31603WAT      O95050   7.576   2.208   8.188
31603WAT     H195051   7.673   2.197   8.208
31603WAT     H295052   7.561   2.294   8.140
31604WAT      O95053   7.878   8.294   1.342
31604WAT     H195054   7.897   8.379   1.293
31604WAT     H295055   7.943   8.284   1.418
31605WAT      O95056   5.188   9.707   1.911
31605WAT     H195057   5.279   9.676   1.886
31605WAT     H295058   5.184   9.807   1.905
31606WAT      O95059   4.977   9.378   8.448
31606WAT     H195060   4.916   9.457   8.445
31606WAT     H295061   5.050   9.394   8.515
31607WAT      O95062   8.980   8.682   5.535
31607WAT     H195063   8.887   8.694   5.569
31607WAT     H295064   9.005   8.585   5.541
31608WAT      O95065   2.154   8.029   4.382
31608WAT     H195066   2.087   8.050   4.453
31608WAT     H295067   2.161   8.106   4.319
31609WAT      O95068   8.905   0.164   1.871
31609WAT     H195069   8.906   0.099   1.795
31609WAT     H295070   8.923   0.116   1.957
31610WAT      O95071   2.357   2.784   0.101
31610WAT     H195072   2.446   2.743   0.124
31610WAT     H295073   2.311   2.728   0.033
31611WAT      O95074   7.925   3.000   5.813
31611WAT     H195075   7.876   3.079   5.777
31611WAT     H295076   7.875   2.963   5.892
31612WAT      O95077   0.227   3.906   0.671
31612WAT     H195078   0.288   3.964   0.726
31612WAT     H295079   0.244   3.810   0.693
31613WAT      O95080   8.946   5.620   5.170
31613WAT     H195081   8.940   5.604   5.268
31613WAT     H295082   8.988   5.540   5.126
31614WAT      O95083   4.512   1.586   1.143
31614WAT     H195084   4.473   1.562   1.054
31614WAT     H295085   4.505   1.684   1.157
31615WAT      O95086   1.747   4.901   2.834
31615WAT     H195087   1.706   4.968   2.896
31615WAT     H295088   1.759   4.941   2.744
31616WAT      O95089   2.966   4.399   3.167
31616WAT     H195090   2.891   4.451   3.210
31616WAT     H295091   3.047   4.457   3.161
31617WAT      O95092   1.132   6.181   0.727
31617WAT     H195093   1.152   6.263   0.781
31617WAT     H295094   1.218   6.134   0.706
31618WAT      O95095   5.533   0.708   8.790
31618WAT     H195096   5.612   0.649   8.775
31618WAT     H295097   5.533   0.739   8.885
31619WAT      O95098   7.369   8.418   9.662
31619WAT     H195099   7.285   8.473   9.668
31619WAT     H295100   7.438   8.469   9.612
31620WAT      O95101   9.035   5.039   1.435
31620WAT     H195102   9.081   4.973   1.494
31620WAT     H295103   8.974   5.096   1.490
31621WAT      O95104   5.545   9.547   8.337
31621WAT     H195105   5.598   9.481   8.283
31621WAT     H295106   5.592   9.562   8.424
31622WAT      O95107   0.630   1.857   6.437
31622WAT     H195108   0.553   1.869   6.499
31622WAT     H295109   0.641   1.760   6.417
31623WAT      O95110   3.461   7.199   2.473
31623WAT     H195111   3.366   7.200   2.442
31623WAT     H295112   3.511   7.127   2.425
31624WAT      O95113   5.503   8.216   5.090
31624WAT     H195114   5.432   8.156   5.055
31624WAT     H295115   5.473   8.311   5.084
31625WAT      O95116   7.176   5.928   5.779
31625WAT     H195117   7.222   5.975   5.703
31625WAT     H295118   7.091   5.976   5.800
31626WAT      O95119   9.846   4.415   0.909
31626WAT     H195120   9.887   4.502   0.936
31626WAT     H295121   9.750   4.414   0.935
31627WAT      O95122   6.740   4.691   9.239
31627WAT     H195123   6.715   4.656   9.329
31627WAT     H295124   6.789   4.778   9.249
31628WAT      O95125   3.556   4.754   6.445
31628WAT     H195126   3.473   4.736   6.498
31628WAT     H295127   3.625   4.794   6.505
31629WAT      O95128   8.552   5.032   4.088
31629WAT     H195129   8.567   5.089   4.007
31629WAT     H295130   8.621   4.960   4.092
31630WAT      O95131   2.117   3.828   5.430
31630WAT     H195132   2.072   3.862   5.513
31630WAT     H295133   2.204   3.874   5.418
31631WAT      O95134   9.353   2.625   1.138
31631WAT     H195135   9.428   2.563   1.157
31631WAT     H295136   9.377   2.718   1.168
31632WAT      O95137   4.576   8.640   3.710
31632WAT     H195138   4.570   8.563   3.773
31632WAT     H295139   4.487   8.685   3.704
31633WAT      O95140   9.149   9.168   1.363
31633WAT     H195141   9.219   9.230   1.398
31633WAT     H295142   9.179   9.073   1.375
31634WAT      O95143   9.839   0.820   5.468
31634WAT     H195144   9.851   0.867   5.555
31634WAT     H295145   9.753   0.770   5.468
31635WAT      O95146   6.250   3.733   2.078
31635WAT     H195147   6.233   3.712   2.174
31635WAT     H295148   6.193   3.674   2.021
31636WAT      O95149   8.274   4.919   3.309
31636WAT     H195150   8.337   4.867   3.367
31636WAT     H295151   8.203   4.960   3.366
31637WAT      O95152   2.481   1.732   7.733
31637WAT     H195153   2.496   1.696   7.825
31637WAT     H295154   2.569   1.750   7.689
31638WAT      O95155   7.371   1.759   0.262
31638WAT     H195156   7.287   1.780   0.212
31638WAT     H295157   7.363   1.668   0.303
31639WAT      O95158   0.953   7.891   5.853
31639WAT     H195159   0.978   7.798   5.881
31639WAT     H295160   1.006   7.916   5.772
31640WAT      O95161   1.400   0.912   8.117
31640WAT     H195162   1.351   0.912   8.205
31640WAT     H295163   1.386   1.000   8.072
31641WAT      O95164   1.752   5.560   9.289
31641WAT     H195165   1.822   5.566   9.360
31641WAT     H295166   1.708   5.649   9.278
31642WAT      O95167   9.675   0.330   7.377
31642WAT     H195168   9.712   0.296   7.291
31642WAT     H295169   9.643   0.424   7.365
31643WAT      O95170   9.388   8.975   0.655
31643WAT     H195171   9.298   8.931   0.660
31643WAT     H295172   9.377   9.071   0.630
31644WAT      O95173   4.148   0.932   5.230
31644WAT     H195174   4.057   0.900   5.257
31644WAT     H295175   4.214   0.857   5.239
31645WAT      O95176   0.604   1.239   2.842
31645WAT     H195177   0.513   1.225   2.802
31645WAT     H295178   0.671   1.250   2.768
31646WAT      O95179   4.890   7.442   1.194
31646WAT     H195180   4.853   7.352   1.216
31646WAT     H295181   4.864   7.508   1.264
31647WAT      O95182   2.693   8.029   4.220
31647WAT     H195183   2.600   8.029   4.258
31647WAT     H295184   2.696   8.088   4.139
31648WAT      O95185   9.260   2.381   0.713
31648WAT     H195186   9.297   2.410   0.801
31648WAT     H295187   9.265   2.457   0.648
31649WAT      O95188   1.527   2.377   3.298
31649WAT     H195189   1.480   2.463   3.278
31649WAT     H295190   1.522   2.317   3.219
31650WAT      O95191   2.186   9.297   9.444
31650WAT     H195192   2.232   9.353   9.512
31650WAT     H295193   2.215   9.324   9.352
31651WAT      O95194   2.562   8.239   1.348
31651WAT     H195195   2.531   8.252   1.442
31651WAT     H295196   2.538   8.147   1.317
31652WAT      O95197   6.266   1.883   2.386
31652WAT     H195198   6.287   1.788   2.361
31652WAT     H295199   6.199   1.920   2.322
31653WAT      O95200   6.408   8.943   2.207
31653WAT     H195201   6.437   9.030   2.167
31653WAT     H295202   6.321   8.955   2.254
31654WAT      O95203   6.421   9.718   5.605
31654WAT     H195204   6.429   9.619   5.615
31654WAT     H295205   6.385   9.738   5.514
31655WAT      O95206   4.261   1.598   8.697
31655WAT     H195207   4.214   1.530   8.754
31655WAT     H295208   4.357   1.602   8.722
31656WAT      O95209   7.428   0.651   4.599
31656WAT     H195210   7.332   0.629   4.585
31656WAT     H295211   7.485   0.573   4.572
31657WAT      O95212   8.978   1.823   7.961
31657WAT     H195213   9.015   1.907   7.923
31657WAT     H295214   8.878   1.827   7.961
31658WAT      O95215   3.816   7.914   4.763
31658WAT     H195216   3.904   7.892   4.721
31658WAT     H295217   3.808   7.867   4.851
31659WAT      O95218   0.369   3.647   3.418
31659WAT     H195219   0.333   3.613   3.331
31659WAT     H295220   0.454   3.599   3.440
31660WAT      O95221   4.050   2.908   9.287
31660WAT     H195222   3.985   2.902   9.363
31660WAT     H295223   4.129   2.962   9.315
31661WAT      O95224   8.059   6.030   4.533
31661WAT     H195225   8.151   6.060   4.505
31661WAT     H295226   8.066   5.945   4.586
31662WAT      O95227   2.491   1.668   8.865
31662WAT     H195228   2.527   1.638   8.953
31662WAT     H295229   2.450   1.759   8.875
31663WAT      O95230   5.531   0.329   8.900
31663WAT     H195231   5.623   0.367   8.896
31663WAT     H295232   5.496   0.335   8.994
31664WAT      O95233   6.097   3.199   3.325
31664WAT     H195234   6.139   3.193   3.235
31664WAT     H295235   6.045   3.116   3.344
31665WAT      O95236   5.280   1.270   3.129
31665WAT     H195237   5.217   1.339   3.093
31665WAT     H295238   5.250   1.241   3.220
31666WAT      O95239   6.820   6.797   2.200
31666WAT     H195240   6.761   6.763   2.273
31666WAT     H295241   6.913   6.808   2.234
31667WAT      O95242   0.675   5.643   7.875
31667WAT     H195243   0.600   5.664   7.812
31667WAT     H295244   0.678   5.710   7.948
31668WAT      O95245   8.695   0.408   7.404
31668WAT     H195246   8.743   0.406   7.316
31668WAT     H295247   8.600   0.379   7.390
31669WAT      O95248   4.089   3.707   4.946
31669WAT     H195249   4.062   3.612   4.956
31669WAT     H295250   4.042   3.747   4.867
31670WAT      O95251   0.700   2.789   9.456
31670WAT     H195252   0.609   2.749   9.456
31670WAT     H295253   0.717   2.832   9.545
31671WAT      O95254   5.150   2.978   3.710
31671WAT     H195255   5.227   3.001   3.651
31671WAT     H295256   5.118   3.061   3.756
31672WAT      O95257   3.735   2.194   4.213
31672WAT     H195258   3.793   2.250   4.272
31672WAT     H295259   3.682   2.254   4.152
31673WAT      O95260   1.557   4.264   1.141
31673WAT     H195261   1.562   4.165   1.155
31673WAT     H295262   1.610   4.289   1.060
31674WAT      O95263   4.188   3.695   7.061
31674WAT     H195264   4.170   3.619   6.998
31674WAT     H295265   4.287   3.702   7.076
31675WAT      O95266   9.091   2.456   0.218
31675WAT     H195267   9.128   2.459   0.125
31675WAT     H295268   9.018   2.524   0.227
31676WAT      O95269   4.896   1.278   9.657
31676WAT     H195270   4.950   1.256   9.575
31676WAT     H295271   4.800   1.284   9.633
31677WAT      O95272   9.015   8.455   1.665
31677WAT     H195273   9.057   8.451   1.756
31677WAT     H295274   8.932   8.400   1.665
31678WAT      O95275   7.292   4.020   6.291
31678WAT     H195276   7.197   4.017   6.260
31678WAT     H295277   7.309   3.944   6.354
31679WAT      O95278   5.404   6.386   1.391
31679WAT     H195279   5.308   6.386   1.363
31679WAT     H295280   5.412   6.349   1.483
31680WAT      O95281   5.706   7.697   5.044
31680WAT     H195282   5.798   7.736   5.055
31680WAT     H295283   5.640   7.771   5.032
31681WAT      O95284   8.912   7.542   0.340
31681WAT     H195285   8.907   7.475   0.266
31681WAT     H295286   8.822   7.582   0.355
31682WAT      O95287   0.561   7.046   3.382
31682WAT     H195288   0.514   6.966   3.344
31682WAT     H295289   0.547   7.049   3.481
31683WAT      O95290   8.171   4.917   0.574
31683WAT     H195291   8.154   4.983   0.647
31683WAT     H295292   8.168   4.964   0.486
31684WAT      O95293   4.728   0.195   3.588
31684WAT     H195294   4.648   0.167   3.535
31684WAT     H295295   4.772   0.273   3.544
31685WAT      O95296   4.772   8.818   3.320
31685WAT     H195297   4.776   8.918   3.313
31685WAT     H295298   4.805   8.777   3.235
31686WAT      O95299   6.550   0.692   5.120
31686WAT     H195300   6.584   0.630   5.190
31686WAT     H295301   6.450   0.689   5.118
31687WAT      O95302   6.521   5.683   8.410
31687WAT     H195303   6.433   5.692   8.457
31687WAT     H295304   6.592   5.662   8.477
31688WAT      O95305   9.528   7.318   4.444
31688WAT     H195306   9.536   7.272   4.532
31688WAT     H295307   9.529   7.249   4.370
31689WAT      O95308   8.678   7.760   3.144
31689WAT     H195309   8.685   7.857   3.119
31689WAT     H295310   8.754   7.710   3.101
31690WAT      O95311   4.964   0.971   6.363
31690WAT     H195312   4.986   1.061   6.326
31690WAT     H295313   4.967   0.903   6.289
31691WAT      O95314   4.964   9.175   7.016
31691WAT     H195315   5.051   9.197   7.060
31691WAT     H295316   4.959   9.076   7.001
31692WAT      O95317   2.039   2.406   2.460
31692WAT     H195318   2.029   2.465   2.380
31692WAT     H295319   2.121   2.433   2.511
31693WAT      O95320   3.656   8.584   9.284
31693WAT     H195321   3.651   8.595   9.383
31693WAT     H295322   3.578   8.629   9.241
31694WAT      O95323   7.651   8.133   0.668
31694WAT     H195324   7.589   8.204   0.700
31694WAT     H295325   7.746   8.160   0.687
31695WAT      O95326   0.782   5.539   1.065
31695WAT     H195327   0.846   5.564   0.992
31695WAT     H295328   0.820   5.569   1.153
31696WAT      O95329   3.626   0.478   1.813
31696WAT     H195330   3.633   0.395   1.757
31696WAT     H295331   3.578   0.457   1.899
31697WAT      O95332   2.732   1.694   5.590
31697WAT     H195333   2.755   1.789   5.568
31697WAT     H295334   2.805   1.634   5.557
31698WAT      O95335   8.148   1.337   0.357
31698WAT     H195336   8.164   1.270   0.284
31698WAT     H295337   8.156   1.430   0.320
31699WAT      O95338   2.829   8.324   0.883
31699WAT     H195339   2.780   8.409   0.868
31699WAT     H295340   2.924   8.343   0.908
31700WAT      O95341   7.083   4.928   2.920
31700WAT     H195342   7.035   4.952   2.836
31700WAT     H295343   7.039   4.850   2.963
31701WAT      O95344   6.722   8.779   6.965
31701WAT     H195345   6.673   8.727   7.035
31701WAT     H295346   6.725   8.726   6.880
31702WAT      O95347   5.127   1.303   7.955
31702WAT     H195348   5.120   1.301   8.055
31702WAT     H295349   5.219   1.333   7.929
31703WAT      O95350   6.713   4.986   4.607
31703WAT     H195351   6.647   5.050   4.647
31703WAT     H295352   6.672   4.943   4.526
31704WAT      O95353   5.628   0.475   6.274
31704WAT     H195354   5.586   0.511   6.191
31704WAT     H295355   5.650   0.378   6.261
31705WAT      O95356   8.127   3.673   0.333
31705WAT     H195357   8.172   3.751   0.290
31705WAT     H295358   8.188   3.633   0.401
31706WAT      O95359   2.033   0.374   7.968
31706WAT     H195360   2.094   0.383   8.047
31706WAT     H295361   2.041   0.282   7.930
31707WAT      O95362   3.246   8.842   3.023
31707WAT     H195363   3.147   8.841   3.036
31707WAT     H295364   3.288   8.905   3.089
31708WAT      O95365   0.004   6.992   9.871
31708WAT     H195366  -0.014   6.926   9.944
31708WAT     H295367   0.102   7.014   9.869
31709WAT      O95368   8.570   7.994   6.643
31709WAT     H195369   8.474   7.970   6.657
31709WAT     H295370   8.583   8.092   6.658
31710WAT      O95371   4.460   6.034   8.832
31710WAT     H195372   4.430   6.087   8.911
31710WAT     H295373   4.530   5.968   8.860
31711WAT      O95374   0.421   8.659   2.531
31711WAT     H195375   0.480   8.578   2.533
31711WAT     H295376   0.349   8.650   2.599
31712WAT      O95377   9.103   7.860   8.731
31712WAT     H195378   9.042   7.819   8.663
31712WAT     H295379   9.198   7.836   8.708
31713WAT      O95380   7.077   8.917   7.969
31713WAT     H195381   7.101   8.986   7.901
31713WAT     H295382   6.993   8.870   7.941
31714WAT      O95383   7.140   9.308   2.149
31714WAT     H195384   7.184   9.311   2.239
31714WAT     H295385   7.206   9.277   2.080
31715WAT      O95386   4.341   2.177   2.362
31715WAT     H195387   4.285   2.259   2.370
31715WAT     H295388   4.348   2.150   2.265
31716WAT      O95389   1.330   0.242   5.559
31716WAT     H195390   1.243   0.277   5.593
31716WAT     H295391   1.405   0.277   5.616
31717WAT      O95392   2.676   3.052   9.203
31717WAT     H195393   2.721   3.001   9.276
31717WAT     H295394   2.663   2.993   9.124
31718WAT      O95395   6.938   6.079   5.193
31718WAT     H195396   7.034   6.101   5.209
31718WAT     H295397   6.918   6.091   5.096
31719WAT      O95398   6.171   0.317   1.671
31719WAT     H195399   6.141   0.367   1.752
31719WAT     H295400   6.132   0.359   1.590
31720WAT      O95401   8.266   7.132   2.968
31720WAT     H195402   8.238   7.147   2.873
31720WAT     H295403   8.199   7.073   3.013
31721WAT      O95404   8.693   8.531   2.674
31721WAT     H195405   8.666   8.491   2.586
31721WAT     H295406   8.756   8.470   2.721
31722WAT      O95407   2.908   9.841   0.773
31722WAT     H195408   2.928   9.773   0.703
31722WAT     H295409   2.813   9.871   0.763
31723WAT      O95410   5.087   8.543   0.230
31723WAT     H195411   5.039   8.470   0.279
31723WAT     H295412   5.116   8.511   0.140
31724WAT      O95413   3.347   3.053   3.381
31724WAT     H195414   3.426   3.062   3.321
31724WAT     H295415   3.364   3.102   3.467
31725WAT      O95416   1.663   9.313   7.353
31725WAT     H195417   1.565   9.298   7.344
31725WAT     H295418   1.703   9.328   7.262
31726WAT      O95419   0.674   0.419   2.541
31726WAT     H195420   0.587   0.408   2.493
31726WAT     H295421   0.697   0.333   2.588
31727WAT      O95422   6.703   8.682   1.209
31727WAT     H195423   6.752   8.595   1.208
31727WAT     H295424   6.613   8.669   1.250
31728WAT      O95425   5.898   7.559   9.505
31728WAT     H195426   5.895   7.659   9.500
31728WAT     H295427   5.914   7.530   9.599
31729WAT      O95428   6.527   1.380   2.699
31729WAT     H195429   6.548   1.465   2.650
31729WAT     H295430   6.428   1.373   2.713
31730WAT      O95431   9.533   5.978   3.236
31730WAT     H195432   9.585   6.064   3.231
31730WAT     H295433   9.439   5.995   3.205
31731WAT      O95434   8.265   9.204   4.637
31731WAT     H195435   8.349   9.248   4.670
31731WAT     H295436   8.255   9.221   4.539
31732WAT      O95437   3.963   8.703   1.133
31732WAT     H195438   3.973   8.604   1.147
31732WAT     H295439   3.984   8.752   1.217
31733WAT      O95440   0.117   9.686   0.743
31733WAT     H195441   0.080   9.594   0.749
31733WAT     H295442   0.153   9.714   0.832
31734WAT      O95443   7.045   4.796   8.410
31734WAT     H195444   7.126   4.853   8.422
31734WAT     H295445   7.043   4.727   8.482
31735WAT      O95446   7.299   9.544   7.490
31735WAT     H195447   7.282   9.568   7.395
31735WAT     H295448   7.390   9.503   7.499
31736WAT      O95449   3.818   4.180   1.085
31736WAT     H195450   3.734   4.128   1.066
31736WAT     H295451   3.795   4.274   1.107
31737WAT      O95452   8.379   9.340   0.105
31737WAT     H195453   8.394   9.437   0.122
31737WAT     H295454   8.437   9.285   0.165
31738WAT      O95455   4.814   4.627   0.449
31738WAT     H195456   4.772   4.623   0.358
31738WAT     H295457   4.758   4.577   0.514
31739WAT      O95458   2.612   2.006   7.492
31739WAT     H195459   2.638   1.928   7.549
31739WAT     H295460   2.688   2.030   7.432
31740WAT      O95461   8.222   9.311   2.108
31740WAT     H195462   8.200   9.240   2.174
31740WAT     H295463   8.318   9.303   2.082
31741WAT      O95464   1.114   3.825   0.228
31741WAT     H195465   1.164   3.842   0.313
31741WAT     H295466   1.030   3.879   0.228
31742WAT      O95467   9.650   8.600   9.512
31742WAT     H195468   9.738   8.646   9.526
31742WAT     H295469   9.635   8.587   9.414
31743WAT      O95470   8.240   7.870   0.875
31743WAT     H195471   8.237   7.836   0.782
31743WAT     H295472   8.291   7.956   0.878
31744WAT      O95473   1.467   8.553   1.334
31744WAT     H195474   1.395   8.509   1.388
31744WAT     H295475   1.553   8.504   1.348
31745WAT      O95476   2.044   9.540   7.089
31745WAT     H195477   2.121   9.508   7.035
31745WAT     H295478   2.073   9.556   7.184
31746WAT      O95479   4.554   0.785   6.816
31746WAT     H195480   4.470   0.832   6.843
31746WAT     H295481   4.536   0.687   6.809
31747WAT      O95482   3.221   8.831   7.954
31747WAT     H195483   3.239   8.885   7.871
31747WAT     H295484   3.275   8.747   7.951
31748WAT      O95485   6.698   8.895   7.334
31748WAT     H195486   6.610   8.935   7.309
31748WAT     H295487   6.768   8.924   7.269
31749WAT      O95488   0.872   9.707   2.570
31749WAT     H195489   0.949   9.714   2.507
31749WAT     H295490   0.892   9.638   2.640
31750WAT      O95491   8.949   7.820   1.575
31750WAT     H195492   8.962   7.756   1.500
31750WAT     H295493   8.851   7.838   1.587
31751WAT      O95494   0.616   6.002   2.911
31751WAT     H195495   0.563   5.919   2.930
31751WAT     H295496   0.687   6.013   2.979
31752WAT      O95497   7.946   7.499   9.819
31752WAT     H195498   7.954   7.458   9.728
31752WAT     H295499   7.935   7.598   9.810
31753WAT      O95500   7.428   3.976   2.506
31753WAT     H195501   7.473   4.001   2.592
31753WAT     H295502   7.464   4.033   2.432
31754WAT      O95503   0.784   7.449   0.441
31754WAT     H195504   0.869   7.438   0.390
31754WAT     H295505   0.784   7.537   0.489
31755WAT      O95506   9.399   1.744   8.798
31755WAT     H195507   9.443   1.699   8.720
31755WAT     H295508   9.351   1.675   8.853
31756WAT      O95509   2.318   2.900   1.865
31756WAT     H195510   2.373   2.838   1.809
31756WAT     H295511   2.226   2.861   1.877
31757WAT      O95512   5.913   3.581   8.592
31757WAT     H195513   5.989   3.538   8.544
31757WAT     H295514   5.886   3.524   8.670
31758WAT      O95515   3.570   9.486   9.126
31758WAT     H195516   3.602   9.510   9.218
31758WAT     H295517   3.641   9.507   9.059
31759WAT      O95518   3.756   1.402   7.419
31759WAT     H195519   3.732   1.440   7.329
31759WAT     H295520   3.851   1.371   7.417
31760WAT      O95521   1.238   8.927   9.627
31760WAT     H195522   1.270   8.918   9.533
31760WAT     H295523   1.286   8.862   9.686
31761WAT      O95524   1.647   7.938   8.071
31761WAT     H195525   1.739   7.938   8.109
31761WAT     H295526   1.605   7.848   8.086
31762WAT      O95527   9.229   4.195   3.093
31762WAT     H195528   9.280   4.179   3.177
31762WAT     H295529   9.280   4.159   3.015
31763WAT      O95530   1.697   8.053   9.111
31763WAT     H195531   1.724   8.014   9.023
31763WAT     H295532   1.778   8.070   9.166
31764WAT      O95533   1.882   3.259   5.142
31764WAT     H195534   1.976   3.267   5.174
31764WAT     H295535   1.862   3.163   5.122
31765WAT      O95536   9.436   0.687   7.514
31765WAT     H195537   9.409   0.714   7.606
31765WAT     H295538   9.457   0.769   7.460
31766WAT      O95539   2.570   3.434   3.628
31766WAT     H195540   2.619   3.520   3.611
31766WAT     H295541   2.502   3.420   3.557
31767WAT      O95542   2.142   3.405   0.994
31767WAT     H195543   2.182   3.496   1.005
31767WAT     H295544   2.088   3.382   1.075
31768WAT      O95545   6.106   0.273   5.969
31768WAT     H195546   6.104   0.371   5.954
31768WAT     H295547   6.201   0.242   5.975
31769WAT      O95548   0.241   1.786   9.408
31769WAT     H195549   0.297   1.729   9.469
31769WAT     H295550   0.171   1.833   9.461
31770WAT      O95551   6.325   0.879   1.366
31770WAT     H195552   6.324   0.950   1.295
31770WAT     H295553   6.415   0.837   1.371
31771WAT      O95554   2.313   3.065   1.520
31771WAT     H195555   2.246   2.992   1.533
31771WAT     H295556   2.401   3.037   1.560
31772WAT      O95557   9.236   4.914   9.310
31772WAT     H195558   9.175   4.949   9.238
31772WAT     H295559   9.309   4.860   9.268
31773WAT      O95560   5.385   7.677   6.199
31773WAT     H195561   5.349   7.684   6.292
31773WAT     H295562   5.377   7.766   6.153
31774WAT      O95563   1.757   8.121   1.896
31774WAT     H195564   1.710   8.041   1.934
31774WAT     H295565   1.690   8.185   1.859
31775WAT      O95566   1.054   2.610   1.977
31775WAT     H195567   1.102   2.528   2.009
31775WAT     H295568   0.966   2.584   1.938
31776WAT      O95569   6.952   8.645   2.078
31776WAT     H195570   7.051   8.633   2.081
31776WAT     H295571   6.910   8.597   2.155
31777WAT      O95572   4.026   0.140   2.437
31777WAT     H195573   4.018   0.056   2.491
31777WAT     H295574   4.059   0.117   2.346
31778WAT      O95575   5.988   9.534   5.815
31778WAT     H195576   5.896   9.495   5.821
31778WAT     H295577   5.988   9.626   5.854
31779WAT      O95578   2.537   4.893   4.992
31779WAT     H195579   2.637   4.890   4.981
31779WAT     H295580   2.502   4.800   5.005
31780WAT      O95581   2.109   6.178   8.385
31780WAT     H195582   2.041   6.250   8.373
31780WAT     H295583   2.071   6.091   8.354
31781WAT      O95584   1.191   5.427   6.350
31781WAT     H195585   1.244   5.351   6.388
31781WAT     H295586   1.135   5.468   6.421
31782WAT      O95587   9.406   5.930   9.709
31782WAT     H195588   9.318   5.938   9.661
31782WAT     H295589   9.474   5.891   9.648
31783WAT      O95590   0.724   3.461   0.148
31783WAT     H195591   0.706   3.522   0.225
31783WAT     H295592   0.805   3.494   0.099
31784WAT      O95593   2.526   6.768   8.958
31784WAT     H195594   2.450   6.725   9.005
31784WAT     H295595   2.522   6.867   8.971
31785WAT      O95596   9.240   6.305   3.872
31785WAT     H195597   9.210   6.283   3.965
31785WAT     H295598   9.207   6.235   3.809
31786WAT      O95599   9.265   5.931   2.082
31786WAT     H195600   9.337   5.953   2.015
31786WAT     H295601   9.245   6.013   2.136
31787WAT      O95602   5.645   7.412   7.235
31787WAT     H195603   5.581   7.470   7.287
31787WAT     H295604   5.737   7.426   7.270
31788WAT      O95605   8.442   3.497   4.479
31788WAT     H195606   8.375   3.554   4.431
31788WAT     H295607   8.439   3.518   4.577
31789WAT      O95608   6.218   5.910   8.169
31789WAT     H195609   6.237   6.000   8.208
31789WAT     H295610   6.304   5.871   8.134
31790WAT      O95611   0.470   9.094   2.080
31790WAT     H195612   0.517   9.019   2.128
31790WAT     H295613   0.442   9.063   1.989
31791WAT      O95614   5.911   8.906   6.189
31791WAT     H195615   5.886   8.979   6.252
31791WAT     H295616   5.872   8.926   6.099
31792WAT      O95617   2.600   9.743   7.524
31792WAT     H195618   2.594   9.659   7.577
31792WAT     H295619   2.541   9.813   7.565
31793WAT      O95620   2.199   1.033   3.783
31793WAT     H195621   2.105   1.063   3.799
31793WAT     H295622   2.262   1.105   3.811
31794WAT      O95623   4.731   5.166   8.727
31794WAT     H195624   4.704   5.102   8.799
31794WAT     H295625   4.775   5.116   8.652
31795WAT      O95626   3.849   2.444   1.848
31795WAT     H195627   3.837   2.475   1.943
31795WAT     H295628   3.829   2.347   1.842
31796WAT      O95629   1.711   9.301   0.612
31796WAT     H195630   1.778   9.365   0.574
31796WAT     H295631   1.739   9.275   0.705
31797WAT      O95632   4.132   5.876   9.754
31797WAT     H195633   4.130   5.786   9.710
31797WAT     H295634   4.160   5.865   9.849
31798WAT      O95635   1.750   6.661   1.941
31798WAT     H195636   1.795   6.747   1.964
31798WAT     H295637   1.746   6.603   2.022
31799WAT      O95638   7.956   9.482   1.395
31799WAT     H195639   7.929   9.424   1.471
31799WAT     H295640   7.898   9.463   1.316
31800WAT      O95641   0.183   1.127   8.545
31800WAT     H195642   0.100   1.180   8.525
31800WAT     H295643   0.157   1.039   8.586
31801WAT      O95644   1.245   3.126   4.185
31801WAT     H195645   1.338   3.125   4.148
31801WAT     H295646   1.248   3.140   4.284
31802WAT      O95647   8.399   4.765   3.488
31802WAT     H195648   8.358   4.674   3.495
31802WAT     H295649   8.497   4.760   3.507
31803WAT      O95650   3.476   8.926   5.328
31803WAT     H195651   3.385   8.967   5.340
31803WAT     H295652   3.480   8.878   5.241
31804WAT      O95653   9.344   5.259   0.083
31804WAT     H195654   9.399   5.177   0.069
31804WAT     H295655   9.291   5.250   0.167
31805WAT      O95656   4.952   1.989   4.530
31805WAT     H195657   4.944   2.052   4.454
31805WAT     H295658   4.954   1.895   4.496
31806WAT      O95659   4.833   1.316   2.707
31806WAT     H195660   4.864   1.249   2.775
31806WAT     H295661   4.760   1.372   2.747
31807WAT      O95662   8.392   4.193   3.007
31807WAT     H195663   8.390   4.265   2.938
31807WAT     H295664   8.377   4.233   3.097
31808WAT      O95665   2.722   4.511   8.612
31808WAT     H195666   2.784   4.561   8.552
31808WAT     H295667   2.628   4.541   8.596
31809WAT      O95668   3.363   2.762   2.387
31809WAT     H195669   3.438   2.824   2.407
31809WAT     H295670   3.296   2.807   2.328
31810WAT      O95671   7.268   3.783   2.451
31810WAT     H195672   7.341   3.848   2.472
31810WAT     H295673   7.301   3.690   2.468
31811WAT      O95674   1.552   8.772   6.800
31811WAT     H195675   1.621   8.701   6.785
31811WAT     H295676   1.483   8.768   6.728
31812WAT      O95677   6.466   2.204   0.203
31812WAT     H195678   6.387   2.148   0.226
31812WAT     H295679   6.454   2.296   0.241
31813WAT      O95680   6.416   6.700   6.131
31813WAT     H195681   6.463   6.682   6.044
31813WAT     H295682   6.448   6.635   6.200
31814WAT      O95683   9.147   3.759   8.773
31814WAT     H195684   9.188   3.850   8.767
31814WAT     H295685   9.219   3.690   8.770
31815WAT      O95686   9.449   3.310   8.287
31815WAT     H195687   9.527   3.307   8.225
31815WAT     H295688   9.475   3.273   8.376
31816WAT      O95689   6.966   3.680   4.897
31816WAT     H195690   7.032   3.689   4.824
31816WAT     H295691   6.940   3.770   4.932
31817WAT      O95692   1.175   3.767   0.959
31817WAT     H195693   1.094   3.808   0.917
31817WAT     H295694   1.257   3.800   0.914
31818WAT      O95695   3.796   6.198   5.810
31818WAT     H195696   3.783   6.109   5.768
31818WAT     H295697   3.845   6.259   5.747
31819WAT      O95698   0.466   3.311   0.799
31819WAT     H195699   0.441   3.403   0.770
31819WAT     H295700   0.391   3.271   0.852
31820WAT      O95701   9.457   0.535   6.418
31820WAT     H195702   9.421   0.483   6.496
31820WAT     H295703   9.388   0.537   6.345
31821WAT      O95704   2.453   7.369   0.730
31821WAT     H195705   2.428   7.275   0.752
31821WAT     H295706   2.397   7.432   0.784
31822WAT      O95707   3.389   4.799   4.050
31822WAT     H195708   3.426   4.721   4.000
31822WAT     H295709   3.434   4.883   4.019
31823WAT      O95710   4.756   1.458   8.513
31823WAT     H195711   4.830   1.512   8.553
31823WAT     H295712   4.736   1.491   8.421
31824WAT      O95713   6.045   0.159   6.966
31824WAT     H195714   6.061   0.156   6.868
31824WAT     H295715   6.071   0.250   7.001
31825WAT      O95716   2.408   8.179   3.093
31825WAT     H195717   2.337   8.224   3.146
31825WAT     H295718   2.434   8.237   3.016
31826WAT      O95719   0.587   1.446   6.860
31826WAT     H195720   0.558   1.535   6.827
31826WAT     H295721   0.522   1.413   6.929
31827WAT      O95722   4.049   7.203   1.460
31827WAT     H195723   4.144   7.173   1.447
31827WAT     H295724   4.044   7.268   1.536
31828WAT      O95725   6.589   5.813   0.666
31828WAT     H195726   6.572   5.863   0.581
31828WAT     H295727   6.507   5.814   0.722
31829WAT      O95728   0.765   6.241   5.446
31829WAT     H195729   0.830   6.172   5.413
31829WAT     H295730   0.680   6.197   5.473
31830WAT      O95731   9.441   3.245   3.832
31830WAT     H195732   9.444   3.301   3.749
31830WAT     H295733   9.521   3.185   3.834
31831WAT      O95734   5.924   2.688   1.745
31831WAT     H195735   5.940   2.655   1.838
31831WAT     H295736   5.846   2.750   1.744
31832WAT      O95737   1.526   1.319   5.504
31832WAT     H195738   1.573   1.407   5.503
31832WAT     H295739   1.554   1.266   5.424
31833WAT      O95740   8.508   9.802   6.031
31833WAT     H195741   8.479   9.843   5.944
31833WAT     H295742   8.606   9.783   6.028
31834WAT      O95743   3.654   5.444   0.722
31834WAT     H195744   3.718   5.516   0.748
31834WAT     H295745   3.652   5.435   0.622
31835WAT      O95746   3.660   8.317   9.241
31835WAT     H195747   3.677   8.408   9.277
31835WAT     H295748   3.589   8.272   9.296
31836WAT      O95749   8.288   5.018   7.547
31836WAT     H195750   8.232   5.099   7.531
31836WAT     H295751   8.291   4.999   7.645
31837WAT      O95752   6.975   1.933   8.343
31837WAT     H195753   6.913   1.855   8.356
31837WAT     H295754   7.067   1.900   8.321
31838WAT      O95755   2.383   8.059   9.778
31838WAT     H195756   2.433   8.109   9.707
31838WAT     H295757   2.382   7.962   9.755
31839WAT      O95758   7.066   2.773   2.316
31839WAT     H195759   6.977   2.751   2.277
31839WAT     H295760   7.129   2.696   2.304
31840WAT      O95761   6.745   9.586   2.621
31840WAT     H195762   6.747   9.494   2.582
31840WAT     H295763   6.758   9.580   2.720
31841WAT      O95764   1.041   5.406   4.845
31841WAT     H195765   1.007   5.336   4.781
31841WAT     H295766   1.000   5.494   4.821
31842WAT      O95767   2.803   2.920   2.647
31842WAT     H195768   2.839   2.833   2.681
31842WAT     H295769   2.716   2.903   2.600
31843WAT      O95770   8.802   2.779   9.559
31843WAT     H195771   8.900   2.758   9.554
31843WAT     H295772   8.785   2.840   9.636
31844WAT      O95773   8.926   9.369   6.502
31844WAT     H195774   8.924   9.317   6.417
31844WAT     H295775   8.833   9.399   6.525
31845WAT      O95776   9.846   7.390   6.672
31845WAT     H195777   9.833   7.475   6.723
31845WAT     H295778   9.771   7.327   6.692
31846WAT      O95779   9.344   3.795   4.156
31846WAT     H195780   9.365   3.769   4.062
31846WAT     H295781   9.382   3.885   4.174
31847WAT      O95782   9.577   3.042   8.073
31847WAT     H195783   9.604   3.116   8.010
31847WAT     H295784   9.559   2.959   8.021
31848WAT      O95785   6.173   6.970   0.837
31848WAT     H195786   6.268   6.967   0.866
31848WAT     H295787   6.166   7.020   0.750
31849WAT      O95788   0.434   6.100   9.256
31849WAT     H195789   0.440   6.169   9.183
31849WAT     H295790   0.506   6.032   9.244
31850WAT      O95791   2.295   0.458   0.059
31850WAT     H195792   2.259   0.406  -0.018
31850WAT     H295793   2.265   0.553   0.053
31851WAT      O95794   4.740   7.736   2.872
31851WAT     H195795   4.653   7.748   2.919
31851WAT     H295796   4.797   7.817   2.885
31852WAT      O95797   1.809   2.901   4.393
31852WAT     H195798   1.865   2.818   4.396
31852WAT     H295799   1.769   2.917   4.483
31853WAT      O95800   0.324   3.642   8.127
31853WAT     H195801   0.386   3.702   8.076
31853WAT     H295802   0.353   3.547   8.115
31854WAT      O95803   4.516   0.816   1.995
31854WAT     H195804   4.552   0.903   2.029
31854WAT     H295805   4.563   0.740   2.041
31855WAT      O95806   2.314   5.343   8.328
31855WAT     H195807   2.342   5.252   8.298
31855WAT     H295808   2.246   5.334   8.401
31856WAT      O95809   6.661   7.747   7.320
31856WAT     H195810   6.666   7.685   7.242
31856WAT     H295811   6.752   7.757   7.360
31857WAT      O95812   5.490   4.569   1.464
31857WAT     H195813   5.492   4.646   1.401
31857WAT     H295814   5.401   4.564   1.509
31858WAT      O95815   2.433   7.397   6.712
31858WAT     H195816   2.453   7.441   6.799
31858WAT     H295817   2.518   7.362   6.671
31859WAT      O95818   2.214   0.797   8.013
31859WAT     H195819   2.183   0.891   7.997
31859WAT     H295820   2.172   0.736   7.947
31860WAT      O95821   0.069   6.774   1.116
31860WAT     H195822   0.144   6.710   1.099
31860WAT     H295823   0.103   6.855   1.164
31861WAT      O95824   0.307   1.410   5.013
31861WAT     H195825   0.377   1.353   5.056
31861WAT     H295826   0.243   1.352   4.962
31862WAT      O95827   1.433   9.504   5.970
31862WAT     H195828   1.501   9.460   6.029
31862WAT     H295829   1.366   9.552   6.026
31863WAT      O95830   3.831   3.464   9.228
31863WAT     H195831   3.733   3.477   9.245
31863WAT     H295832   3.876   3.433   9.312
31864WAT      O95833   8.928   9.743   9.640
31864WAT     H195834   8.872   9.811   9.593
31864WAT     H295835   8.986   9.696   9.575
31865WAT      O95836   7.518   1.035   2.327
31865WAT     H195837   7.536   0.985   2.412
31865WAT     H295838   7.557   1.127   2.333
31866WAT      O95839   8.905   2.533   0.766
31866WAT     H195840   8.962   2.571   0.694
31866WAT     H295841   8.868   2.606   0.823
31867WAT      O95842   9.536   3.308   5.031
31867WAT     H195843   9.486   3.238   5.083
31867WAT     H295844   9.632   3.281   5.022
31868WAT      O95845   1.999   7.435   1.641
31868WAT     H195846   1.988   7.533   1.628
31868WAT     H295847   2.090   7.407   1.611
31869WAT      O95848   0.217   8.342   1.679
31869WAT     H195849   0.184   8.420   1.733
31869WAT     H295850   0.191   8.257   1.725
31870WAT      O95851   7.614   2.364   5.992
31870WAT     H195852   7.711   2.360   6.017
31870WAT     H295853   7.590   2.283   5.938
31871WAT      O95854   6.155   9.173   9.552
31871WAT     H195855   6.194   9.134   9.636
31871WAT     H295856   6.066   9.132   9.534
31872WAT      O95857   5.529   3.781   8.417
31872WAT     H195858   5.537   3.688   8.452
31872WAT     H295859   5.519   3.780   8.318
31873WAT      O95860   5.557   4.745   8.474
31873WAT     H195861   5.585   4.834   8.436
31873WAT     H295862   5.493   4.760   8.550
31874WAT      O95863   6.280   7.202   3.453
31874WAT     H195864   6.259   7.250   3.539
31874WAT     H295865   6.355   7.137   3.469
31875WAT      O95866   1.603   5.153   2.163
31875WAT     H195867   1.679   5.191   2.216
31875WAT     H295868   1.530   5.124   2.225
31876WAT      O95869   3.939   0.887   9.130
31876WAT     H195870   3.901   0.794   9.127
31876WAT     H295871   3.901   0.936   9.208
31877WAT      O95872   6.457   4.786   5.613
31877WAT     H195873   6.551   4.811   5.592
31877WAT     H295874   6.417   4.855   5.675
31878WAT      O95875   3.739   4.938   9.186
31878WAT     H195876   3.735   5.031   9.148
31878WAT     H295877   3.658   4.887   9.156
31879WAT      O95878   9.450   5.704   2.273
31879WAT     H195879   9.531   5.718   2.329
31879WAT     H295880   9.461   5.750   2.185
31880WAT      O95881   3.996   2.969   1.412
31880WAT     H195882   3.987   3.069   1.416
31880WAT     H295883   3.931   2.932   1.345
31881WAT      O95884   5.593   9.143   1.533
31881WAT     H195885   5.526   9.070   1.547
31881WAT     H295886   5.633   9.169   1.622
31882WAT      O95887   2.651   6.556   7.365
31882WAT     H195888   2.715   6.481   7.349
31882WAT     H295889   2.651   6.580   7.462
31883WAT      O95890   7.477   1.254   7.584
31883WAT     H195891   7.390   1.245   7.536
31883WAT     H295892   7.523   1.338   7.554
31884WAT      O95893   3.226   9.063   5.303
31884WAT     H195894   3.152   9.001   5.277
31884WAT     H295895   3.229   9.071   5.403
31885WAT      O95896   3.663   7.820   1.060
31885WAT     H195897   3.641   7.915   1.079
31885WAT     H295898   3.592   7.761   1.098
31886WAT      O95899   7.574   5.703   2.526
31886WAT     H195900   7.634   5.626   2.548
31886WAT     H295901   7.526   5.732   2.608
31887WAT      O95902   1.350   2.065   7.020
31887WAT     H195903   1.330   2.080   6.924
31887WAT     H295904   1.387   2.149   7.061
31888WAT      O95905   0.043   8.157   2.565
31888WAT     H195906   0.054   8.250   2.600
31888WAT     H295907   0.122   8.133   2.509
31889WAT      O95908   7.125   7.155   1.012
31889WAT     H195909   7.174   7.242   1.010
31889WAT     H295910   7.027   7.171   0.999
31890WAT      O95911   7.612   4.907   4.948
31890WAT     H195912   7.514   4.908   4.926
31890WAT     H295913   7.628   4.955   5.034
31891WAT      O95914   3.733   1.310   2.097
31891WAT     H195915   3.662   1.244   2.121
31891WAT     H295916   3.747   1.373   2.174
31892WAT      O95917   7.478   6.533   3.423
31892WAT     H195918   7.536   6.553   3.502
31892WAT     H295919   7.383   6.552   3.446
31893WAT      O95920   8.172   5.952   0.315
31893WAT     H195921   8.082   5.911   0.303
31893WAT     H295922   8.228   5.891   0.372
31894WAT      O95923   8.843   2.433   5.465
31894WAT     H195924   8.761   2.442   5.410
31894WAT     H295925   8.920   2.408   5.407
31895WAT      O95926   3.015   6.937   4.476
31895WAT     H195927   3.074   6.893   4.408
31895WAT     H295928   3.037   7.034   4.480
31896WAT      O95929   4.943   8.206   4.110
31896WAT     H195930   5.038   8.204   4.079
31896WAT     H295931   4.907   8.298   4.100
31897WAT      O95932   2.245   6.715   6.138
31897WAT     H195933   2.164   6.656   6.144
31897WAT     H295934   2.228   6.788   6.071
31898WAT      O95935   2.681   3.046   7.996
31898WAT     H195936   2.693   3.102   7.914
31898WAT     H295937   2.672   2.950   7.969
31899WAT      O95938   8.089   4.806   0.273
31899WAT     H195939   8.013   4.850   0.225
31899WAT     H295940   8.062   4.790   0.369
   9.88928    9.84380    9.89279 
